INSANE! Membrane UpperLeaflet>loPI=1.0 LowerLeaflet>PSPI:POPI:POPS:YOPS:POPE:YOPE:POPC:YOPC:ERGO=6.0:14.0:21.0:9.0:9.0:21.0:12.0:48.0:60.0
49877
    1loPI    C1    1   5.201  11.709  11.123  0.1384 -0.0172 -0.2156
    1loPI    C2    2   4.924  11.420  11.134  0.0417  0.0659 -0.4195
    1loPI    C3    3   4.844  11.781  11.287  0.1654 -0.0152 -0.1573
    1loPI   PO4    4   5.314  11.634  10.893 -0.3215 -0.3004  0.0434
    1loPI   GL1    5   5.499  11.519  10.572 -0.0613 -0.0267 -0.0386
    1loPI   GL2    6   5.297  11.749  10.369 -0.0827  0.0616  0.1828
    1loPI   C1A    7   5.651  11.470  10.148 -0.0237  0.0297 -0.1300
    1loPI   C2A    8   5.588  11.434   9.709 -0.1796  0.0765 -0.0448
    1loPI   C3A    9   5.539  11.420   9.258 -0.0359 -0.0294  0.0355
    1loPI   C4A   10   5.552  11.479   8.842  0.4579 -0.0576  0.0505
    1loPI   C5A   11   5.441  11.483   8.448  0.0502  0.1614  0.0037
    1loPI   C6A   12   5.300  11.711   8.074 -0.1973 -0.0391 -0.0299
    1loPI   C1B   13   5.357  11.845   9.885 -0.2655 -0.1266 -0.1491
    1loPI   C2B   14   5.299  11.862   9.460  0.0389 -0.2596 -0.1303
    1loPI   C3B   15   5.185  11.985   8.980 -0.0882 -0.0325 -0.1344
    1loPI   C4B   16   5.217  11.956   8.548 -0.2082  0.0256  0.0293
    2loPI    C1   17   1.749   9.255  11.111 -0.0626 -0.1307 -0.2020
    2loPI    C2   18   1.358   9.180  11.145 -0.0532 -0.1119 -0.0451
    2loPI    C3   19   1.625   8.890  11.215 -0.0306 -0.0487  0.1343
    2loPI   PO4   20   1.758   9.404  10.919 -0.3058 -0.0804 -0.2249
    2loPI   GL1   21   1.649   9.399  10.519 -0.0469  0.2885  0.1758
    2loPI   GL2   22   1.377   9.152  10.594 -0.0452 -0.1455  0.0240
    2loPI   C1A   23   1.546   9.426  10.118  0.3472  0.0308  0.0746
    2loPI   C2A   24   1.486   9.451   9.623 -0.0486  0.0191  0.2155
    2loPI   C3A   25   1.481   9.421   9.166  0.2778 -0.1579  0.0269
    2loPI   C4A   26   1.485   9.494   8.681 -0.0048 -0.2449 -0.0814
    2loPI   C5A   27   1.577   9.569   8.275  0.0621 -0.0810 -0.3494
    2loPI   C6A   28   1.797   9.662   7.892  0.3552  0.2551  0.1026
    2loPI   C1B   29   1.242   8.950  10.250 -0.1647  0.0238  0.2845
    2loPI   C2B   30   1.285   8.996   9.790  0.0915 -0.0893 -0.1287
    2loPI   C3B   31   1.221   8.967   9.344  0.1691 -0.1625  0.2432
    2loPI   C4B   32   1.275   8.869   8.881 -0.0213  0.0519 -0.0393
    3loPI    C1   33  16.132   9.980  10.975  0.0045 -0.0143  0.0279
    3loPI    C2   34  16.008   9.638  10.810 -0.0775 -0.0031  0.0658
    3loPI    C3   35  16.340   9.643  11.032  0.0526 -0.0114 -0.1261
    3loPI   PO4   36  16.171  10.211  10.818  0.4267  0.2444 -0.4671
    3loPI   GL1   37  16.163  10.057  10.421  0.2801  0.3061 -0.1558
    3loPI   GL2   38  15.876   9.985  10.504 -0.0901 -0.1365  0.2384
    3loPI   C1A   39  16.346  10.062  10.051 -0.1791  0.2447 -0.0556
    3loPI   C2A   40  16.380  10.183   9.634 -0.1314  0.0294 -0.0185
    3loPI   C3A   41  16.446  10.206   9.151 -0.0280 -0.0465  0.1435
    3loPI   C4A   42  16.438  10.111   8.761 -0.0361 -0.0396 -0.2289
    3loPI   C5A   43  16.218  10.307   8.499  0.2345  0.0360  0.1802
    3loPI   C6A   44  16.222  10.148   8.099  0.2359 -0.0886  0.2664
    3loPI   C1B   45  15.847  10.051  10.076  0.0758 -0.3724 -0.0298
    3loPI   C2B   46  15.850  10.213   9.665  0.1043 -0.2935 -0.3582
    3loPI   C3B   47  15.878  10.103   9.256 -0.2804 -0.2189  0.5353
    3loPI   C4B   48  15.896  10.144   8.805  0.2007  0.0713  0.2518
    4loPI    C1   49   8.400   6.450  10.973 -0.1027 -0.1484  0.0296
    4loPI    C2   50   8.721   6.543  11.195 -0.1445  0.0428  0.0118
    4loPI    C3   51   8.364   6.702  11.282 -0.1766  0.0592 -0.1454
    4loPI   PO4   52   8.482   6.515  10.734  0.2856 -0.1941  0.0551
    4loPI   GL1   53   8.632   6.522  10.368  0.2278  0.2224 -0.3386
    4loPI   GL2   54   8.227   6.620  10.358  0.1004 -0.0860  0.0119
    4loPI   C1A   55   8.714   6.610  10.035  0.0654  0.1967  0.1518
    4loPI   C2A   56   8.706   6.636   9.515 -0.2210  0.1940  0.1911
    4loPI   C3A   57   8.683   6.680   9.040  0.0528 -0.4241  0.2739
    4loPI   C4A   58   8.547   6.676   8.705  0.3227  0.0414 -0.0966
    4loPI   C5A   59   8.628   6.302   8.381 -0.3108  0.2135  0.3205
    4loPI   C6A   60   8.839   6.094   7.991 -0.0250 -0.1001 -0.1584
    4loPI   C1B   61   8.168   6.608   9.907 -0.3795 -0.2694  0.2840
    4loPI   C2B   62   8.058   6.706   9.399 -0.5378 -0.0169  0.1587
    4loPI   C3B   63   8.026   6.622   8.892 -0.0312 -0.3312 -0.0637
    4loPI   C4B   64   8.162   6.490   8.415  0.0256 -0.1369 -0.1943
    5loPI    C1   65  11.499   4.653  10.805 -0.0284 -0.2052  0.0150
    5loPI    C2   66  11.558   5.013  10.970 -0.3733 -0.0052 -0.2840
    5loPI    C3   67  11.768   4.904  10.648 -0.2242 -0.0995 -0.1563
    5loPI   PO4   68  11.290   4.670  10.794  0.1132  0.0949  0.2482
    5loPI   GL1   69  10.990   4.676  10.429  0.0645 -0.0203 -0.2448
    5loPI   GL2   70  10.751   4.971  10.461 -0.2109 -0.0088  0.1909
    5loPI   C1A   71  11.143   4.671  10.018 -0.3146  0.2976 -0.1412
    5loPI   C2A   72  11.199   4.597   9.580 -0.1215  0.0814 -0.1241
    5loPI   C3A   73  11.249   4.598   9.100  0.1154  0.3143  0.0349
    5loPI   C4A   74  11.118   4.694   8.708  0.0817 -0.0562 -0.0614
    5loPI   C5A   75  10.812   4.865   8.384  0.0530 -0.0919 -0.1079
    5loPI   C6A   76  10.761   4.694   8.039  0.1036  0.1015 -0.0313
    5loPI   C1B   77  10.676   4.959  10.065  0.2717 -0.0058  0.0869
    5loPI   C2B   78  10.798   4.950   9.745 -0.0637 -0.0324 -0.0957
    5loPI   C3B   79  10.867   4.917   9.340 -0.0470 -0.1366  0.1023
    5loPI   C4B   80  10.718   4.936   8.938 -0.1773 -0.4063  0.1889
    6loPI    C1   81   7.776   1.592  10.777 -0.0555  0.1071  0.1183
    6loPI    C2   82   7.738   1.251  10.984  0.2876  0.0453  0.0853
    6loPI    C3   83   7.801   1.596  11.176 -0.0250  0.0875  0.1167
    6loPI   PO4   84   7.633   1.591  10.636 -0.1595 -0.1342  0.3102
    6loPI   GL1   85   7.634   1.584  10.194 -0.0052 -0.0948 -0.2038
    6loPI   GL2   86   7.321   1.428  10.283  0.2828  0.1134  0.1714
    6loPI   C1A   87   7.788   1.581   9.710 -0.1674 -0.0048  0.1050
    6loPI   C2A   88   7.711   1.585   9.293  0.0041 -0.1688 -0.2856
    6loPI   C3A   89   7.672   1.645   8.941  0.1683 -0.2268  0.2419
    6loPI   C4A   90   7.628   1.567   8.567  0.0748  0.2067  0.0459
    6loPI   C5A   91   7.712   1.659   8.166 -0.0904 -0.0551  0.0597
    6loPI   C6A   92   7.377   1.504   8.085 -0.0340  0.0598  0.4014
    6loPI   C1B   93   7.224   1.570   9.841  0.1222  0.2192  0.0829
    6loPI   C2B   94   7.259   1.599   9.397  0.1464  0.1693  0.0344
    6loPI   C3B   95   7.091   1.681   8.992 -0.1041 -0.1219  0.1562
    6loPI   C4B   96   7.115   1.610   8.543  0.4767  0.2688 -0.0594
    7loPI    C1   97   9.803  12.840  10.863 -0.3416  0.0855  0.1368
    7loPI    C2   98   9.553  12.903  11.169 -0.1401  0.0273  0.3158
    7loPI    C3   99   9.839  12.625  11.198 -0.0405  0.1072  0.1212
    7loPI   PO4  100   9.829  13.057  10.758 -0.1464  0.2042  0.2816
    7loPI   GL1  101   9.602  13.243  10.527  0.0002 -0.1036  0.1131
    7loPI   GL2  102   9.339  13.191  10.230  0.1459  0.1948 -0.0181
    7loPI   C1A  103   9.905  13.166  10.167  0.1968 -0.0190  0.0978
    7loPI   C2A  104   9.911  13.081   9.740  0.3572  0.0537  0.1457
    7loPI   C3A  105   9.882  13.075   9.308 -0.2310 -0.2878 -0.2441
    7loPI   C4A  106   9.865  13.080   8.857  0.1857  0.1063 -0.1907
    7loPI   C5A  107   9.676  13.092   8.348  0.1473  0.0919 -0.0309
    7loPI   C6A  108   9.781  12.904   7.897  0.1277 -0.2364  0.1271
    7loPI   C1B  109   9.402  13.089   9.757  0.0192  0.0491 -0.1934
    7loPI   C2B  110   9.391  13.098   9.407  0.0755  0.1478 -0.1309
    7loPI   C3B  111   9.374  13.078   8.941 -0.1933  0.0117 -0.2360
    7loPI   C4B  112   9.219  13.097   8.507 -0.1601 -0.0526 -0.0349
    8loPI    C1  113   0.646   8.454  10.865  0.0707 -0.2070 -0.3232
    8loPI    C2  114   0.623   8.345  11.249 -0.3705  0.1432 -0.2421
    8loPI    C3  115   0.858   8.650  11.142 -0.0031 -0.1544 -0.3038
    8loPI   PO4  116   0.351   8.484  10.822  0.0825 -0.1578 -0.1780
    8loPI   GL1  117   0.239   8.393  10.439  0.2602 -0.2987 -0.3981
    8loPI   GL2  118   0.554   8.410  10.325  0.0010  0.1996  0.1013
    8loPI   C1A  119   0.046   8.408   9.961 -0.2309  0.0876  0.1349
    8loPI   C2A  120   0.013   8.481   9.541  0.1436  0.0145  0.1156
    8loPI   C3A  121  -0.062   8.452   9.146  0.0519 -0.0722  0.3309
    8loPI   C4A  122  -0.010   8.516   8.721  0.2297 -0.1108 -0.1449
    8loPI   C5A  123   0.048   8.432   8.311 -0.1710  0.3133  0.0339
    8loPI   C6A  124  -0.091   7.936   8.156  0.0788  0.0646  0.2053
    8loPI   C1B  125   0.562   8.494   9.878 -0.0915 -0.2333 -0.1656
    8loPI   C2B  126   0.502   8.438   9.406  0.0131  0.1275  0.1299
    8loPI   C3B  127   0.459   8.520   8.974 -0.1449  0.2350  0.1710
    8loPI   C4B  128   0.495   8.515   8.521  0.0993 -0.0416  0.0770
    9loPI    C1  129  16.128   8.549  10.617 -0.0075 -0.1106  0.0198
    9loPI    C2  130  16.000   8.528  10.995 -0.0867  0.0412  0.0026
    9loPI    C3  131  15.737   8.578  10.698 -0.0123  0.0636 -0.0598
    9loPI   PO4  132  16.260   8.723  10.617  0.1242 -0.1963 -0.0356
    9loPI   GL1  133  16.404   8.827  10.222 -0.1385  0.0895  0.1450
    9loPI   GL2  134  16.087   8.858  10.199  0.1347 -0.2095 -0.1168
    9loPI   C1A  135  16.378   9.126   9.891 -0.0601 -0.0849  0.2087
    9loPI   C2A  136  16.522   9.281   9.580  0.1927  0.0584 -0.1525
    9loPI   C3A  137  16.472   9.278   9.152 -0.0947 -0.0009  0.1914
    9loPI   C4A  138  16.517   9.315   8.646 -0.1562 -0.0857  0.0113
    9loPI   C5A  139  16.370   9.255   8.250 -0.0629  0.2509  0.2405
    9loPI   C6A  140  16.138   9.400   7.807 -0.1041  0.0538  0.1756
    9loPI   C1B  141  16.250   8.706   9.780  0.0844 -0.1736  0.3596
    9loPI   C2B  142  16.292   8.859   9.297  0.2296 -0.1058 -0.0684
    9loPI   C3B  143  16.288   8.835   8.837 -0.1583 -0.1697 -0.2614
    9loPI   C4B  144  16.212   8.862   8.401 -0.1580 -0.0574 -0.0182
   10loPI    C1  145   2.817  11.890  11.103  0.1196  0.0058 -0.0976
   10loPI    C2  146   2.618  12.207  10.963  0.3741  0.2470  0.0769
   10loPI    C3  147   2.612  12.124  11.354 -0.0715 -0.2382 -0.0211
   10loPI   PO4  148   2.991  11.876  11.027  0.0078 -0.0407 -0.2615
   10loPI   GL1  149   3.299  11.866  10.668  0.0124  0.2680 -0.0972
   10loPI   GL2  150   2.962  12.088  10.579  0.1219  0.1835 -0.1286
   10loPI   C1A  151   3.483  12.090  10.313  0.2405  0.4301  0.1990
   10loPI   C2A  152   3.417  12.202   9.898 -0.0879  0.2465 -0.0239
   10loPI   C3A  153   3.398  12.216   9.515 -0.0981 -0.0091  0.0954
   10loPI   C4A  154   3.317  12.201   9.083 -0.0557  0.0670 -0.0178
   10loPI   C5A  155   3.352  12.207   8.703 -0.0497 -0.0530  0.2583
   10loPI   C6A  156   3.372  11.875   8.343  0.0272 -0.0733 -0.0171
   10loPI   C1B  157   2.972  12.132  10.150 -0.0139 -0.1805 -0.0160
   10loPI   C2B  158   2.839  12.225   9.740  0.0969 -0.0647 -0.0029
   10loPI   C3B  159   2.835  12.239   9.297 -0.2356  0.2458 -0.2057
   10loPI   C4B  160   2.909  12.188   8.827  0.0469 -0.0818  0.0508
   11loPI    C1  161   5.008  16.629  10.955 -0.2871  0.1322  0.0998
   11loPI    C2  162   5.254  16.719  11.257 -0.0192  0.1793 -0.1284
   11loPI    C3  163   4.958  16.455  11.312  0.1069  0.0893  0.1380
   11loPI   PO4  164   5.163  16.623  10.737 -0.1038 -0.3131 -0.2176
   11loPI   GL1  165   5.179  16.416  10.368 -0.0802 -0.0078  0.1171
   11loPI   GL2  166   5.182  16.672  10.216  0.2283 -0.1785  0.1539
   11loPI   C1A  167   5.139  16.243   9.947  0.2516  0.0487  0.0562
   11loPI   C2A  168   5.007  16.281   9.537  0.0589 -0.0862 -0.0451
   11loPI   C3A  169   4.930  16.355   9.157  0.0007 -0.2675  0.0438
   11loPI   C4A  170   4.985  16.441   8.735 -0.2183 -0.0644 -0.0490
   11loPI   C5A  171   5.089  16.447   8.340  0.3962  0.3186 -0.0328
   11loPI   C6A  172   5.060  16.055   8.049 -0.0891  0.3555 -0.0059
   11loPI   C1B  173   5.190  16.797   9.869 -0.1073  0.2489 -0.1502
   11loPI   C2B  174   5.325  16.727   9.427  0.0629  0.0072 -0.1960
   11loPI   C3B  175   5.238  16.793   9.018  0.3474  0.0943 -0.2772
   11loPI   C4B  176   5.255  16.859   8.581 -0.0914 -0.0088  0.0452
   12loPI    C1  177  10.099   7.357  10.976  0.1371 -0.1178 -0.1318
   12loPI    C2  178   9.952   7.337  11.347 -0.0772  0.0254 -0.2069
   12loPI    C3  179  10.281   7.131  11.251  0.0564  0.0917  0.0974
   12loPI   PO4  180   9.811   7.370  10.859  0.0233  0.3616  0.2592
   12loPI   GL1  181   9.799   7.124  10.536 -0.1345 -0.3145 -0.1565
   12loPI   GL2  182   9.761   6.746  10.480  0.0306  0.1256 -0.0448
   12loPI   C1A  183   9.919   7.159  10.158 -0.3829 -0.4680  0.0764
   12loPI   C2A  184   9.946   7.193   9.674 -0.2672  0.2641 -0.0325
   12loPI   C3A  185   9.932   7.170   9.212 -0.1321  0.5071 -0.0704
   12loPI   C4A  186   9.869   7.169   8.885 -0.2115  0.2359 -0.2083
   12loPI   C5A  187   9.834   7.134   8.380 -0.1727  0.1623  0.0275
   12loPI   C6A  188   9.859   7.431   8.069 -0.1309  0.0104 -0.3055
   12loPI   C1B  189   9.598   6.825  10.063 -0.5479  0.1261 -0.1047
   12loPI   C2B  190   9.677   6.742   9.654  0.3023 -0.1139  0.1238
   12loPI   C3B  191   9.650   6.659   9.118 -0.1135  0.0569  0.1897
   12loPI   C4B  192   9.684   6.731   8.711  0.2420  0.1046 -0.0855
   13loPI    C1  193  18.042   9.970  11.016 -0.1512  0.2416  0.0219
   13loPI    C2  194  18.405   9.967  11.185 -0.0738  0.0250 -0.1430
   13loPI    C3  195  18.089   9.828  11.387  0.0045 -0.1577 -0.1444
   13loPI   PO4  196  18.155   9.893  10.754 -0.2236 -0.0005 -0.2466
   13loPI   GL1  197  18.422   9.736  10.416  0.0280 -0.2728 -0.0551
   13loPI   GL2  198  18.662   9.793  10.313  0.2298 -0.0930  0.0923
   13loPI   C1A  199  18.266   9.747   9.990  0.0022  0.0283 -0.0597
   13loPI   C2A  200  18.238   9.785   9.565  0.0383 -0.0866 -0.2136
   13loPI   C3A  201  18.250   9.845   9.095 -0.0324  0.0784 -0.0239
   13loPI   C4A  202  18.242   9.905   8.661 -0.3135 -0.1993 -0.1390
   13loPI   C5A  203  18.161   9.842   8.243 -0.4761  0.1621 -0.1788
   13loPI   C6A  204  17.999   9.996   7.810  0.1211  0.0240 -0.0684
   13loPI   C1B  205  18.727   9.822   9.836  0.2224  0.5655 -0.1633
   13loPI   C2B  206  18.735   9.800   9.406 -0.2107  0.0279 -0.0409
   13loPI   C3B  207  18.832   9.913   8.980 -0.0597  0.3365  0.2306
   13loPI   C4B  208  18.801   9.959   8.483  0.1321 -0.0093  0.2474
   14loPI    C1  209   2.333  10.332  10.963 -0.0458  0.1500  0.1356
   14loPI    C2  210   2.584  10.531  11.203  0.0886 -0.1202  0.2235
   14loPI    C3  211   2.280  10.323  11.359  0.0239 -0.0885  0.1409
   14loPI   PO4  212   2.267  10.412  10.783  0.1314 -0.0996 -0.0759
   14loPI   GL1  213   1.937  10.415  10.554  0.0814 -0.2499 -0.2722
   14loPI   GL2  214   2.154  10.323  10.313 -0.0854 -0.1269 -0.0251
   14loPI   C1A  215   1.695  10.652  10.296  0.0580  0.0835 -0.2793
   14loPI   C2A  216   1.717  10.685   9.810 -0.2242  0.0622  0.0051
   14loPI   C3A  217   1.720  10.751   9.383  0.0964 -0.1156  0.1529
   14loPI   C4A  218   1.714  10.783   8.930  0.1891 -0.0833  0.0239
   14loPI   C5A  219   1.842  10.856   8.470  0.2744 -0.0974 -0.0265
   14loPI   C6A  220   1.961  11.248   8.196 -0.2074  0.0761  0.0901
   14loPI   C1B  221   1.985  10.307   9.889 -0.0460 -0.1132 -0.0369
   14loPI   C2B  222   1.976  10.240   9.464  0.1337  0.2769  0.1545
   14loPI   C3B  223   2.003  10.295   9.011 -0.2288  0.2493  0.1015
   14loPI   C4B  224   2.024  10.389   8.645 -0.0467  0.1818 -0.0153
   15loPI    C1  225  13.997  16.281  10.645  0.0359  0.0807 -0.0344
   15loPI    C2  226  13.883  16.559  10.909  0.0095 -0.0051  0.0451
   15loPI    C3  227  13.993  16.196  11.036 -0.0391 -0.0587 -0.0650
   15loPI   PO4  228  13.802  16.284  10.397  0.3060 -0.3059 -0.2764
   15loPI   GL1  229  13.853  16.064  10.048 -0.0657 -0.1561 -0.0969
   15loPI   GL2  230  13.571  16.316   9.963  0.1671 -0.0090 -0.0514
   15loPI   C1A  231  13.769  16.052   9.584 -0.0689  0.0546  0.0390
   15loPI   C2A  232  13.702  16.065   9.180  0.1524  0.0098  0.1352
   15loPI   C3A  233  13.718  16.056   8.751  0.0220 -0.2345  0.0478
   15loPI   C4A  234  13.847  15.957   8.421  0.1224  0.2719  0.0550
   15loPI   C5A  235  14.189  16.132   8.160  0.0200  0.0574  0.1272
   15loPI   C6A  236  14.452  15.952   7.918 -0.1076  0.2253 -0.2647
   15loPI   C1B  237  13.325  16.254   9.500  0.0582 -0.1528  0.1640
   15loPI   C2B  238  13.242  16.344   9.127  0.0063  0.1283  0.0990
   15loPI   C3B  239  13.287  16.277   8.754  0.3394 -0.1178  0.2531
   15loPI   C4B  240  13.298  15.998   8.460 -0.1150 -0.2122 -0.0304
   16loPI    C1  241  16.417  11.008  11.131  0.1516  0.1041  0.1680
   16loPI    C2  242  16.402  11.279  11.424 -0.1761  0.0406  0.2142
   16loPI    C3  243  16.097  11.027  11.370 -0.0570 -0.0410 -0.0945
   16loPI   PO4  244  16.451  11.116  10.938 -0.0873  0.1102  0.0343
   16loPI   GL1  245  16.277  11.268  10.535  0.1707 -0.3166 -0.2333
   16loPI   GL2  246  16.045  11.432  10.481 -0.0826  0.1034 -0.1369
   16loPI   C1A  247  16.435  11.015  10.200  0.1665 -0.1946 -0.2215
   16loPI   C2A  248  16.357  11.004   9.815 -0.0281 -0.0848 -0.0739
   16loPI   C3A  249  16.519  11.086   9.566  0.1545  0.3136  0.2628
   16loPI   C4A  250  16.433  11.099   9.068 -0.2264 -0.1167 -0.2277
   16loPI   C5A  251  16.450  11.140   8.569 -0.0443 -0.3073 -0.0867
   16loPI   C6A  252  16.379  11.396   8.139  0.4090  0.1981  0.1883
   16loPI   C1B  253  16.129  11.407  10.104 -0.2081  0.0917  0.2609
   16loPI   C2B  254  16.177  11.487   9.722 -0.1682  0.1850  0.1463
   16loPI   C3B  255  16.095  11.509   9.294 -0.1257  0.2848 -0.3728
   16loPI   C4B  256  16.062  11.603   8.873 -0.0117 -0.1413 -0.1106
   17loPI    C1  257  16.149   7.131  11.032 -0.4073  0.2340 -0.1802
   17loPI    C2  258  16.161   6.888  11.350  0.1129  0.4794 -0.0009
   17loPI    C3  259  15.881   6.836  11.069  0.0008 -0.1035  0.2039
   17loPI   PO4  260  16.297   7.117  10.898 -0.1864 -0.1077  0.1041
   17loPI   GL1  261  16.445   6.920  10.570  0.3175 -0.1636  0.0354
   17loPI   GL2  262  16.709   6.666  10.404 -0.2613 -0.3728  0.0558
   17loPI   C1A  263  16.381   6.973  10.156 -0.3666  0.0715 -0.0835
   17loPI   C2A  264  16.357   7.017   9.729  0.0040 -0.0902 -0.3630
   17loPI   C3A  265  16.363   7.127   9.346 -0.1871  0.0664  0.1052
   17loPI   C4A  266  16.338   7.136   8.915 -0.1119  0.3016  0.1915
   17loPI   C5A  267  16.325   7.116   8.501 -0.3463 -0.0157  0.0514
   17loPI   C6A  268  16.099   7.299   8.269  0.1403  0.1924 -0.3298
   17loPI   C1B  269  16.684   6.616   9.846 -0.1468 -0.4616  0.1403
   17loPI   C2B  270  16.663   6.656   9.532  0.4209 -0.0472  0.0650
   17loPI   C3B  271  16.601   6.750   9.099 -0.2155  0.1325 -0.0919
   17loPI   C4B  272  16.536   6.679   8.714  0.0885 -0.1199  0.0746
   18loPI    C1  273   6.612   6.803  10.840 -0.2580 -0.0600 -0.1650
   18loPI    C2  274   6.455   6.573  11.127  0.0307 -0.0579 -0.0020
   18loPI    C3  275   6.774   6.447  10.922 -0.0347  0.0397 -0.1655
   18loPI   PO4  276   6.418   6.860  10.695 -0.0593  0.2752 -0.0526
   18loPI   GL1  277   6.505   7.157  10.487 -0.0233  0.0759  0.2269
   18loPI   GL2  278   6.649   7.398  10.377  0.0441  0.0073  0.2795
   18loPI   C1A  279   6.372   6.847  10.080  0.1733 -0.3060  0.0618
   18loPI   C2A  280   6.284   7.032   9.633  0.0156  0.1111 -0.1085
   18loPI   C3A  281   6.245   7.042   9.204 -0.0943 -0.1434 -0.0252
   18loPI   C4A  282   6.314   7.116   8.827 -0.2032  0.2252 -0.0783
   18loPI   C5A  283   6.168   7.272   8.439 -0.2441 -0.2892 -0.0653
   18loPI   C6A  284   6.114   7.537   8.065 -0.2749  0.1116 -0.1167
   18loPI   C1B  285   6.531   7.430   9.939  0.1495  0.4529 -0.1873
   18loPI   C2B  286   6.501   7.481   9.510  0.1067  0.3995 -0.3910
   18loPI   C3B  287   6.539   7.556   9.054 -0.1464 -0.1506  0.0381
   18loPI   C4B  288   6.577   7.656   8.615  0.0973  0.2275  0.0101
   19loPI    C1  289   0.457  12.443  11.203 -0.1397 -0.0924  0.2861
   19loPI    C2  290   0.683  12.144  11.343  0.0800 -0.1405 -0.1552
   19loPI    C3  291   0.831  12.515  11.326 -0.0336 -0.0888 -0.0293
   19loPI   PO4  292   0.325  12.404  10.991 -0.1616 -0.2225 -0.0330
   19loPI   GL1  293   0.276  12.365  10.636  0.1489  0.0726  0.0005
   19loPI   GL2  294   0.180  12.115  10.479  0.2283  0.0117 -0.0160
   19loPI   C1A  295   0.476  12.509  10.259 -0.2469 -0.2164  0.0363
   19loPI   C2A  296   0.586  12.485   9.903  0.0160 -0.0448 -0.2563
   19loPI   C3A  297   0.540  12.451   9.467 -0.1952  0.1738 -0.0317
   19loPI   C4A  298   0.578  12.560   9.047 -0.1149  0.3210 -0.1160
   19loPI   C5A  299   0.496  12.595   8.695 -0.1184  0.0021  0.2760
   19loPI   C6A  300   0.305  12.739   8.346 -0.0371 -0.0579  0.0763
   19loPI   C1B  301   0.412  12.045  10.151  0.0380  0.0150  0.2940
   19loPI   C2B  302   0.336  12.069   9.746  0.3619  0.2596  0.1775
   19loPI   C3B  303   0.298  12.078   9.323 -0.0215 -0.0738 -0.0755
   19loPI   C4B  304   0.227  12.072   8.939 -0.2034  0.0958 -0.0815
   20loPI    C1  305   1.567  14.499  11.276 -0.2316 -0.0493  0.0746
   20loPI    C2  306   1.547  14.110  11.369 -0.2301 -0.0737 -0.0259
   20loPI    C3  307   1.730  14.366  11.616 -0.0004 -0.1794 -0.0845
   20loPI   PO4  308   1.597  14.479  10.971 -0.0112  0.0628 -0.0744
   20loPI   GL1  309   1.862  14.581  10.707  0.2854 -0.1384  0.0876
   20loPI   GL2  310   2.184  14.689  10.547 -0.0897 -0.0849 -0.2177
   20loPI   C1A  311   1.738  14.812  10.334 -0.0276 -0.2317  0.2173
   20loPI   C2A  312   1.767  14.915   9.873 -0.0974 -0.1462  0.1167
   20loPI   C3A  313   1.670  14.911   9.389  0.0707  0.3544  0.0016
   20loPI   C4A  314   1.707  14.918   8.975  0.2100 -0.0935  0.1101
   20loPI   C5A  315   1.709  14.863   8.567 -0.2768 -0.0901 -0.1402
   20loPI   C6A  316   1.995  15.004   8.216  0.2516  0.0899 -0.0984
   20loPI   C1B  317   2.274  14.902  10.199 -0.4686  0.0944 -0.2678
   20loPI   C2B  318   2.274  14.885   9.758  0.0804 -0.1838  0.0191
   20loPI   C3B  319   2.163  14.859   9.326  0.1691  0.1614  0.2459
   20loPI   C4B  320   2.153  14.841   8.881  0.1184  0.1622 -0.2037
   21loPI    C1  321   6.196   7.947  11.253  0.2962  0.0819  0.2067
   21loPI    C2  322   6.269   7.655  11.516 -0.0909  0.0085  0.2392
   21loPI    C3  323   5.907   7.826  11.502  0.0016  0.1863 -0.0761
   21loPI   PO4  324   6.252   7.865  11.021 -0.1330 -0.0851 -0.3305
   21loPI   GL1  325   6.189   7.846  10.635  0.5004 -0.0996 -0.1608
   21loPI   GL2  326   6.250   7.628  10.546  0.0086  0.2240  0.1100
   21loPI   C1A  327   6.025   8.250  10.325 -0.1936 -0.2231  0.1597
   21loPI   C2A  328   5.928   8.349   9.953  0.1105  0.0432  0.1452
   21loPI   C3A  329   5.979   8.319   9.550  0.1369 -0.2996 -0.1837
   21loPI   C4A  330   6.010   8.383   9.109  0.1697 -0.0084  0.0555
   21loPI   C5A  331   5.903   8.427   8.640 -0.1864 -0.0019  0.2870
   21loPI   C6A  332   5.667   8.287   8.222  0.1318  0.2033 -0.2749
   21loPI   C1B  333   6.341   7.865  10.166  0.2732  0.0909 -0.0223
   21loPI   C2B  334   6.250   7.876   9.707  0.1132 -0.1799 -0.1369
   21loPI   C3B  335   6.245   7.938   9.269 -0.1802  0.1051 -0.2870
   21loPI   C4B  336   6.203   8.038   8.773  0.0725  0.2078 -0.1558
   22loPI    C1  337  15.316   6.789  10.804  0.0366 -0.0431 -0.1093
   22loPI    C2  338  15.424   6.608  11.144 -0.2694 -0.0344 -0.0049
   22loPI    C3  339  15.348   7.001  11.141 -0.0995 -0.0014 -0.1220
   22loPI   PO4  340  15.463   6.742  10.674  0.0496 -0.2355  0.1451
   22loPI   GL1  341  15.591   6.941  10.297 -0.0404 -0.2004  0.0598
   22loPI   GL2  342  15.387   6.976  10.117  0.3333  0.1252 -0.2036
   22loPI   C1A  343  15.934   7.045   9.973 -0.0285 -0.1373  0.0184
   22loPI   C2A  344  15.881   7.065   9.541 -0.1278 -0.2678 -0.0611
   22loPI   C3A  345  15.863   7.057   9.142 -0.0531  0.1124 -0.0242
   22loPI   C4A  346  15.794   7.148   8.628  0.0396  0.5332 -0.2337
   22loPI   C5A  347  15.723   6.946   8.288  0.1556  0.0397  0.4629
   22loPI   C6A  348  15.315   6.671   8.287 -0.0155 -0.0672  0.0569
   22loPI   C1B  349  15.417   7.003   9.743 -0.1050  0.0741  0.1447
   22loPI   C2B  350  15.320   7.025   9.350  0.1216 -0.0137 -0.0899
   22loPI   C3B  351  15.273   7.059   8.833  0.1807  0.0279  0.1417
   22loPI   C4B  352  15.337   7.145   8.495 -0.2602 -0.0277 -0.1413
   23loPI    C1  353  14.458  17.680  10.268 -0.0236 -0.1859 -0.2450
   23loPI    C2  354  14.855  17.676  10.222  0.0251 -0.0123  0.1243
   23loPI    C3  355  14.693  17.570  10.572 -0.2575 -0.1080 -0.0322
   23loPI   PO4  356  14.315  17.626  10.088  0.0011 -0.2434 -0.1106
   23loPI   GL1  357  14.160  17.804   9.763 -0.0829 -0.1800  0.1991
   23loPI   GL2  358  14.098  18.070   9.723  0.3841  0.1255 -0.0098
   23loPI   C1A  359  14.182  17.750   9.335  0.0199 -0.0729 -0.1196
   23loPI   C2A  360  14.227  17.894   8.935  0.0220 -0.0595  0.4114
   23loPI   C3A  361  14.204  17.828   8.440 -0.1961 -0.0240 -0.1036
   23loPI   C4A  362  14.186  17.783   7.984 -0.2860  0.1570 -0.1203
   23loPI   C5A  363  14.199  17.521   7.669 -0.2600 -0.1273  0.2708
   23loPI   C6A  364  14.081  17.339   7.333 -0.0273 -0.2333  0.0833
   23loPI   C1B  365  14.038  18.241   9.258  0.2393  0.1655  0.0574
   23loPI   C2B  366  13.952  18.306   8.867 -0.0186  0.4299  0.0637
   23loPI   C3B  367  13.945  18.352   8.421 -0.3049 -0.3031  0.1916
   23loPI   C4B  368  13.917  18.244   7.977  0.3120 -0.0337 -0.1250
   24loPI    C1  369  10.201  14.928  10.885 -0.0976  0.0761 -0.2075
   24loPI    C2  370   9.999  15.174  11.127 -0.1955 -0.1216 -0.0859
   24loPI    C3  371  10.066  14.796  11.237 -0.0195 -0.1421 -0.2583
   24loPI   PO4  372  10.128  14.856  10.642  0.4869  0.1151 -0.3818
   24loPI   GL1  373  10.060  14.540  10.323 -0.0121  0.3367 -0.3671
   24loPI   GL2  374  10.219  14.370  10.439 -0.0157  0.0054 -0.0387
   24loPI   C1A  375  10.020  14.453   9.951 -0.0829 -0.1910  0.0775
   24loPI   C2A  376   9.949  14.406   9.505  0.1934  0.1763  0.1675
   24loPI   C3A  377  10.063  14.345   9.110 -0.0588  0.0491  0.1639
   24loPI   C4A  378  10.014  14.405   8.701  0.0050  0.5509 -0.0760
   24loPI   C5A  379   9.899  14.437   8.323 -0.0359 -0.0393  0.0861
   24loPI   C6A  380   9.924  14.534   7.899 -0.0624  0.2880  0.1294
   24loPI   C1B  381  10.348  14.071  10.056 -0.2050 -0.2186  0.4695
   24loPI   C2B  382  10.371  14.024   9.666  0.3211  0.0155  0.3415
   24loPI   C3B  383  10.320  13.953   9.267 -0.1879  0.0761 -0.1284
   24loPI   C4B  384  10.317  14.016   8.818 -0.0556  0.0529 -0.0027
   25loPI    C1  385  11.090  12.021  10.612  0.0432 -0.0180  0.0399
   25loPI    C2  386  10.693  12.067  10.629  0.0447  0.0759 -0.1532
   25loPI    C3  387  10.895  11.952  10.954 -0.1942 -0.4008 -0.1660
   25loPI   PO4  388  11.142  11.822  10.451 -0.3864 -0.0606  0.3126
   25loPI   GL1  389  11.079  11.780  10.080  0.0136  0.2431  0.0060
   25loPI   GL2  390  10.725  11.769  10.178  0.0264 -0.0606 -0.1446
   25loPI   C1A  391  11.187  11.780   9.559 -0.2911  0.1547 -0.0397
   25loPI   C2A  392  11.121  11.790   9.078 -0.1127  0.0965  0.5725
   25loPI   C3A  393  11.201  11.668   8.664 -0.1484  0.3406 -0.5389
   25loPI   C4A  394  11.180  11.706   8.297 -0.1374  0.1534 -0.0118
   25loPI   C5A  395  11.138  11.346   7.850 -0.0827  0.2706  0.0591
   25loPI   C6A  396  11.201  10.992   7.568  0.1191 -0.4145 -0.1901
   25loPI   C1B  397  10.708  11.830   9.696  0.2675 -0.1655  0.2258
   25loPI   C2B  398  10.556  11.737   9.275  0.2439 -0.1663  0.0812
   25loPI   C3B  399  10.723  11.676   8.851  0.1828 -0.0346  0.0753
   25loPI   C4B  400  10.716  11.692   8.399 -0.1227 -0.1578  0.3876
   26loPI    C1  401  17.502  17.388  10.922 -0.0679  0.0227 -0.1340
   26loPI    C2  402  17.607  17.075  11.149 -0.1849  0.0231 -0.0786
   26loPI    C3  403  17.509  17.424  11.320  0.0789  0.1325 -0.1458
   26loPI   PO4  404  17.414  17.335  10.715 -0.1050 -0.0174  0.2293
   26loPI   GL1  405  17.211  17.330  10.413 -0.1528 -0.0197  0.1049
   26loPI   GL2  406  17.095  17.704  10.415  0.1493 -0.0670 -0.2966
   26loPI   C1A  407  17.008  17.362   9.983 -0.0785  0.2318 -0.0346
   26loPI   C2A  408  17.059  17.429   9.624  0.0771 -0.1681 -0.0084
   26loPI   C3A  409  17.077  17.446   9.175  0.0870 -0.3565  0.0650
   26loPI   C4A  410  17.014  17.468   8.735  0.0347 -0.4010 -0.1471
   26loPI   C5A  411  17.114  17.502   8.312 -0.2884  0.1079 -0.2796
   26loPI   C6A  412  16.965  17.252   7.967  0.1696 -0.1099  0.2214
   26loPI   C1B  413  17.292  17.820  10.014  0.3090  0.3081 -0.1212
   26loPI   C2B  414  17.369  17.884   9.660  0.0440 -0.1028 -0.0982
   26loPI   C3B  415  17.350  17.897   9.204  0.2248  0.3228 -0.3060
   26loPI   C4B  416  17.299  17.884   8.737  0.4831  0.2025 -0.0032
   27loPI    C1  417   8.793   4.399  11.038 -0.1487  0.0634  0.0845
   27loPI    C2  418   8.488   4.146  10.980  0.0191 -0.1244  0.0069
   27loPI    C3  419   8.582   4.265  11.350 -0.1362 -0.0796  0.0327
   27loPI   PO4  420   8.785   4.591  10.884  0.2717 -0.0246 -0.2413
   27loPI   GL1  421   8.729   4.662  10.480 -0.1461 -0.1794 -0.2251
   27loPI   GL2  422   8.763   4.834  10.182 -0.0311  0.0315 -0.0099
   27loPI   C1A  423   8.983   4.411  10.198 -0.1890  0.1682 -0.0599
   27loPI   C2A  424   9.024   4.386   9.803  0.1946 -0.0037 -0.1919
   27loPI   C3A  425   9.006   4.503   9.347  0.1981  0.0174 -0.3287
   27loPI   C4A  426   9.036   4.435   8.908 -0.0536  0.0289 -0.1668
   27loPI   C5A  427   9.033   4.418   8.535 -0.0709  0.0539 -0.0670
   27loPI   C6A  428   9.144   4.245   8.165 -0.1720 -0.2053 -0.0807
   27loPI   C1B  429   8.795   4.855   9.737 -0.4981  0.2214  0.2336
   27loPI   C2B  430   8.739   4.939   9.321  0.3138 -0.3965  0.1248
   27loPI   C3B  431   8.662   4.806   8.951  0.4974 -0.2202  0.1825
   27loPI   C4B  432   8.777   4.831   8.398 -0.0291 -0.2649 -0.1650
   28loPI    C1  433   4.446  13.645  11.331  0.1722  0.0724  0.0280
   28loPI    C2  434   4.154  13.577  11.596  0.0828 -0.0020 -0.0882
   28loPI    C3  435   4.530  13.629  11.722  0.0822 -0.2822  0.0359
   28loPI   PO4  436   4.389  13.508  11.134  0.0890 -0.0189  0.0457
   28loPI   GL1  437   4.371  13.393  10.770 -0.1335  0.1287  0.1207
   28loPI   GL2  438   4.374  13.173  10.584  0.0260 -0.1834  0.1229
   28loPI   C1A  439   4.284  13.630  10.412 -0.2121  0.0356  0.2751
   28loPI   C2A  440   4.096  13.605   9.947  0.2013 -0.1121  0.0803
   28loPI   C3A  441   4.140  13.652   9.464 -0.0203  0.1096 -0.3029
   28loPI   C4A  442   4.021  13.627   9.059  0.0405 -0.2396  0.1602
   28loPI   C5A  443   3.913  13.734   8.535 -0.1813 -0.1435 -0.1839
   28loPI   C6A  444   3.662  13.948   8.245  0.1225  0.1275  0.3226
   28loPI   C1B  445   4.406  13.102  10.096 -0.0980  0.0206  0.1226
   28loPI   C2B  446   4.380  13.180   9.552 -0.2454  0.2776  0.0772
   28loPI   C3B  447   4.314  13.247   9.168 -0.2212 -0.0141  0.4047
   28loPI   C4B  448   4.213  13.236   8.768  0.1690 -0.0994  0.1174
   29loPI    C1  449   6.867   3.629  10.973 -0.0516  0.0354  0.2077
   29loPI    C2  450   7.196   3.501  11.160 -0.0325 -0.1197  0.0705
   29loPI    C3  451   6.901   3.671  11.369  0.2069  0.1802  0.1721
   29loPI   PO4  452   6.950   3.831  10.824 -0.0636 -0.2285 -0.3396
   29loPI   GL1  453   6.918   3.827  10.391 -0.1612 -0.0832 -0.1487
   29loPI   GL2  454   7.032   4.045  10.395  0.0566  0.0588  0.0253
   29loPI   C1A  455   6.788   3.792   9.976  0.0600 -0.0566  0.0225
   29loPI   C2A  456   6.724   3.890   9.616  0.2227  0.2365  0.0848
   29loPI   C3A  457   6.677   3.917   9.200 -0.4052 -0.0680  0.0853
   29loPI   C4A  458   6.695   3.816   8.825 -0.1659  0.2355 -0.0556
   29loPI   C5A  459   6.922   3.647   8.464  0.0594 -0.0590 -0.1172
   29loPI   C6A  460   7.159   3.330   8.359 -0.2189 -0.1177 -0.2010
   29loPI   C1B  461   7.280   3.879  10.017  0.0377 -0.1222  0.1227
   29loPI   C2B  462   7.385   3.840   9.504  0.2732 -0.0401 -0.1112
   29loPI   C3B  463   7.193   3.872   9.133 -0.1289  0.0318 -0.0719
   29loPI   C4B  464   7.242   3.928   8.713  0.1230 -0.1068  0.0613
   30loPI    C1  465  10.829  12.489  10.895  0.0167  0.0649  0.1344
   30loPI    C2  466  10.950  12.469  11.276 -0.2246  0.2293  0.2226
   30loPI    C3  467  10.663  12.727  11.171 -0.1495  0.1958 -0.0750
   30loPI   PO4  468  10.981  12.510  10.753 -0.0418 -0.3295  0.0279
   30loPI   GL1  469  11.150  12.459  10.314  0.3978  0.0243 -0.1075
   30loPI   GL2  470  10.915  12.276  10.196 -0.1987  0.1965  0.2392
   30loPI   C1A  471  11.178  12.691   9.965  0.1486  0.1733  0.0514
   30loPI   C2A  472  11.182  12.754   9.510 -0.0322 -0.0106 -0.0242
   30loPI   C3A  473  11.158  12.576   9.016  0.0648 -0.0561 -0.0189
   30loPI   C4A  474  11.076  12.638   8.644  0.0390 -0.2237 -0.0564
   30loPI   C5A  475  11.100  12.543   8.172  0.0996  0.2353  0.0938
   30loPI   C6A  476  10.972  12.583   7.859  0.0118 -0.2958 -0.4010
   30loPI   C1B  477  10.896  12.320   9.757  0.0133  0.4445  0.0300
   30loPI   C2B  478  10.840  12.155   9.323 -0.1291 -0.1221 -0.0810
   30loPI   C3B  479  10.857  12.224   8.832  0.2017  0.0770  0.1744
   30loPI   C4B  480  10.947  12.137   8.401 -0.1497 -0.0010  0.1085
   31loPI    C1  481  11.096   5.078  10.985 -0.1321  0.1145 -0.1402
   31loPI    C2  482  10.921   5.326  11.245  0.0953 -0.0817  0.2074
   31loPI    C3  483  10.922   4.931  11.314  0.2829 -0.1225 -0.0187
   31loPI   PO4  484  10.998   5.093  10.854 -0.0204 -0.1294 -0.0077
   31loPI   GL1  485  11.131   5.371  10.514 -0.1389  0.1077 -0.1254
   31loPI   GL2  486  11.316   5.029  10.501  0.1415  0.2582  0.3346
   31loPI   C1A  487  10.987   5.359  10.083 -0.0653 -0.0654  0.0299
   31loPI   C2A  488  10.963   5.446   9.652 -0.2356  0.1705  0.1852
   31loPI   C3A  489  11.115   5.292   9.145 -0.1681  0.1030 -0.3239
   31loPI   C4A  490  11.074   5.206   8.698 -0.3576  0.4333  0.1505
   31loPI   C5A  491  11.267   5.027   8.320  0.0023 -0.0572 -0.1309
   31loPI   C6A  492  11.217   4.885   7.817 -0.0548 -0.0062  0.1917
   31loPI   C1B  493  11.399   5.024  10.153  0.1080  0.1299 -0.0980
   31loPI   C2B  494  11.263   5.095   9.759 -0.3295 -0.3436  0.0503
   31loPI   C3B  495  11.449   5.008   9.381  0.3076 -0.2128 -0.0955
   31loPI   C4B  496  11.450   4.967   8.912  0.1498  0.0138 -0.0455
   32loPI    C1  497  11.241  15.655  10.602 -0.0127  0.1442  0.0454
   32loPI    C2  498  10.922  15.840  10.759  0.0124  0.0519  0.2077
   32loPI    C3  499  11.280  15.875  10.934  0.0526 -0.0057  0.1377
   32loPI   PO4  500  11.280  15.717  10.364 -0.1728  0.0878 -0.1181
   32loPI   GL1  501  11.097  15.612   9.987 -0.0172 -0.1451  0.2112
   32loPI   GL2  502  10.759  15.805   9.900  0.0577 -0.1886 -0.1201
   32loPI   C1A  503  11.053  15.328   9.667 -0.0527  0.0914 -0.0766
   32loPI   C2A  504  10.988  15.357   9.236  0.0668  0.2904 -0.1863
   32loPI   C3A  505  10.947  15.326   8.720 -0.2786  0.3176 -0.0931
   32loPI   C4A  506  10.912  15.328   8.285  0.0633 -0.0312 -0.2085
   32loPI   C5A  507  10.664  15.269   7.985 -0.0808 -0.0820 -0.1477
   32loPI   C6A  508  10.547  15.649   7.650  0.0903  0.1760 -0.0241
   32loPI   C1B  509  10.739  15.739   9.481 -0.2654  0.0653  0.0033
   32loPI   C2B  510  10.622  15.715   9.013  0.1698  0.0022  0.2554
   32loPI   C3B  511  10.686  15.742   8.604 -0.2518  0.0059 -0.2893
   32loPI   C4B  512  10.661  15.763   8.194  0.2604 -0.1727  0.1542
   33loPI    C1  513   1.707   2.030  10.662  0.0288  0.1393 -0.2114
   33loPI    C2  514   1.468   2.306  10.823 -0.1187 -0.1157  0.0149
   33loPI    C3  515   1.861   2.314  10.898 -0.1216  0.0325  0.0185
   33loPI   PO4  516   1.625   1.959  10.409  0.1406 -0.3191  0.0572
   33loPI   GL1  517   1.737   1.636  10.053  0.1551 -0.0793 -0.2646
   33loPI   GL2  518   1.957   1.944   9.927 -0.1537  0.0168  0.2360
   33loPI   C1A  519   1.676   1.692   9.602  0.0525 -0.0156  0.0551
   33loPI   C2A  520   1.686   1.683   9.040  0.3610  0.1606 -0.1138
   33loPI   C3A  521   1.765   1.665   8.667  0.1673  0.3952 -0.1402
   33loPI   C4A  522   1.630   1.501   8.288 -0.0247  0.4101  0.1132
   33loPI   C5A  523   1.626   1.422   7.888 -0.2533  0.1308  0.1279
   33loPI   C6A  524   1.681   1.202   7.501 -0.1677  0.0152 -0.0994
   33loPI   C1B  525   2.187   1.638   9.724  0.1094  0.1778 -0.0786
   33loPI   C2B  526   2.169   1.652   9.249  0.1419 -0.1258 -0.0176
   33loPI   C3B  527   2.208   1.679   8.774  0.2663 -0.1181  0.0950
   33loPI   C4B  528   2.210   1.639   8.295  0.0173  0.2927 -0.0924
   34loPI    C1  529   4.199  14.921  10.953  0.0947  0.0128  0.0027
   34loPI    C2  530   4.549  14.859  11.137  0.0562 -0.0476  0.0560
   34loPI    C3  531   4.218  14.918  11.353 -0.0013 -0.1853  0.0071
   34loPI   PO4  532   4.203  14.704  10.750  0.2481 -0.1127  0.0026
   34loPI   GL1  533   4.200  14.818  10.401 -0.0775  0.0174  0.0088
   34loPI   GL2  534   4.223  15.149  10.379  0.1650 -0.0723  0.0316
   34loPI   C1A  535   4.416  14.921   9.997 -0.0211 -0.1643  0.0443
   34loPI   C2A  536   4.343  14.958   9.610 -0.1521  0.1069 -0.0469
   34loPI   C3A  537   4.279  14.875   9.204 -0.0545  0.1486  0.1187
   34loPI   C4A  538   4.303  15.003   8.823 -0.3283  0.2903  0.0061
   34loPI   C5A  539   4.150  14.915   8.405  0.0246 -0.1208 -0.2301
   34loPI   C6A  540   4.178  14.751   8.001 -0.0034 -0.0197 -0.1772
   34loPI   C1B  541   4.084  15.373  10.023  0.0676 -0.3752  0.2816
   34loPI   C2B  542   4.044  15.359   9.610  0.1978 -0.1204 -0.1285
   34loPI   C3B  543   3.984  15.416   9.163 -0.0195 -0.1304  0.1721
   34loPI   C4B  544   3.983  15.411   8.734  0.3966  0.0575  0.0789
   35loPI    C1  545  18.008   8.211  10.834 -0.1459 -0.0119  0.1911
   35loPI    C2  546  17.969   8.009  11.177  0.1356 -0.1625  0.1377
   35loPI    C3  547  18.316   8.001  10.979  0.0104  0.0160 -0.0940
   35loPI   PO4  548  17.818   8.191  10.646  0.1842 -0.0831 -0.2309
   35loPI   GL1  549  17.738   8.429  10.232 -0.1091 -0.1621  0.0177
   35loPI   GL2  550  17.750   8.813  10.213  0.1636  0.1266 -0.0025
   35loPI   C1A  551  17.637   8.466   9.770  0.0048  0.2688  0.2230
   35loPI   C2A  552  17.588   8.457   9.358 -0.0109 -0.0143 -0.0224
   35loPI   C3A  553  17.539   8.471   8.980 -0.0675  0.0378 -0.1466
   35loPI   C4A  554  17.485   8.473   8.455  0.3359 -0.0067 -0.0535
   35loPI   C5A  555  17.560   8.752   8.122  0.0484  0.1210 -0.0442
   35loPI   C6A  556  17.976   8.877   7.960 -0.3358  0.1619 -0.0323
   35loPI   C1B  557  17.935   8.831   9.850  0.1252 -0.0865  0.0184
   35loPI   C2B  558  17.833   8.864   9.429  0.3097  0.0735 -0.0348
   35loPI   C3B  559  17.824   8.924   8.921 -0.2181 -0.0528 -0.0672
   35loPI   C4B  560  17.827   8.902   8.458  0.2813  0.0136 -0.3529
   36loPI    C1  561   4.768   4.203  10.824 -0.0975  0.1051  0.1042
   36loPI    C2  562   4.577   3.875  10.698  0.0350  0.0022  0.1688
   36loPI    C3  563   4.835   3.852  11.003  0.1938  0.1285  0.0456
   36loPI   PO4  564   4.733   4.393  10.569 -0.3127  0.1925  0.1268
   36loPI   GL1  565   4.913   4.393  10.199 -0.0141 -0.0727 -0.2230
   36loPI   GL2  566   4.840   4.267   9.868  0.0195 -0.0209 -0.2040
   36loPI   C1A  567   5.097   4.701   9.948  0.1926 -0.1119  0.2425
   36loPI   C2A  568   5.145   4.675   9.560 -0.0149 -0.0982  0.3367
   36loPI   C3A  569   5.200   4.701   9.168 -0.0469  0.4355  0.4745
   36loPI   C4A  570   5.162   4.700   8.779 -0.1352  0.1446 -0.1998
   36loPI   C5A  571   5.246   4.752   8.394  0.1172 -0.2662  0.0750
   36loPI   C6A  572   5.633   4.850   8.246 -0.1311  0.2461  0.0775
   36loPI   C1B  573   4.833   4.212   9.405 -0.0105 -0.1482 -0.0016
   36loPI   C2B  574   4.990   4.245   9.028  0.3264  0.3739  0.1805
   36loPI   C3B  575   4.968   4.280   8.639 -0.1502  0.1058  0.0304
   36loPI   C4B  576   4.927   4.222   8.165  0.1031  0.1672 -0.0818
   37loPI    C1  577   1.169   1.850  10.621 -0.0227  0.1344 -0.0684
   37loPI    C2  578   0.965   1.839  10.964 -0.1421  0.0930 -0.1403
   37loPI    C3  579   1.364   1.817  10.969 -0.1493 -0.0247 -0.0113
   37loPI   PO4  580   0.973   1.694  10.479 -0.1924  0.2690 -0.0577
   37loPI   GL1  581   0.661   1.509  10.257 -0.0778 -0.2510  0.1066
   37loPI   GL2  582   0.425   1.295  10.368  0.0164  0.2196 -0.1464
   37loPI   C1A  583   0.720   1.690   9.863  0.2906 -0.1244  0.0187
   37loPI   C2A  584   0.714   1.644   9.459 -0.1130 -0.0888  0.2123
   37loPI   C3A  585   0.730   1.721   9.028  0.1839  0.0713  0.2324
   37loPI   C4A  586   0.798   1.902   8.723 -0.1941 -0.0591 -0.0864
   37loPI   C5A  587   0.584   1.861   8.366  0.0448 -0.1089 -0.2879
   37loPI   C6A  588   0.379   2.065   8.077 -0.1513  0.1575  0.0665
   37loPI   C1B  589   0.512   1.172   9.907 -0.1522 -0.2225  0.1087
   37loPI   C2B  590   0.536   1.139   9.432 -0.1710  0.2971 -0.1639
   37loPI   C3B  591   0.509   1.240   9.045  0.3097 -0.3122  0.3233
   37loPI   C4B  592   0.514   1.319   8.703  0.0530 -0.1459 -0.1824
   38loPI    C1  593  12.650   1.806  10.600 -0.1015  0.0109 -0.0515
   38loPI    C2  594  12.342   1.776  10.855  0.0361  0.0957  0.1270
   38loPI    C3  595  12.709   1.666  10.970  0.0327 -0.2450 -0.1672
   38loPI   PO4  596  12.610   2.099  10.371 -0.1973 -0.0309 -0.1165
   38loPI   GL1  597  12.860   2.306  10.112 -0.0284 -0.1012 -0.1960
   38loPI   GL2  598  12.678   2.494   9.808 -0.0120  0.1618 -0.2271
   38loPI   C1A  599  12.883   2.008   9.755 -0.0846 -0.2457 -0.3296
   38loPI   C2A  600  12.812   1.966   9.345  0.2193 -0.1705 -0.0128
   38loPI   C3A  601  12.738   1.951   8.927  0.1157  0.1356 -0.0904
   38loPI   C4A  602  12.742   1.819   8.539  0.3323  0.0357 -0.0133
   38loPI   C5A  603  12.768   1.927   8.154  0.3469 -0.1093  0.2598
   38loPI   C6A  604  12.595   2.087   7.700  0.0273  0.2618 -0.1084
   38loPI   C1B  605  12.499   2.417   9.431  0.1757  0.0873 -0.0688
   38loPI   C2B  606  12.381   2.332   9.005 -0.0288 -0.0725  0.0218
   38loPI   C3B  607  12.546   2.303   8.607 -0.2537  0.2442 -0.1612
   38loPI   C4B  608  12.410   2.376   8.134  0.0157  0.0703  0.2452
   39loPI    C1  609   0.127  14.165  11.003  0.0649 -0.1623 -0.0716
   39loPI    C2  610  -0.254  14.185  11.123  0.1059  0.0301  0.0309
   39loPI    C3  611   0.015  13.988  11.344  0.0661 -0.1069 -0.0422
   39loPI   PO4  612   0.191  14.145  10.747  0.1489  0.3932 -0.1712
   39loPI   GL1  613   0.404  14.260  10.450  0.0627  0.0354 -0.0546
   39loPI   GL2  614   0.544  13.991  10.384 -0.1990  0.3898 -0.0545
   39loPI   C1A  615   0.463  14.374  10.007 -0.0130  0.4639  0.0774
   39loPI   C2A  616   0.510  14.293   9.597 -0.0848  0.2055  0.3083
   39loPI   C3A  617   0.392  14.307   9.143 -0.0181  0.0340 -0.5999
   39loPI   C4A  618   0.451  14.365   8.727  0.2702  0.2395 -0.0797
   39loPI   C5A  619   0.304  14.355   8.230 -0.4674 -0.2142  0.1830
   39loPI   C6A  620   0.065  14.160   7.799 -0.4358  0.3439 -0.1913
   39loPI   C1B  621   0.804  13.907  10.046 -0.2056 -0.1837 -0.4454
   39loPI   C2B  622   0.852  13.887   9.645  0.2009  0.3089  0.1972
   39loPI   C3B  623   0.740  13.931   9.230  0.0962  0.1124 -0.2677
   39loPI   C4B  624   0.651  13.933   8.853 -0.0034  0.2089  0.0522
   40loPI    C1  625   4.776   9.000  11.324  0.2940 -0.1507  0.0139
   40loPI    C2  626   4.859   9.125  11.695  0.1445 -0.0202  0.0040
   40loPI    C3  627   4.867   8.735  11.610  0.2729 -0.0437  0.1206
   40loPI   PO4  628   4.568   9.102  11.231 -0.2500  0.0698 -0.0864
   40loPI   GL1  629   4.582   9.298  10.853 -0.1729 -0.0504  0.0116
   40loPI   GL2  630   4.337   9.549  10.709 -0.0570  0.0006 -0.1432
   40loPI   C1A  631   4.469   9.146  10.441 -0.0422  0.2283 -0.0254
   40loPI   C2A  632   4.401   9.097  10.045 -0.3787  0.0979 -0.0256
   40loPI   C3A  633   4.313   9.123   9.559 -0.0923  0.3322 -0.0601
   40loPI   C4A  634   4.369   9.242   9.129  0.1045 -0.2601 -0.0663
   40loPI   C5A  635   4.354   9.194   8.685 -0.3588  0.1512  0.3773
   40loPI   C6A  636   4.148   9.206   8.244  0.2442 -0.2766  0.1053
   40loPI   C1B  637   4.243   9.574  10.206 -0.0295  0.1819 -0.4546
   40loPI   C2B  638   4.070   9.610   9.810  0.0550  0.3868 -0.0860
   40loPI   C3B  639   4.079   9.626   9.361  0.1923  0.0781  0.1275
   40loPI   C4B  640   4.131   9.700   8.943 -0.0187 -0.3778  0.1586
   41loPI    C1  641   9.581  15.997  10.918  0.1576 -0.0480 -0.1599
   41loPI    C2  642   9.932  16.047  11.105  0.0469  0.1320  0.0035
   41loPI    C3  643   9.589  16.119  11.299 -0.0722  0.2631 -0.2510
   41loPI   PO4  644   9.627  15.732  10.848  0.1273  0.0204  0.2648
   41loPI   GL1  645   9.639  15.590  10.347 -0.2011  0.2835 -0.0470
   41loPI   GL2  646   9.723  15.791  10.168 -0.1329  0.0096 -0.0519
   41loPI   C1A  647   9.504  15.290  10.029  0.1954  0.1522 -0.1151
   41loPI   C2A  648   9.462  15.274   9.655  0.2469 -0.1672 -0.0725
   41loPI   C3A  649   9.473  15.244   9.236 -0.3391 -0.1128 -0.0491
   41loPI   C4A  650   9.371  15.279   8.814 -0.1976  0.0126 -0.1337
   41loPI   C5A  651   9.477  15.226   8.436 -0.1609  0.0786 -0.2689
   41loPI   C6A  652   9.240  15.206   8.149  0.2066  0.0133  0.0745
   41loPI   C1B  653   9.723  15.745   9.783  0.2992 -0.1363  0.0405
   41loPI   C2B  654   9.736  15.702   9.393 -0.1852  0.2251 -0.0343
   41loPI   C3B  655   9.595  15.689   8.990  0.0218 -0.1831 -0.0729
   41loPI   C4B  656   9.624  15.776   8.596  0.1078 -0.1160 -0.0213
   42loPI    C1  657  14.942   0.461  10.539  0.0250 -0.0563  0.0808
   42loPI    C2  658  15.084   0.484  10.912  0.0245  0.1590  0.0695
   42loPI    C3  659  14.727   0.642  10.824 -0.0115  0.0372 -0.0053
   42loPI   PO4  660  14.990   0.507  10.315  0.1233  0.1120 -0.3610
   42loPI   GL1  661  15.264   0.430   9.968 -0.1446  0.1173  0.1232
   42loPI   GL2  662  15.521   0.251   9.900  0.1884 -0.0089  0.0278
   42loPI   C1A  663  15.284   0.631   9.573  0.2157 -0.0318  0.1890
   42loPI   C2A  664  15.273   0.704   9.138  0.1956  0.0211 -0.0866
   42loPI   C3A  665  15.198   0.737   8.659  0.2145  0.0686 -0.1942
   42loPI   C4A  666  15.203   0.758   8.215  0.0677 -0.0376 -0.1499
   42loPI   C5A  667  15.165   0.531   7.869 -0.0819  0.4483  0.0426
   42loPI   C6A  668  15.298   0.425   7.398 -0.0556  0.0430  0.0674
   42loPI   C1B  669  15.540   0.197   9.482  0.0991 -0.2710  0.2122
   42loPI   C2B  670  15.554   0.299   8.992 -0.1423  0.0234  0.2540
   42loPI   C3B  671  15.484   0.229   8.591  0.0620 -0.2839  0.1067
   42loPI   C4B  672  15.392   0.226   8.224 -0.0615 -0.1000  0.2817
   43loPI    C1  673  15.736   0.076  10.567 -0.0963  0.1239  0.1381
   43loPI    C2  674  15.741  -0.209  10.848  0.1941  0.0653  0.0777
   43loPI    C3  675  15.960   0.122  10.895  0.1300  0.1213 -0.0137
   43loPI   PO4  676  15.729  -0.014  10.355  0.0254 -0.2727  0.0680
   43loPI   GL1  677  15.991   0.099  10.008 -0.2193 -0.4745  0.0117
   43loPI   GL2  678  16.231   0.206  10.235  0.3573 -0.0429 -0.3209
   43loPI   C1A  679  15.978   0.265   9.590 -0.0013  0.1594  0.1350
   43loPI   C2A  680  16.072   0.194   9.135 -0.2760  0.0104 -0.0677
   43loPI   C3A  681  15.984   0.243   8.639  0.1543  0.0560  0.0195
   43loPI   C4A  682  16.005   0.306   8.248  0.0053 -0.1154 -0.3133
   43loPI   C5A  683  16.181   0.661   7.921  0.0481  0.0255 -0.1598
   43loPI   C6A  684  16.256   1.044   8.015  0.1347 -0.1360 -0.1971
   43loPI   C1B  685  16.451   0.232   9.917 -0.0725 -0.0870  0.2180
   43loPI   C2B  686  16.509   0.217   9.519  0.1730  0.0321 -0.2005
   43loPI   C3B  687  16.576   0.226   9.054 -0.0183 -0.0555 -0.0042
   43loPI   C4B  688  16.480   0.270   8.657  0.0004 -0.1174  0.0076
   44loPI    C1  689  11.492  17.697  10.358  0.0890 -0.2059 -0.0703
   44loPI    C2  690  11.582  17.615  10.739  0.0575 -0.0295 -0.0239
   44loPI    C3  691  11.819  17.855  10.525 -0.0228  0.0181 -0.0599
   44loPI   PO4  692  11.327  17.499  10.278  0.1675 -0.0072 -0.1899
   44loPI   GL1  693  11.059  17.488  10.003 -0.0705 -0.0431  0.3435
   44loPI   GL2  694  10.802  17.665   9.882 -0.1298  0.0203  0.1482
   44loPI   C1A  695  11.002  17.257   9.553 -0.0054 -0.0644 -0.0842
   44loPI   C2A  696  10.885  17.198   9.157  0.1808  0.2459 -0.0731
   44loPI   C3A  697  10.880  17.160   8.773 -0.3727 -0.1081  0.0736
   44loPI   C4A  698  10.904  17.184   8.242  0.0577 -0.0308 -0.2097
   44loPI   C5A  699  10.731  17.183   7.899 -0.0288  0.2195 -0.0224
   44loPI   C6A  700  10.229  17.254   7.788 -0.5140 -0.1496 -0.0472
   44loPI   C1B  701  10.653  17.630   9.442  0.0550  0.2892  0.2955
   44loPI   C2B  702  10.600  17.590   9.050  0.2721  0.0749 -0.0932
   44loPI   C3B  703  10.619  17.526   8.633  0.1270 -0.0704  0.2287
   44loPI   C4B  704  10.516  17.600   8.121  0.4717  0.0380  0.2436
   45loPI    C1  705   8.505  10.638  11.277 -0.2886 -0.2107 -0.0777
   45loPI    C2  706   8.735  10.775  10.980 -0.1257 -0.0431  0.1221
   45loPI    C3  707   8.387  10.955  11.063 -0.1066 -0.0052  0.1199
   45loPI   PO4  708   8.514  10.367  11.165 -0.1772 -0.1226 -0.0528
   45loPI   GL1  709   8.547  10.403  10.746 -0.1151 -0.1271 -0.4979
   45loPI   GL2  710   8.206  10.522  10.825  0.1773 -0.1068 -0.2592
   45loPI   C1A  711   8.551  10.346  10.268  0.1611  0.1734 -0.1160
   45loPI   C2A  712   8.497  10.276   9.723  0.0428  0.2476  0.1759
   45loPI   C3A  713   8.427  10.278   9.263  0.3794 -0.2019  0.2705
   45loPI   C4A  714   8.459  10.319   8.762 -0.1021 -0.0288 -0.2107
   45loPI   C5A  715   8.561  10.548   8.378 -0.2697 -0.3597 -0.1388
   45loPI   C6A  716   8.678  10.296   7.998 -0.0431 -0.1028 -0.0181
   45loPI   C1B  717   8.225  10.758  10.586 -0.2014 -0.0558  0.1320
   45loPI   C2B  718   8.237  10.797  10.128  0.2638  0.1464  0.1788
   45loPI   C3B  719   8.238  10.696   9.637 -0.1928 -0.1990  0.3421
   45loPI   C4B  720   8.212  10.749   9.204 -0.1990 -0.0661 -0.0383
   46loPI    C1  721  14.753  11.667  11.149 -0.3005 -0.0266 -0.1665
   46loPI    C2  722  14.941  12.016  11.097 -0.1372 -0.1162 -0.1839
   46loPI    C3  723  14.783  11.925  11.453  0.0611 -0.1403 -0.1004
   46loPI   PO4  724  14.748  11.513  10.934  0.1197  0.1698  0.0059
   46loPI   GL1  725  14.847  11.377  10.595 -0.1639 -0.0315 -0.0122
   46loPI   GL2  726  15.103  11.612  10.607 -0.1013 -0.0240  0.1532
   46loPI   C1A  727  14.574  11.445  10.257  0.0666 -0.0878 -0.0707
   46loPI   C2A  728  14.573  11.502   9.839  0.3074  0.0879 -0.0421
   46loPI   C3A  729  14.564  11.532   9.444  0.0019  0.2384  0.2898
   46loPI   C4A  730  14.564  11.426   9.021  0.0801 -0.1708  0.2202
   46loPI   C5A  731  14.548  11.526   8.625  0.2670 -0.1523  0.2370
   46loPI   C6A  732  14.770  11.484   8.196  0.1074 -0.0889  0.2663
   46loPI   C1B  733  15.068  11.430  10.172  0.0409  0.1742  0.0749
   46loPI   C2B  734  15.030  11.483   9.700  0.1939  0.0615  0.3664
   46loPI   C3B  735  15.056  11.536   9.288  0.1158 -0.0874 -0.0893
   46loPI   C4B  736  15.045  11.450   8.870  0.2299  0.2105 -0.1454
   47loPI    C1  737   0.250   9.477  11.102 -0.0693  0.0722 -0.0463
   47loPI    C2  738   0.525   9.560  11.379 -0.0714  0.0512 -0.0379
   47loPI    C3  739   0.295   9.235  11.418  0.0516 -0.0510 -0.1562
   47loPI   PO4  740   0.304   9.470  10.869  0.2249 -0.3176  0.0463
   47loPI   GL1  741   0.587   9.349  10.599 -0.1591  0.0555 -0.0092
   47loPI   GL2  742   0.908   9.346  10.460  0.0342  0.0952  0.0262
   47loPI   C1A  743   0.450   9.326  10.188 -0.0959 -0.2214 -0.0031
   47loPI   C2A  744   0.440   9.385   9.689 -0.1249 -0.2083  0.1889
   47loPI   C3A  745   0.465   9.349   9.244 -0.0561  0.1134  0.0324
   47loPI   C4A  746   0.477   9.429   8.831 -0.1991 -0.3208 -0.0350
   47loPI   C5A  747   0.496   9.541   8.430 -0.1730  0.4336 -0.1887
   47loPI   C6A  748   0.817   9.385   8.084 -0.3065  0.0025 -0.0642
   47loPI   C1B  749   1.011   9.371  10.017 -0.1312 -0.0468 -0.1437
   47loPI   C2B  750   0.984   9.341   9.558  0.1068 -0.2513 -0.2996
   47loPI   C3B  751   1.025   9.469   9.110 -0.2475  0.0596 -0.0155
   47loPI   C4B  752   0.926   9.471   8.693 -0.3058 -0.0171 -0.0009
   48loPI    C1  753   6.184   3.004  10.965 -0.1033  0.1338 -0.0207
   48loPI    C2  754   5.793   3.088  10.983 -0.1497 -0.0318 -0.2276
   48loPI    C3  755   5.945   2.792  11.206 -0.1044  0.1639  0.0047
   48loPI   PO4  756   6.399   2.968  10.701 -0.1628  0.0427 -0.0092
   48loPI   GL1  757   6.528   2.958  10.341 -0.1051  0.0898 -0.1938
   48loPI   GL2  758   6.349   2.776  10.261  0.0313  0.3455  0.0856
   48loPI   C1A  759   6.536   3.292   9.955 -0.1622  0.1603  0.3132
   48loPI   C2A  760   6.520   3.438   9.596  0.1692 -0.2684 -0.2210
   48loPI   C3A  761   6.439   3.497   9.115 -0.1237  0.2892  0.0457
   48loPI   C4A  762   6.494   3.418   8.614  0.1517 -0.0632  0.1701
   48loPI   C5A  763   6.662   3.248   8.202 -0.0265  0.0089 -0.0607
   48loPI   C6A  764   7.067   3.065   7.963  0.1955  0.1898 -0.0282
   48loPI   C1B  765   6.297   2.835   9.773  0.0286  0.0141 -0.2285
   48loPI   C2B  766   6.340   3.057   9.345  0.0790  0.1988  0.0353
   48loPI   C3B  767   6.279   2.959   8.821 -0.3068 -0.2303 -0.1842
   48loPI   C4B  768   6.258   3.015   8.447 -0.0504 -0.1411 -0.2862
   49loPI    C1  769   1.032   9.936  11.149  0.0737  0.1793  0.0620
   49loPI    C2  770   0.966  10.295  11.312  0.2531 -0.0273  0.6119
   49loPI    C3  771   0.736   9.984  11.414 -0.0786 -0.0226 -0.0681
   49loPI   PO4  772   1.063  10.040  10.859 -0.0901  0.0293 -0.1008
   49loPI   GL1  773   1.130   9.970  10.365  0.3888 -0.0388  0.3029
   49loPI   GL2  774   0.899  10.214  10.087 -0.0424 -0.0758  0.0688
   49loPI   C1A  775   1.271   9.810   9.925 -0.1244  0.0673  0.1526
   49loPI   C2A  776   1.168   9.847   9.490 -0.0686  0.1153  0.1611
   49loPI   C3A  777   1.301   9.924   9.051  0.0015  0.1201  0.1087
   49loPI   C4A  778   1.251   9.968   8.637  0.1424  0.1848 -0.0444
   49loPI   C5A  779   1.108   9.819   8.268 -0.3474 -0.0889  0.1720
   49loPI   C6A  780   0.850   9.998   7.968  0.3670 -0.0165  0.0708
   49loPI   C1B  781   0.932  10.211   9.661  0.0830  0.0842  0.0510
   49loPI   C2B  782   0.984  10.326   9.194 -0.0288  0.1188 -0.1968
   49loPI   C3B  783   0.965  10.405   8.814 -0.0159  0.0790  0.1356
   49loPI   C4B  784   1.066  10.364   8.330 -0.1400  0.5308 -0.0081
   50loPI    C1  785   8.372  15.894  10.713  0.0403  0.2007 -0.1264
   50loPI    C2  786   8.118  15.939  11.018  0.1977 -0.2400  0.0776
   50loPI    C3  787   8.460  16.147  11.009 -0.0561  0.1826 -0.0820
   50loPI   PO4  788   8.261  15.810  10.543 -0.3522  0.0261  0.1230
   50loPI   GL1  789   8.036  15.812  10.266 -0.2043 -0.1263  0.1916
   50loPI   GL2  790   8.283  16.049  10.060 -0.1833  0.0318  0.0559
   50loPI   C1A  791   8.172  15.611   9.819  0.4287 -0.1181  0.1309
   50loPI   C2A  792   8.180  15.668   9.413  0.1455 -0.1767  0.1773
   50loPI   C3A  793   8.118  15.586   8.984 -0.1425 -0.3112 -0.1813
   50loPI   C4A  794   8.162  15.638   8.565  0.2434  0.1970  0.0608
   50loPI   C5A  795   8.215  15.569   8.163  0.2201 -0.0376 -0.3536
   50loPI   C6A  796   8.036  15.617   7.861 -0.0013  0.1618 -0.0277
   50loPI   C1B  797   8.431  16.090   9.667  0.2628  0.2732  0.2572
   50loPI   C2B  798   8.380  16.140   9.226 -0.2599  0.2325  0.1151
   50loPI   C3B  799   8.413  16.251   8.813 -0.2942 -0.2532  0.0571
   50loPI   C4B  800   8.507  16.074   8.401 -0.0921  0.2472 -0.1126
   51loPI    C1  801   8.880  11.798  11.313 -0.2749 -0.0243  0.1458
   51loPI    C2  802   8.580  11.804  11.578 -0.1348 -0.0548  0.3063
   51loPI    C3  803   8.881  11.544  11.622 -0.0570  0.0123  0.1769
   51loPI   PO4  804   8.682  11.767  11.085  0.1765 -0.2522  0.1590
   51loPI   GL1  805   8.679  11.625  10.595  0.1659 -0.0159 -0.0280
   51loPI   GL2  806   8.849  11.591  10.339  0.0652  0.1824  0.1424
   51loPI   C1A  807   8.549  11.948  10.316 -0.0657 -0.0722 -0.0741
   51loPI   C2A  808   8.426  12.138   9.953 -0.1649  0.0757  0.0488
   51loPI   C3A  809   8.294  12.178   9.540  0.2666 -0.0488  0.1877
   51loPI   C4A  810   8.334  12.069   9.186  0.1140  0.4779 -0.0816
   51loPI   C5A  811   8.373  12.054   8.722 -0.1210  0.0802 -0.0048
   51loPI   C6A  812   8.299  11.930   8.201  0.4036  0.1551 -0.1708
   51loPI   C1B  813   8.697  11.656   9.860 -0.1304  0.0319  0.1003
   51loPI   C2B  814   8.598  11.724   9.387  0.0725  0.3041  0.2598
   51loPI   C3B  815   8.557  11.683   8.993 -0.2833  0.0488 -0.2259
   51loPI   C4B  816   8.647  11.691   8.543  0.3708  0.5414 -0.0487
   52loPI    C1  817  18.067  16.095  11.223 -0.2035 -0.0419 -0.2503
   52loPI    C2  818  17.691  16.167  11.338 -0.0668  0.1419  0.0952
   52loPI    C3  819  17.829  15.791  11.328 -0.2868  0.0649 -0.1274
   52loPI   PO4  820  18.080  16.323  11.053 -0.1397  0.0164 -0.1079
   52loPI   GL1  821  18.026  16.272  10.546  0.0323  0.2561  0.2274
   52loPI   GL2  822  18.088  16.572  10.590  0.1470 -0.1088  0.0076
   52loPI   C1A  823  17.927  16.134  10.112 -0.0318 -0.0572 -0.0888
   52loPI   C2A  824  17.866  16.038   9.631  0.1660 -0.0817 -0.0310
   52loPI   C3A  825  17.973  16.184   9.218  0.3003 -0.1809 -0.4799
   52loPI   C4A  826  17.932  16.149   8.817  0.2586  0.1328 -0.3736
   52loPI   C5A  827  17.916  16.071   8.393  0.3679  0.3898  0.0954
   52loPI   C6A  828  17.743  16.144   8.117 -0.0374 -0.0515  0.1189
   52loPI   C1B  829  18.229  16.531  10.075 -0.0676 -0.0361  0.2720
   52loPI   C2B  830  18.085  16.552   9.641  0.0934 -0.1113  0.1880
   52loPI   C3B  831  18.119  16.642   9.077  0.1174 -0.4550 -0.0210
   52loPI   C4B  832  18.064  16.681   8.645  0.0861  0.4773 -0.0800
   53loPI    C1  833  15.024   3.005  10.844 -0.2347 -0.1406 -0.0083
   53loPI    C2  834  15.329   2.857  11.056 -0.1970 -0.2413 -0.1309
   53loPI    C3  835  15.132   3.180  11.187  0.0643 -0.0785 -0.1302
   53loPI   PO4  836  15.129   3.116  10.559  0.2445 -0.0798 -0.1043
   53loPI   GL1  837  15.381   3.405  10.327 -0.1113  0.0871 -0.1694
   53loPI   GL2  838  15.404   3.702  10.380 -0.2856  0.1355  0.0876
   53loPI   C1A  839  15.590   3.412   9.963 -0.2834 -0.1071  0.1822
   53loPI   C2A  840  15.608   3.466   9.594 -0.1091  0.1430 -0.3365
   53loPI   C3A  841  15.632   3.447   9.120  0.2241 -0.1723 -0.1407
   53loPI   C4A  842  15.603   3.525   8.625 -0.0411 -0.0755  0.0227
   53loPI   C5A  843  15.402   3.607   8.228  0.2402  0.3689 -0.1676
   53loPI   C6A  844  15.198   3.468   7.860 -0.1837  0.1130  0.0096
   53loPI   C1B  845  15.417   3.930   9.926  0.1758  0.1171  0.2714
   53loPI   C2B  846  15.340   3.859   9.488  0.0143  0.1112 -0.2650
   53loPI   C3B  847  15.246   3.841   9.077 -0.0473 -0.1379  0.1259
   53loPI   C4B  848  15.226   3.814   8.706 -0.1718  0.0897  0.1471
   54loPI    C1  849  12.199   2.934  10.872  0.0281 -0.2342  0.1555
   54loPI    C2  850  11.848   2.744  10.904 -0.0301 -0.0995  0.3381
   54loPI    C3  851  11.929   3.055  11.142  0.0892  0.0660  0.0855
   54loPI   PO4  852  12.250   2.857  10.578 -0.3315  0.0835  0.1756
   54loPI   GL1  853  12.340   3.043  10.162  0.2763 -0.4180 -0.0268
   54loPI   GL2  854  12.565   3.263   9.992 -0.2256 -0.1011  0.0321
   54loPI   C1A  855  12.296   2.913   9.724  0.0611  0.0670 -0.0497
   54loPI   C2A  856  12.172   2.831   9.309 -0.1021  0.0616  0.3244
   54loPI   C3A  857  12.257   2.798   8.852 -0.0879 -0.1361  0.2449
   54loPI   C4A  858  12.094   2.900   8.510 -0.0135 -0.0438  0.0605
   54loPI   C5A  859  12.103   2.856   8.006  0.0511 -0.1059  0.0343
   54loPI   C6A  860  12.416   3.061   7.708 -0.0658  0.0536  0.0205
   54loPI   C1B  861  12.507   3.305   9.535 -0.1299 -0.1975 -0.0139
   54loPI   C2B  862  12.434   3.276   9.194 -0.0439 -0.1966 -0.1736
   54loPI   C3B  863  12.502   3.308   8.672 -0.1295  0.1779 -0.2294
   54loPI   C4B  864  12.373   3.219   8.238 -0.1085 -0.0754  0.0791
   55loPI    C1  865   5.063  12.856  11.023 -0.0044 -0.2874 -0.1661
   55loPI    C2  866   4.800  12.681  11.267  0.1358 -0.3687 -0.0718
   55loPI    C3  867   5.192  12.637  11.332  0.1755  0.0979  0.0390
   55loPI   PO4  868   4.892  12.801  10.759  0.2965  0.0493 -0.1131
   55loPI   GL1  869   5.100  12.540  10.600 -0.0043  0.0220  0.1196
   55loPI   GL2  870   5.354  12.635  10.372 -0.1345 -0.1471  0.2069
   55loPI   C1A  871   5.070  12.226  10.251 -0.0500 -0.0296 -0.2661
   55loPI   C2A  872   5.112  12.216   9.935  0.1761 -0.0415 -0.0513
   55loPI   C3A  873   4.989  12.302   9.650  0.0869  0.2558 -0.1219
   55loPI   C4A  874   4.894  12.334   9.209  0.0753  0.0613  0.0850
   55loPI   C5A  875   4.826  12.433   8.771  0.1123  0.1053  0.2632
   55loPI   C6A  876   4.939  12.435   8.371 -0.1366 -0.0976 -0.0479
   55loPI   C1B  877   5.266  12.694  10.010  0.0599 -0.0600 -0.0634
   55loPI   C2B  878   5.261  12.777   9.557  0.0611  0.2044  0.0638
   55loPI   C3B  879   5.178  12.868   9.122 -0.2652 -0.1838  0.3819
   55loPI   C4B  880   5.236  12.817   8.616  0.3433  0.1131 -0.1147
   56loPI    C1  881   4.602   0.940  10.677 -0.0565  0.2071 -0.0001
   56loPI    C2  882   4.658   0.770  11.035  0.1510 -0.0316 -0.1424
   56loPI    C3  883   4.842   1.114  10.946  0.0947  0.0311 -0.0196
   56loPI   PO4  884   4.591   0.788  10.539 -0.3893  0.1462  0.1300
   56loPI   GL1  885   4.512   0.778  10.180  0.2160  0.1345 -0.0544
   56loPI   GL2  886   4.494   0.420  10.152 -0.0073  0.3658  0.0137
   56loPI   C1A  887   4.343   0.865   9.794 -0.1058 -0.0607 -0.0592
   56loPI   C2A  888   4.352   0.879   9.254  0.0796  0.0518 -0.2612
   56loPI   C3A  889   4.342   0.931   8.799 -0.1618 -0.1659  0.1256
   56loPI   C4A  890   4.384   0.922   8.362  0.1909 -0.1957  0.2198
   56loPI   C5A  891   4.552   0.909   7.993 -0.0941 -0.3347 -0.0576
   56loPI   C6A  892   4.706   0.594   7.714  0.3533  0.2021  0.1144
   56loPI   C1B  893   4.655   0.436   9.773  0.1563  0.1952 -0.2635
   56loPI   C2B  894   4.591   0.419   9.263  0.0493 -0.0810 -0.0271
   56loPI   C3B  895   4.625   0.464   8.884  0.0557  0.1133 -0.2226
   56loPI   C4B  896   4.617   0.539   8.523 -0.2826 -0.1496  0.1700
   57loPI    C1  897   7.718   7.890  10.808 -0.0067 -0.0163 -0.0051
   57loPI    C2  898   7.605   7.901  11.192 -0.0753  0.1102 -0.0281
   57loPI    C3  899   7.490   8.190  10.941 -0.3319 -0.1590 -0.2282
   57loPI   PO4  900   7.982   7.811  10.706 -0.1080  0.2204  0.1216
   57loPI   GL1  901   8.131   8.088  10.329  0.0618 -0.0820  0.1498
   57loPI   GL2  902   7.828   7.920  10.227 -0.2017 -0.1576 -0.0636
   57loPI   C1A  903   8.333   7.973   9.957 -0.0966 -0.0319  0.1929
   57loPI   C2A  904   8.326   7.997   9.522  0.0929 -0.0569 -0.0014
   57loPI   C3A  905   8.281   7.919   8.997  0.0962 -0.0010 -0.0008
   57loPI   C4A  906   8.380   8.091   8.610  0.1669 -0.2665  0.1616
   57loPI   C5A  907   8.099   8.127   8.257 -0.1774 -0.2025 -0.0221
   57loPI   C6A  908   7.609   8.031   8.252 -0.0207 -0.0264  0.0635
   57loPI   C1B  909   7.802   7.941   9.873 -0.0819  0.2862 -0.1440
   57loPI   C2B  910   7.816   7.985   9.464 -0.1316 -0.2053  0.0740
   57loPI   C3B  911   7.836   8.006   9.043  0.0989 -0.0438  0.0623
   57loPI   C4B  912   7.825   7.965   8.673  0.0052  0.1299 -0.2832
   58loPI    C1  913  15.042   8.902  10.810 -0.0339  0.1873  0.0235
   58loPI    C2  914  15.148   9.100  11.141 -0.0552  0.0556  0.1095
   58loPI    C3  915  14.899   8.788  11.165 -0.1440  0.1135 -0.0439
   58loPI   PO4  916  15.354   8.965  10.636 -0.2636  0.0372 -0.1453
   58loPI   GL1  917  15.455   8.761  10.363  0.1612  0.0965 -0.3841
   58loPI   GL2  918  15.228   8.774  10.120  0.1368 -0.1113  0.3039
   58loPI   C1A  919  15.690   8.819   9.926 -0.2097  0.1222  0.2791
   58loPI   C2A  920  15.757   8.747   9.492 -0.1167 -0.1231  0.0620
   58loPI   C3A  921  15.827   8.897   9.097 -0.1996  0.2881  0.0100
   58loPI   C4A  922  15.795   8.894   8.711 -0.1128  0.0888  0.0985
   58loPI   C5A  923  15.680   8.758   8.288 -0.0884  0.1045  0.0017
   58loPI   C6A  924  15.491   8.427   8.013  0.1504 -0.2202  0.1581
   58loPI   C1B  925  15.231   8.785   9.700 -0.0477  0.0449 -0.0193
   58loPI   C2B  926  15.312   8.799   9.231  0.1406  0.2234 -0.4974
   58loPI   C3B  927  15.302   8.808   8.729  0.1992 -0.1169 -0.1687
   58loPI   C4B  928  15.119   8.681   8.223  0.2796  0.2690 -0.5341
   59loPI    C1  929   2.044  10.738  11.156 -0.1939  0.0106 -0.0504
   59loPI    C2  930   1.773  10.907  11.396 -0.0012  0.0489  0.1429
   59loPI    C3  931   1.850  10.516  11.426 -0.0347  0.0380  0.0881
   59loPI   PO4  932   1.971  10.810  10.849  0.0093  0.0048 -0.4627
   59loPI   GL1  933   2.226  10.846  10.468  0.0950 -0.0968  0.0805
   59loPI   GL2  934   2.537  10.680  10.428  0.0821 -0.0751 -0.0068
   59loPI   C1A  935   2.206  10.758  10.063  0.3015  0.1779 -0.0084
   59loPI   C2A  936   2.246  10.777   9.614  0.2130  0.1925 -0.0693
   59loPI   C3A  937   2.241  10.727   9.199 -0.1220 -0.4025  0.1124
   59loPI   C4A  938   2.231  10.845   8.758  0.0440 -0.0461 -0.0480
   59loPI   C5A  939   2.555  10.874   8.454  0.0990  0.0021  0.1210
   59loPI   C6A  940   2.765  10.481   8.242  0.3457 -0.1729 -0.0246
   59loPI   C1B  941   2.742  10.836  10.132  0.4289 -0.2922  0.1227
   59loPI   C2B  942   2.769  10.862   9.703 -0.2142  0.0278 -0.1111
   59loPI   C3B  943   2.721  10.831   9.334  0.4328 -0.0673 -0.2271
   59loPI   C4B  944   2.804  10.877   8.897  0.3487 -0.0637  0.1293
   60loPI    C1  945   6.908  13.620  10.738  0.0611  0.0613 -0.0509
   60loPI    C2  946   6.912  13.627  11.138  0.0450 -0.1734 -0.0452
   60loPI    C3  947   7.215  13.786  10.932 -0.0602  0.1646  0.0549
   60loPI   PO4  948   6.663  13.743  10.645  0.0749  0.4351  0.1785
   60loPI   GL1  949   6.504  13.775  10.288  0.1623 -0.1313 -0.0488
   60loPI   GL2  950   6.735  13.757  10.102 -0.2725 -0.0973 -0.1988
   60loPI   C1A  951   6.148  13.664   9.957 -0.0867  0.2009 -0.1830
   60loPI   C2A  952   6.207  13.689   9.464 -0.1750  0.5070  0.1996
   60loPI   C3A  953   6.175  13.682   8.984 -0.1296  0.0681  0.0715
   60loPI   C4A  954   6.020  13.733   8.590  0.0589  0.0340 -0.2326
   60loPI   C5A  955   6.191  13.957   8.249 -0.1142 -0.2264  0.2363
   60loPI   C6A  956   6.415  14.168   7.957 -0.0100 -0.2087 -0.3505
   60loPI   C1B  957   6.711  13.754   9.655 -0.0950 -0.1649  0.0596
   60loPI   C2B  958   6.617  13.753   9.188  0.2470  0.4992  0.0653
   60loPI   C3B  959   6.666  13.662   8.815 -0.0706  0.0985  0.1763
   60loPI   C4B  960   6.644  13.793   8.418 -0.0467 -0.1409 -0.0729
   61loPI    C1  961   8.955   6.990  11.083  0.0334 -0.0370  0.0875
   61loPI    C2  962   8.956   7.354  11.249 -0.0950  0.0298 -0.0555
   61loPI    C3  963   9.064   7.035  11.465  0.3740  0.1965 -0.0325
   61loPI   PO4  964   8.659   6.999  10.926  0.0132  0.0142 -0.1275
   61loPI   GL1  965   8.535   7.016  10.494  0.2842  0.1349 -0.2092
   61loPI   GL2  966   8.838   6.990  10.330 -0.0140 -0.0454  0.3095
   61loPI   C1A  967   8.348   7.052  10.074 -0.0532 -0.0018  0.4067
   61loPI   C2A  968   8.268   7.045   9.665  0.0375 -0.1718  0.0724
   61loPI   C3A  969   8.317   7.146   9.326  0.1119  0.1491  0.0824
   61loPI   C4A  970   8.313   7.071   8.899  0.1621 -0.1519  0.0192
   61loPI   C5A  971   8.277   7.127   8.484 -0.0027  0.0601  0.0087
   61loPI   C6A  972   8.296   7.356   8.055  0.1068 -0.0464  0.2819
   61loPI   C1B  973   8.817   7.093   9.815  0.3608  0.2288 -0.0337
   61loPI   C2B  974   8.880   7.100   9.388 -0.0334 -0.0763  0.2511
   61loPI   C3B  975   8.865   7.127   8.994 -0.1949 -0.0052 -0.4109
   61loPI   C4B  976   8.822   7.067   8.568  0.0928  0.1542 -0.3155
   62loPI    C1  977  14.838   9.788  10.971 -0.0786  0.0818 -0.0764
   62loPI    C2  978  15.120   9.627  11.204  0.1173 -0.0313 -0.3875
   62loPI    C3  979  14.971   9.987  11.292 -0.1018 -0.2400  0.1382
   62loPI   PO4  980  14.882   9.830  10.762  0.1527 -0.1192  0.0835
   62loPI   GL1  981  14.724  10.114  10.453 -0.1769 -0.1461  0.0420
   62loPI   GL2  982  14.500  10.003  10.469 -0.1449 -0.0171 -0.0233
   62loPI   C1A  983  14.869  10.112  10.120 -0.1808 -0.0893 -0.1615
   62loPI   C2A  984  14.940  10.191   9.672 -0.4304 -0.0751  0.1721
   62loPI   C3A  985  14.910  10.093   9.338  0.3407 -0.3949 -0.0552
   62loPI   C4A  986  14.889  10.162   8.873 -0.0454  0.1230 -0.2987
   62loPI   C5A  987  14.797  10.158   8.498 -0.0838 -0.0710 -0.1269
   62loPI   C6A  988  14.725  10.289   8.051  0.3804 -0.1496  0.0247
   62loPI   C1B  989  14.336  10.029  10.061 -0.1435  0.1019 -0.0378
   62loPI   C2B  990  14.390  10.142   9.597 -0.3899  0.0066 -0.1058
   62loPI   C3B  991  14.437  10.088   9.191  0.0694  0.1167  0.1108
   62loPI   C4B  992  14.326  10.106   8.713  0.0571  0.2681  0.1339
   63loPI    C1  993  17.248   4.069  10.848 -0.1359  0.0392  0.0147
   63loPI    C2  994  17.197   4.307  10.531 -0.0282 -0.0774 -0.0911
   63loPI    C3  995  17.086   4.432  10.894  0.0896  0.1613 -0.1353
   63loPI   PO4  996  17.245   3.865  10.754 -0.2532  0.0918 -0.0735
   63loPI   GL1  997  17.285   3.721  10.332 -0.1048  0.0612 -0.0473
   63loPI   GL2  998  17.012   3.761  10.210 -0.2184  0.2553  0.2019
   63loPI   C1A  999  17.389   3.826   9.916 -0.0854 -0.0313 -0.0868
   63loPI   C2A 1000  17.382   3.933   9.523 -0.0654  0.0551  0.1657
   63loPI   C3A 1001  17.375   4.007   9.140  0.0734 -0.0338  0.3687
   63loPI   C4A 1002  17.361   4.048   8.656 -0.0548 -0.4160  0.2162
   63loPI   C5A 1003  17.167   4.061   8.245  0.1694 -0.0617  0.0458
   63loPI   C6A 1004  17.254   4.366   7.915  0.3011  0.1619 -0.2960
   63loPI   C1B 1005  16.876   3.860   9.755  0.2087 -0.0180  0.1895
   63loPI   C2B 1006  16.870   3.961   9.298 -0.1207 -0.1419 -0.2662
   63loPI   C3B 1007  16.903   3.937   8.868 -0.0840  0.1708  0.2579
   63loPI   C4B 1008  16.755   4.091   8.499 -0.2388  0.0696 -0.2415
   64loPI    C1 1009   6.738   8.620  11.294  0.1392  0.0758  0.0690
   64loPI    C2 1010   7.081   8.767  11.437  0.1879 -0.0576  0.0915
   64loPI    C3 1011   6.783   8.675  11.687  0.2244 -0.1668  0.0954
   64loPI   PO4 1012   6.660   8.763  11.101  0.1591 -0.1492 -0.0219
   64loPI   GL1 1013   6.716   8.753  10.690  0.0956  0.0175  0.1860
   64loPI   GL2 1014   6.355   8.786  10.695 -0.0903  0.2042 -0.0225
   64loPI   C1A 1015   6.979   8.837  10.430 -0.0691  0.0487 -0.0837
   64loPI   C2A 1016   6.801   8.774  10.075  0.1532  0.2039 -0.0700
   64loPI   C3A 1017   6.723   8.783   9.691  0.1420 -0.2666 -0.0781
   64loPI   C4A 1018   6.687   8.912   9.227 -0.0894 -0.2874  0.1578
   64loPI   C5A 1019   6.675   8.903   8.853  0.2149  0.0476  0.0389
   64loPI   C6A 1020   6.358   8.921   8.451 -0.0972 -0.0520 -0.1477
   64loPI   C1B 1021   6.354   8.745  10.231  0.0219 -0.1385  0.0582
   64loPI   C2B 1022   6.188   8.758   9.834 -0.1031  0.1140  0.1890
   64loPI   C3B 1023   6.277   8.774   9.409  0.3540 -0.0811  0.2316
   64loPI   C4B 1024   6.170   8.870   8.924  0.1245 -0.0524  0.1189
   65loPI    C1 1025   5.374   2.848  10.732 -0.0081  0.1338 -0.3650
   65loPI    C2 1026   5.024   2.705  10.601 -0.0803 -0.1378  0.0995
   65loPI    C3 1027   5.031   2.973  10.897  0.1024 -0.0195 -0.0099
   65loPI   PO4 1028   5.497   2.889  10.455  0.2554  0.0438  0.0499
   65loPI   GL1 1029   5.517   3.182  10.098 -0.0009 -0.0264 -0.1832
   65loPI   GL2 1030   5.374   3.538  10.104  0.1193  0.3217  0.0017
   65loPI   C1A 1031   5.390   3.352   9.629 -0.0556 -0.4402  0.2859
   65loPI   C2A 1032   5.397   3.374   9.156 -0.1557  0.0747 -0.1327
   65loPI   C3A 1033   5.417   3.328   8.716 -0.1430  0.0618 -0.1323
   65loPI   C4A 1034   5.488   3.524   8.297  0.3543  0.1121  0.4625
   65loPI   C5A 1035   5.507   3.531   7.852 -0.2436 -0.1339 -0.1297
   65loPI   C6A 1036   5.393   3.566   7.492  0.0557  0.1486  0.1406
   65loPI   C1B 1037   5.136   3.853   9.775 -0.0535  0.1646 -0.0051
   65loPI   C2B 1038   5.141   3.851   9.277  0.0699  0.0059 -0.1585
   65loPI   C3B 1039   5.230   3.778   8.831  0.0618 -0.0283 -0.0641
   65loPI   C4B 1040   5.212   3.904   8.479 -0.0721 -0.2485  0.1992
   66loPI    C1 1041   3.599  12.099  11.366 -0.0268  0.1196  0.2461
   66loPI    C2 1042   3.415  12.394  11.562  0.0078  0.2638  0.0645
   66loPI    C3 1043   3.813  12.397  11.525 -0.0028  0.2651 -0.0520
   66loPI   PO4 1044   3.501  12.113  11.080  0.2345  0.2165 -0.1940
   66loPI   GL1 1045   3.645  12.235  10.736 -0.1522 -0.0776 -0.0361
   66loPI   GL2 1046   3.819  11.899  10.690  0.1098 -0.1057  0.0661
   66loPI   C1A 1047   3.626  12.504  10.420 -0.1700 -0.1479  0.0701
   66loPI   C2A 1048   3.704  12.586   9.968 -0.3099  0.0390  0.0970
   66loPI   C3A 1049   3.535  12.654   9.545  0.0922 -0.1602  0.0117
   66loPI   C4A 1050   3.532  12.647   9.119 -0.0240 -0.1832 -0.0522
   66loPI   C5A 1051   3.555  12.751   8.817  0.0575 -0.2398 -0.0803
   66loPI   C6A 1052   3.944  12.677   8.498  0.1957 -0.2138  0.1902
   66loPI   C1B 1053   3.820  11.716  10.277  0.0648  0.1513  0.0894
   66loPI   C2B 1054   3.699  11.733   9.933  0.0851  0.1273  0.1428
   66loPI   C3B 1055   3.676  11.840   9.481 -0.1462 -0.2657  0.1261
   66loPI   C4B 1056   3.717  11.831   9.014 -0.0134 -0.0707 -0.0039
   67loPI    C1 1057  13.346  11.303  11.171 -0.0900  0.0467 -0.0727
   67loPI    C2 1058  13.518  11.300  11.532  0.0674  0.1182 -0.1461
   67loPI    C3 1059  13.155  11.460  11.485 -0.0825 -0.1597  0.0368
   67loPI   PO4 1060  13.364  11.417  10.914 -0.0552 -0.3180  0.2090
   67loPI   GL1 1061  13.583  11.276  10.419  0.0592  0.0603  0.0461
   67loPI   GL2 1062  13.269  11.337  10.424 -0.2162 -0.2824  0.0842
   67loPI   C1A 1063  13.566  11.307   9.947 -0.3381 -0.0878  0.1246
   67loPI   C2A 1064  13.547  11.376   9.542  0.4406  0.0161 -0.0178
   67loPI   C3A 1065  13.563  11.355   9.157  0.0262 -0.0241  0.0683
   67loPI   C4A 1066  13.593  11.371   8.711  0.2759  0.1095  0.2251
   67loPI   C5A 1067  13.468  11.345   8.368 -0.2578 -0.2255  0.1424
   67loPI   C6A 1068  12.971  11.321   8.246  0.1870  0.0857 -0.2219
   67loPI   C1B 1069  13.019  11.393  10.060  0.0223 -0.0012 -0.0135
   67loPI   C2B 1070  13.042  11.405   9.673  0.0345  0.0403 -0.1352
   67loPI   C3B 1071  13.047  11.373   9.236  0.0669  0.1147 -0.0886
   67loPI   C4B 1072  13.081  11.332   8.776  0.2306  0.1128 -0.0966
   68loPI    C1 1073   9.118   9.695  11.169  0.2082 -0.0392 -0.0291
   68loPI    C2 1074   8.882   9.411  11.320 -0.0155  0.1770  0.0342
   68loPI    C3 1075   9.121   9.621  11.562  0.0038  0.1769  0.0151
   68loPI   PO4 1076   9.164   9.661  10.977 -0.3320 -0.3104  0.2861
   68loPI   GL1 1077   9.126   9.610  10.574 -0.0133 -0.4999  0.2213
   68loPI   GL2 1078   9.347   9.835  10.375  0.0494  0.3453 -0.1079
   68loPI   C1A 1079   9.115   9.414  10.114  0.0106  0.1524  0.0194
   68loPI   C2A 1080   9.041   9.329   9.669  0.3040  0.0636 -0.1101
   68loPI   C3A 1081   9.037   9.460   9.289 -0.2093 -0.3929  0.0747
   68loPI   C4A 1082   9.059   9.293   8.892  0.2097  0.0361 -0.0712
   68loPI   C5A 1083   8.897   9.475   8.570  0.1581  0.3600  0.1807
   68loPI   C6A 1084   8.676   9.366   8.182  0.2815 -0.0308  0.1520
   68loPI   C1B 1085   9.319   9.826   9.843 -0.0812 -0.0580  0.0361
   68loPI   C2B 1086   9.282   9.836   9.440  0.2515 -0.2271  0.1481
   68loPI   C3B 1087   9.265   9.812   9.008 -0.2621  0.4131  0.3474
   68loPI   C4B 1088   9.183   9.877   8.534  0.0563  0.0571  0.1172
   69loPI    C1 1089  13.088  17.306  10.432  0.0671 -0.2252  0.0696
   69loPI    C2 1090  13.367  17.095  10.626  0.0722 -0.1127  0.1862
   69loPI    C3 1091  13.056  17.248  10.826  0.1632  0.1433  0.1361
   69loPI   PO4 1092  13.108  17.190  10.177 -0.1112 -0.0428  0.2574
   69loPI   GL1 1093  13.104  17.007   9.782  0.4762 -0.4189  0.3629
   69loPI   GL2 1094  13.024  17.318   9.704  0.0688  0.0828  0.0148
   69loPI   C1A 1095  13.184  16.850   9.368 -0.1313  0.5031 -0.2257
   69loPI   C2A 1096  13.200  16.910   8.916  0.3126 -0.0203 -0.0266
   69loPI   C3A 1097  13.265  16.793   8.553 -0.0248  0.1032  0.0543
   69loPI   C4A 1098  13.175  16.957   8.134  0.3604 -0.2084  0.2668
   69loPI   C5A 1099  13.053  17.150   7.689 -0.0845 -0.0831  0.1378
   69loPI   C6A 1100  13.078  17.522   7.483  0.0771 -0.0289 -0.0966
   69loPI   C1B 1101  13.095  17.343   9.314 -0.0439  0.1515 -0.2577
   69loPI   C2B 1102  13.044  17.379   8.862  0.1813 -0.2041  0.0149
   69loPI   C3B 1103  12.942  17.260   8.544  0.0526 -0.0528 -0.0343
   69loPI   C4B 1104  12.714  16.958   8.260 -0.1363  0.1765 -0.1759
   70loPI    C1 1105   2.614  12.627  11.273  0.0949 -0.0003  0.2825
   70loPI    C2 1106   2.608  12.943  11.518 -0.4628  0.0736  0.1870
   70loPI    C3 1107   2.405  12.612  11.614  0.0013 -0.2105  0.2176
   70loPI   PO4 1108   2.755  12.734  11.006 -0.1939  0.0618 -0.2234
   70loPI   GL1 1109   2.610  12.923  10.586 -0.1038  0.1033 -0.0129
   70loPI   GL2 1110   2.873  13.037  10.614  0.1752  0.2309  0.2622
   70loPI   C1A 1111   2.584  12.554  10.331 -0.1164 -0.0799  0.0645
   70loPI   C2A 1112   2.530  12.627   9.927  0.2580  0.3105  0.2712
   70loPI   C3A 1113   2.591  12.614   9.528 -0.2021 -0.2333 -0.1774
   70loPI   C4A 1114   2.544  12.703   9.132 -0.5136  0.1081  0.0133
   70loPI   C5A 1115   2.457  12.590   8.738  0.0746 -0.1369 -0.3769
   70loPI   C6A 1116   2.148  12.279   8.479 -0.0567 -0.1453 -0.2532
   70loPI   C1B 1117   2.887  13.004  10.140 -0.1990 -0.2374  0.0737
   70loPI   C2B 1118   2.887  13.051   9.684 -0.0503 -0.0957  0.1890
   70loPI   C3B 1119   2.810  13.118   9.300 -0.1651  0.0493  0.0306
   70loPI   C4B 1120   2.743  13.217   8.808 -0.0843 -0.1346 -0.0451
   71loPI    C1 1121   3.796   3.577  10.211 -0.1535 -0.1872 -0.1342
   71loPI    C2 1122   3.654   3.948  10.161  0.2587 -0.0052 -0.0037
   71loPI    C3 1123   3.599   3.758  10.508  0.1131 -0.0388 -0.0442
   71loPI   PO4 1124   4.056   3.630  10.130  0.1042 -0.1141 -0.0096
   71loPI   GL1 1125   4.080   3.852   9.888  0.0429 -0.2157 -0.1654
   71loPI   GL2 1126   3.905   4.119   9.744 -0.1519 -0.0946  0.1725
   71loPI   C1A 1127   4.169   3.704   9.487 -0.1120  0.0890  0.3437
   71loPI   C2A 1128   4.180   3.729   9.025  0.1433  0.1817  0.2146
   71loPI   C3A 1129   4.188   3.820   8.611  0.3818 -0.2363 -0.0034
   71loPI   C4A 1130   4.199   3.757   8.213  0.1153 -0.0394  0.0871
   71loPI   C5A 1131   4.323   3.852   7.711 -0.0031  0.1675  0.0168
   71loPI   C6A 1132   4.402   3.680   7.345 -0.0966 -0.4971  0.1145
   71loPI   C1B 1133   3.871   4.200   9.321 -0.0407  0.2521 -0.0783
   71loPI   C2B 1134   3.889   4.140   8.864 -0.0930  0.2790  0.2400
   71loPI   C3B 1135   3.964   4.208   8.396 -0.1207  0.2498  0.1446
   71loPI   C4B 1136   3.753   4.079   7.995 -0.0454 -0.4048 -0.1560
   72loPI    C1 1137   5.061   4.682  10.906 -0.0025  0.1029  0.0036
   72loPI    C2 1138   5.406   4.670  11.108  0.1189 -0.2122 -0.2155
   72loPI    C3 1139   5.175   4.344  11.087 -0.2352  0.0190 -0.0032
   72loPI   PO4 1140   5.085   4.778  10.699  0.2510 -0.0866  0.1131
   72loPI   GL1 1141   4.838   5.007  10.380  0.0906 -0.1734 -0.1449
   72loPI   GL2 1142   5.161   5.088  10.301 -0.1986 -0.0803 -0.2670
   72loPI   C1A 1143   4.840   5.163   9.937  0.0714  0.5320 -0.0718
   72loPI   C2A 1144   4.909   5.101   9.562  0.1081 -0.1728  0.0787
   72loPI   C3A 1145   4.931   5.115   9.103 -0.1092  0.0946  0.0204
   72loPI   C4A 1146   4.804   5.164   8.648 -0.0584 -0.1664 -0.1744
   72loPI   C5A 1147   4.973   5.166   8.268  0.3418 -0.0968  0.2461
   72loPI   C6A 1148   5.275   5.070   8.003 -0.0383 -0.2866 -0.0197
   72loPI   C1B 1149   5.321   5.086   9.823  0.0833  0.4087 -0.0061
   72loPI   C2B 1150   5.399   5.159   9.607  0.0544  0.0622 -0.0139
   72loPI   C3B 1151   5.442   5.264   9.206  0.3138 -0.0459 -0.0107
   72loPI   C4B 1152   5.403   5.156   8.760 -0.0280 -0.0258  0.3647
   73loPI    C1 1153  14.066  11.818  11.057  0.2375  0.0523 -0.2163
   73loPI    C2 1154  13.962  12.117  11.301  0.1098  0.0079 -0.2155
   73loPI    C3 1155  14.301  11.915  11.366  0.1068  0.0356 -0.1109
   73loPI   PO4 1156  14.046  11.958  10.811  0.1446  0.2653  0.3230
   73loPI   GL1 1157  13.995  11.812  10.463 -0.0033 -0.0898  0.3033
   73loPI   GL2 1158  14.356  11.887  10.404 -0.0927  0.2416  0.1651
   73loPI   C1A 1159  14.073  11.436  10.159 -0.1507  0.1763  0.0839
   73loPI   C2A 1160  14.083  11.429   9.680 -0.2686  0.0139  0.1673
   73loPI   C3A 1161  14.066  11.468   9.219 -0.1902  0.3158  0.2605
   73loPI   C4A 1162  14.060  11.425   8.827  0.0806 -0.2058  0.3732
   73loPI   C5A 1163  14.016  11.406   8.479  0.1849  0.0440 -0.2642
   73loPI   C6A 1164  13.867  11.163   8.049 -0.0547  0.1209  0.0927
   73loPI   C1B 1165  14.330  11.880  10.080  0.1110 -0.2155 -0.0736
   73loPI   C2B 1166  14.302  11.921   9.605  0.0371 -0.3840 -0.1549
   73loPI   C3B 1167  14.283  11.890   9.194 -0.0234  0.4800  0.3208
   73loPI   C4B 1168  14.276  11.889   8.807  0.0579 -0.0838  0.0465
   74loPI    C1 1169  15.521   0.485  10.734 -0.1422 -0.0696 -0.1444
   74loPI    C2 1170  15.715   0.835  10.729  0.0482 -0.1697  0.0614
   74loPI    C3 1171  15.469   0.747  11.032 -0.0828 -0.1708 -0.0444
   74loPI   PO4 1172  15.471   0.515  10.428  0.1800  0.2146  0.2519
   74loPI   GL1 1173  15.789   0.615  10.117  0.0669 -0.2716 -0.0753
   74loPI   GL2 1174  16.206   0.658  10.102  0.0801  0.2217 -0.0849
   74loPI   C1A 1175  15.757   0.705   9.587 -0.1624  0.3089 -0.0166
   74loPI   C2A 1176  15.774   0.705   9.197  0.1050  0.0113  0.1750
   74loPI   C3A 1177  15.757   0.705   8.756  0.0331  0.0469  0.1981
   74loPI   C4A 1178  15.729   0.809   8.309 -0.0019  0.2008  0.0592
   74loPI   C5A 1179  15.708   0.626   7.940  0.1088 -0.3264  0.0645
   74loPI   C6A 1180  15.662   0.239   7.714  0.0439 -0.0370  0.1329
   74loPI   C1B 1181  16.258   0.658   9.708  0.3006  0.0657  0.0213
   74loPI   C2B 1182  16.289   0.702   9.334 -0.0498 -0.5288  0.0920
   74loPI   C3B 1183  16.216   0.615   8.888 -0.2184  0.0728  0.1426
   74loPI   C4B 1184  16.252   0.692   8.458  0.1559 -0.0201  0.0739
   75loPI    C1 1185  13.380  15.785  10.528  0.0084 -0.0319  0.1903
   75loPI    C2 1186  13.483  16.120  10.721  0.1796  0.0864 -0.0980
   75loPI    C3 1187  13.199  15.881  10.871  0.1191  0.3128  0.1567
   75loPI   PO4 1188  13.402  15.844  10.262  0.1946 -0.2572 -0.0438
   75loPI   GL1 1189  13.359  15.614   9.802 -0.0304  0.0643 -0.1331
   75loPI   GL2 1190  13.110  15.366   9.634  0.0065  0.1632  0.0421
   75loPI   C1A 1191  13.289  15.780   9.413 -0.2521  0.0234  0.1663
   75loPI   C2A 1192  13.358  15.782   8.897  0.0374 -0.0090 -0.1197
   75loPI   C3A 1193  13.534  15.550   8.484  0.1044 -0.0081  0.0380
   75loPI   C4A 1194  13.712  15.607   8.029 -0.0092 -0.2817 -0.2342
   75loPI   C5A 1195  13.994  15.646   7.812 -0.0887  0.3460 -0.0867
   75loPI   C6A 1196  14.251  15.694   7.513  0.0048 -0.2331  0.0172
   75loPI   C1B 1197  13.052  15.402   9.170 -0.1681 -0.1552 -0.1015
   75loPI   C2B 1198  13.081  15.360   8.735 -0.0318 -0.0949  0.0398
   75loPI   C3B 1199  12.986  15.409   8.230 -0.0319 -0.0709 -0.0945
   75loPI   C4B 1200  13.306  15.299   7.940 -0.0565 -0.0877  0.0606
   76loPI    C1 1201  17.349   2.636  11.095 -0.1464 -0.0612  0.2054
   76loPI    C2 1202  17.746   2.588  11.078 -0.1544 -0.0639  0.0016
   76loPI    C3 1203  17.592   2.928  11.223 -0.0780 -0.0611  0.0773
   76loPI   PO4 1204  17.271   2.493  10.822  0.3094  0.0232  0.0581
   76loPI   GL1 1205  17.053   2.610  10.423 -0.0132 -0.1439 -0.1798
   76loPI   GL2 1206  17.273   2.729  10.326 -0.0909 -0.1407  0.0457
   76loPI   C1A 1207  17.006   2.873   9.948 -0.1255  0.1951  0.0441
   76loPI   C2A 1208  17.012   2.944   9.583  0.2613  0.1305  0.0574
   76loPI   C3A 1209  16.864   3.029   9.174  0.1207 -0.2895  0.2228
   76loPI   C4A 1210  16.859   3.088   8.748 -0.1962 -0.1341  0.2552
   76loPI   C5A 1211  17.088   3.142   8.300  0.0227 -0.0067  0.0538
   76loPI   C6A 1212  17.394   2.837   8.057  0.3024 -0.1664  0.0984
   76loPI   C1B 1213  17.251   2.434  10.003  0.3368  0.3874 -0.1843
   76loPI   C2B 1214  17.243   2.503   9.570  0.0600 -0.0617 -0.0148
   76loPI   C3B 1215  17.261   2.610   9.209  0.0924  0.3696  0.1622
   76loPI   C4B 1216  17.151   2.740   8.795  0.3848 -0.1838 -0.1463
   77loPI    C1 1217   6.888   9.229  11.362  0.1319 -0.4624  0.2323
   77loPI    C2 1218   6.536   9.074  11.474 -0.0586 -0.0573  0.2107
   77loPI    C3 1219   6.650   9.433  11.610  0.1581 -0.0002 -0.1096
   77loPI   PO4 1220   6.916   9.187  11.133 -0.1016  0.1616  0.0664
   77loPI   GL1 1221   6.833   9.271  10.805  0.0976  0.1161  0.0865
   77loPI   GL2 1222   6.945   9.529  10.694 -0.1022 -0.1968 -0.0212
   77loPI   C1A 1223   6.639   9.153  10.378 -0.1152  0.1462 -0.2931
   77loPI   C2A 1224   6.458   9.215  10.015 -0.1724  0.3392 -0.1268
   77loPI   C3A 1225   6.407   9.279   9.635  0.2289 -0.0863  0.1371
   77loPI   C4A 1226   6.416   9.328   9.141  0.2765  0.0241  0.0125
   77loPI   C5A 1227   6.450   9.398   8.736 -0.1307 -0.1842 -0.2170
   77loPI   C6A 1228   6.828   9.480   8.522 -0.1230 -0.0094 -0.0963
   77loPI   C1B 1229   6.760   9.657  10.243 -0.0203 -0.0573  0.0761
   77loPI   C2B 1230   6.710   9.646   9.837  0.1228 -0.1956  0.0235
   77loPI   C3B 1231   6.657   9.778   9.376  0.0219  0.2617 -0.2115
   77loPI   C4B 1232   6.693   9.811   8.966 -0.0025 -0.0423  0.3090
   78loPI    C1 1233   6.030  16.794  10.849  0.1115  0.0483  0.0160
   78loPI    C2 1234   5.649  16.823  10.969  0.0564 -0.3237 -0.0577
   78loPI    C3 1235   5.936  16.731  11.232  0.0767 -0.1783 -0.0284
   78loPI   PO4 1236   6.151  16.786  10.502  0.0462 -0.2295  0.3482
   78loPI   GL1 1237   6.004  16.685  10.154  0.3249  0.0257 -0.0296
   78loPI   GL2 1238   6.052  16.405  10.004 -0.1282  0.3576 -0.1051
   78loPI   C1A 1239   5.751  16.756   9.733 -0.1096 -0.0377  0.2387
   78loPI   C2A 1240   5.811  16.768   9.218  0.0530  0.0599  0.1518
   78loPI   C3A 1241   5.753  16.753   8.833  0.0519  0.0804 -0.0322
   78loPI   C4A 1242   5.717  16.920   8.605  0.1223 -0.0281  0.1004
   78loPI   C5A 1243   5.630  16.864   8.191  0.1234  0.0990  0.3307
   78loPI   C6A 1244   5.281  16.816   8.072 -0.0169 -0.0557  0.2290
   78loPI   C1B 1245   6.071  16.385   9.653  0.0344 -0.0333  0.1852
   78loPI   C2B 1246   5.989  16.290   9.198 -0.3231  0.3188 -0.0600
   78loPI   C3B 1247   6.046  16.393   8.703  0.0852 -0.0240 -0.2597
   78loPI   C4B 1248   6.042  16.456   8.220 -0.1728 -0.2584 -0.2283
   79loPI    C1 1249   0.506   0.510  10.862 -0.2073 -0.0760  0.1583
   79loPI    C2 1250   0.546   0.335  11.219  0.1175 -0.0460  0.1395
   79loPI    C3 1251   0.366   0.691  11.189 -0.0026 -0.0961  0.2589
   79loPI   PO4 1252   0.698   0.353  10.732 -0.1674  0.0496  0.1778
   79loPI   GL1 1253   0.690   0.409  10.306 -0.0615 -0.0017  0.0568
   79loPI   GL2 1254   1.057   0.262  10.311  0.1476  0.0820  0.2224
   79loPI   C1A 1255   0.637   0.288  10.020  0.0299  0.0025 -0.1144
   79loPI   C2A 1256   0.495   0.305   9.582 -0.0343  0.1690  0.2840
   79loPI   C3A 1257   0.477   0.289   9.138 -0.0502  0.1246 -0.0111
   79loPI   C4A 1258   0.464   0.336   8.711 -0.1823 -0.1362  0.1159
   79loPI   C5A 1259   0.436   0.505   8.339 -0.0262 -0.1742  0.0494
   79loPI   C6A 1260   0.421   0.611   7.902  0.0122  0.1732  0.2706
   79loPI   C1B 1261   1.094   0.292   9.971 -0.1130  0.1060  0.0005
   79loPI   C2B 1262   1.075   0.300   9.518  0.2801  0.2996  0.1038
   79loPI   C3B 1263   1.020   0.267   9.094 -0.1899  0.0809 -0.0302
   79loPI   C4B 1264   0.945   0.396   8.636 -0.1952 -0.2357  0.0818
   80loPI    C1 1265   3.187   3.178  10.127 -0.0213  0.1951 -0.0130
   80loPI    C2 1266   2.925   3.271  10.414 -0.0464  0.0256  0.0205
   80loPI    C3 1267   3.317   3.306  10.483 -0.0513 -0.0549  0.0904
   80loPI   PO4 1268   2.990   3.220   9.886  0.1932 -0.0926 -0.4103
   80loPI   GL1 1269   2.714   3.271   9.640 -0.2400 -0.0525 -0.1883
   80loPI   GL2 1270   2.439   3.364   9.591  0.2350 -0.0372  0.0597
   80loPI   C1A 1271   2.813   3.192   9.262 -0.0785 -0.1765 -0.2386
   80loPI   C2A 1272   2.967   3.077   8.856  0.2281 -0.2487  0.0020
   80loPI   C3A 1273   2.869   3.299   8.496 -0.3054  0.3029 -0.0194
   80loPI   C4A 1274   2.912   3.277   8.090 -0.1218 -0.1085  0.1530
   80loPI   C5A 1275   3.187   3.339   7.664 -0.0445 -0.2840 -0.0037
   80loPI   C6A 1276   3.414   3.510   7.466  0.0040  0.0529 -0.2920
   80loPI   C1B 1277   2.300   3.326   9.148 -0.0013  0.3527 -0.0351
   80loPI   C2B 1278   2.487   3.241   8.847 -0.1745  0.0277 -0.0338
   80loPI   C3B 1279   2.397   3.162   8.351 -0.2134 -0.1358 -0.0770
   80loPI   C4B 1280   2.421   3.388   8.002  0.0814  0.2928  0.0953
   81loPI    C1 1281   6.701  11.440  11.313 -0.1024  0.0067 -0.0588
   81loPI    C2 1282   6.367  11.381  11.525  0.0100 -0.0652  0.1005
   81loPI    C3 1283   6.715  11.231  11.654  0.0942 -0.0404 -0.0943
   81loPI   PO4 1284   6.610  11.339  10.983 -0.1036  0.1397  0.0984
   81loPI   GL1 1285   6.802  11.076  10.672  0.1639  0.0695 -0.4555
   81loPI   GL2 1286   6.975  10.898  10.666  0.2496  0.0248 -0.0035
   81loPI   C1A 1287   6.959  11.090  10.211 -0.0375  0.0794  0.6703
   81loPI   C2A 1288   6.873  11.050   9.766  0.0053  0.0436  0.1792
   81loPI   C3A 1289   6.950  11.061   9.353  0.1644  0.0250 -0.1980
   81loPI   C4A 1290   6.885  11.102   8.970  0.2334  0.2292 -0.1567
   81loPI   C5A 1291   6.860  11.182   8.613 -0.3352  0.0675 -0.1443
   81loPI   C6A 1292   6.699  11.248   8.180  0.0835  0.2841  0.0393
   81loPI   C1B 1293   6.699  10.631  10.409  0.1118 -0.0416 -0.0700
   81loPI   C2B 1294   6.682  10.632   9.964  0.1645 -0.0735  0.0415
   81loPI   C3B 1295   6.703  10.635   9.559  0.1854  0.0453  0.1237
   81loPI   C4B 1296   6.739  10.641   9.081  0.1313 -0.0585 -0.3049
   82loPI    C1 1297  13.214   0.866  10.484 -0.0685 -0.0989  0.0097
   82loPI    C2 1298  13.173   0.550  10.727 -0.0351 -0.0179  0.1213
   82loPI    C3 1299  13.232   0.915  10.881 -0.1551  0.0553 -0.0046
   82loPI   PO4 1300  13.056   0.806  10.268 -0.1133  0.0886 -0.2724
   82loPI   GL1 1301  12.930   1.034   9.877  0.3012  0.1625  0.1974
   82loPI   GL2 1302  12.548   1.022   9.795  0.1144  0.2619  0.0217
   82loPI   C1A 1303  13.019   1.120   9.580  0.0713  0.3073 -0.0041
   82loPI   C2A 1304  12.875   1.111   9.205  0.1424 -0.1681 -0.1354
   82loPI   C3A 1305  12.832   1.030   8.791  0.2353 -0.1274  0.0267
   82loPI   C4A 1306  12.823   1.000   8.342  0.1279 -0.0419 -0.0634
   82loPI   C5A 1307  12.705   0.831   8.001 -0.0255  0.0415  0.4284
   82loPI   C6A 1308  12.420   0.676   7.740  0.0647  0.0292  0.4420
   82loPI   C1B 1309  12.369   1.021   9.364 -0.0387  0.2344  0.1027
   82loPI   C2B 1310  12.347   1.014   8.897  0.0977 -0.2044  0.3590
   82loPI   C3B 1311  12.330   0.918   8.438  0.2768  0.0100 -0.2937
   82loPI   C4B 1312  12.197   1.013   8.028  0.1827 -0.1934  0.0178
   83loPI    C1 1313  17.480  10.488  11.137  0.1169 -0.1035 -0.0637
   83loPI    C2 1314  17.670  10.772  11.346  0.0549 -0.0405 -0.0926
   83loPI    C3 1315  17.276  10.722  11.389  0.0996 -0.2641  0.0731
   83loPI   PO4 1316  17.730  10.408  10.990 -0.1715  0.2928  0.0682
   83loPI   GL1 1317  17.864  10.315  10.641 -0.0359  0.2195  0.1624
   83loPI   GL2 1318  17.650  10.490  10.493 -0.1037  0.3883 -0.1796
   83loPI   C1A 1319  18.001  10.207  10.232 -0.1738  0.1977 -0.1041
   83loPI   C2A 1320  17.950  10.269   9.783  0.2071  0.1486  0.1303
   83loPI   C3A 1321  18.006  10.167   9.384 -0.3313  0.1409  0.3832
   83loPI   C4A 1322  17.901  10.229   8.960 -0.1329 -0.1407  0.2948
   83loPI   C5A 1323  17.962  10.295   8.505 -0.1917 -0.0585  0.0998
   83loPI   C6A 1324  18.223  10.381   8.103 -0.0221  0.1173  0.1043
   83loPI   C1B 1325  17.837  10.645  10.109 -0.2755  0.1470 -0.0274
   83loPI   C2B 1326  17.718  10.638   9.671  0.0947  0.1279 -0.0267
   83loPI   C3B 1327  17.663  10.665   9.249  0.3632 -0.0067 -0.0797
   83loPI   C4B 1328  17.662  10.699   8.748 -0.1013 -0.0853 -0.0714
   84loPI    C1 1329  13.375   9.327  11.072  0.1340  0.1935 -0.0710
   84loPI    C2 1330  13.025   9.421  10.902  0.0249 -0.0861 -0.0064
   84loPI    C3 1331  13.082   9.485  11.293  0.0638  0.0031 -0.0263
   84loPI   PO4 1332  13.497   9.227  10.858 -0.0005 -0.2643  0.3352
   84loPI   GL1 1333  13.203   9.192  10.513  0.2464 -0.0885 -0.2273
   84loPI   GL2 1334  13.431   9.049  10.351  0.0355  0.1228 -0.0240
   84loPI   C1A 1335  13.137   9.471  10.143  0.0633 -0.3009 -0.0196
   84loPI   C2A 1336  13.134   9.633   9.683 -0.1227 -0.2370 -0.0662
   84loPI   C3A 1337  13.016   9.625   9.254  0.1856 -0.0100  0.2011
   84loPI   C4A 1338  13.138   9.633   8.826 -0.0717 -0.0708 -0.1198
   84loPI   C5A 1339  13.190   9.605   8.423 -0.0680 -0.1033 -0.0182
   84loPI   C6A 1340  13.136   9.853   8.079 -0.2238 -0.0575  0.2515
   84loPI   C1B 1341  13.393   9.058   9.915 -0.0536 -0.0427  0.1017
   84loPI   C2B 1342  13.376   9.176   9.517  0.3886  0.1023  0.1408
   84loPI   C3B 1343  13.307   9.187   9.141 -0.2031  0.2851  0.1190
   84loPI   C4B 1344  13.319   9.140   8.614  0.1159  0.0996  0.1376
   85loPI    C1 1345   7.682  11.320  11.102  0.0343  0.2898  0.1188
   85loPI    C2 1346   7.892  11.022  10.939 -0.4207  0.0484 -0.0447
   85loPI    C3 1347   7.993  11.165  11.298  0.0519 -0.0190 -0.1442
   85loPI   PO4 1348   7.663  11.482  10.919 -0.1160 -0.1081  0.2342
   85loPI   GL1 1349   7.912  11.673  10.583  0.0848  0.1314  0.0562
   85loPI   GL2 1350   7.665  11.597  10.398 -0.1967  0.0593  0.0278
   85loPI   C1A 1351   8.141  11.670  10.122  0.2609  0.1710  0.0397
   85loPI   C2A 1352   8.172  11.702   9.629  0.2728  0.0738 -0.2726
   85loPI   C3A 1353   8.134  11.548   9.187  0.3682 -0.0128  0.3080
   85loPI   C4A 1354   8.117  11.498   8.770 -0.2555  0.1110  0.1583
   85loPI   C5A 1355   8.341  11.269   8.380  0.0875 -0.0094 -0.0128
   85loPI   C6A 1356   8.494  11.102   7.971  0.0037 -0.0234 -0.0211
   85loPI   C1B 1357   7.660  11.553   9.873  0.2054 -0.2711 -0.3087
   85loPI   C2B 1358   7.644  11.522   9.409 -0.2024 -0.2488  0.1356
   85loPI   C3B 1359   7.630  11.562   8.916  0.0644  0.1079  0.1463
   85loPI   C4B 1360   7.730  11.615   8.426 -0.0428 -0.0214 -0.0174
   86loPI    C1 1361   5.414  13.534  11.134 -0.0053  0.2482  0.2234
   86loPI    C2 1362   5.759  13.707  11.239  0.2505 -0.1725  0.1016
   86loPI    C3 1363   5.637  13.375  11.426 -0.0224 -0.1032  0.0505
   86loPI   PO4 1364   5.235  13.670  10.835 -0.1178  0.1672 -0.1267
   86loPI   GL1 1365   5.196  13.717  10.397  0.1103  0.1608 -0.0602
   86loPI   GL2 1366   4.913  13.859  10.343 -0.1323 -0.1594  0.0520
   86loPI   C1A 1367   5.100  13.636   9.902  0.1664  0.2301 -0.0825
   86loPI   C2A 1368   5.202  13.652   9.470 -0.0485 -0.2716  0.1673
   86loPI   C3A 1369   5.099  13.716   8.989 -0.0992 -0.0789  0.4019
   86loPI   C4A 1370   4.961  13.650   8.562 -0.2036 -0.1857 -0.2611
   86loPI   C5A 1371   4.738  13.335   8.326 -0.2156  0.0024  0.1613
   86loPI   C6A 1372   4.786  12.883   8.374 -0.0381 -0.2617  0.0342
   86loPI   C1B 1373   4.876  14.041   9.909  0.1988  0.1083 -0.0344
   86loPI   C2B 1374   4.851  14.119   9.442 -0.2309  0.0778  0.1946
   86loPI   C3B 1375   4.832  14.126   9.000  0.0777  0.0528 -0.3846
   86loPI   C4B 1376   4.741  14.134   8.672 -0.1983 -0.3354 -0.0407
   87loPI    C1 1377  13.604  17.345  10.278 -0.1613  0.2083  0.0898
   87loPI    C2 1378  13.813  17.607  10.060 -0.0085  0.0576  0.0526
   87loPI    C3 1379  13.891  17.566  10.450  0.0776 -0.0461  0.0248
   87loPI   PO4 1380  13.588  17.145  10.026  0.0360  0.2750  0.0819
   87loPI   GL1 1381  13.533  17.322   9.620 -0.2019 -0.2283 -0.1725
   87loPI   GL2 1382  13.892  17.250   9.642 -0.3197 -0.3142 -0.1304
   87loPI   C1A 1383  13.576  17.234   9.150 -0.1093  0.1503 -0.0060
   87loPI   C2A 1384  13.586  17.208   8.770 -0.0314  0.3483  0.1144
   87loPI   C3A 1385  13.450  17.323   8.394  0.0666 -0.1785 -0.0664
   87loPI   C4A 1386  13.512  17.316   7.951 -0.1322  0.1880 -0.0388
   87loPI   C5A 1387  13.569  17.416   7.441  0.0557  0.0347 -0.1168
   87loPI   C6A 1388  13.571  17.357   6.994 -0.0015  0.0354  0.2963
   87loPI   C1B 1389  14.042  17.208   9.255 -0.2749  0.0617 -0.0956
   87loPI   C2B 1390  14.068  17.337   8.766  0.1215  0.1915  0.0396
   87loPI   C3B 1391  13.931  17.347   8.384 -0.2795 -0.0472 -0.0768
   87loPI   C4B 1392  14.029  17.251   8.009  0.0099 -0.1248  0.0121
   88loPI    C1 1393   9.990   3.486  11.047 -0.1822 -0.1036  0.2469
   88loPI    C2 1394  10.308   3.726  11.079 -0.0027 -0.2859 -0.1117
   88loPI    C3 1395  10.221   3.469  11.373 -0.3111  0.3407  0.3685
   88loPI   PO4 1396   9.905   3.581  10.814 -0.2457  0.0554 -0.0386
   88loPI   GL1 1397   9.820   3.725  10.458  0.0048 -0.1123  0.1520
   88loPI   GL2 1398  10.120   3.639  10.354  0.2216 -0.1926 -0.1736
   88loPI   C1A 1399   9.635   3.601  10.095 -0.4173 -0.0898  0.0954
   88loPI   C2A 1400   9.598   3.565   9.684  0.0784 -0.2835 -0.1305
   88loPI   C3A 1401   9.690   3.557   9.277 -0.3337 -0.2237 -0.0249
   88loPI   C4A 1402   9.577   3.542   8.803 -0.2545  0.2947 -0.0982
   88loPI   C5A 1403   9.640   3.565   8.348  0.0411 -0.0269  0.3140
   88loPI   C6A 1404   9.447   3.238   8.079  0.1452  0.0050  0.2789
   88loPI   C1B 1405  10.130   3.556   9.918 -0.2699 -0.1662  0.0746
   88loPI   C2B 1406  10.060   3.574   9.575 -0.0779  0.1803 -0.3274
   88loPI   C3B 1407  10.200   3.585   9.164  0.0483 -0.1862  0.2186
   88loPI   C4B 1408  10.063   3.575   8.762  0.0996  0.0943  0.1296
   89loPI    C1 1409  12.767  12.232  10.863  0.0619 -0.0659 -0.1266
   89loPI    C2 1410  12.715  12.003  11.187  0.1716 -0.1046 -0.1358
   89loPI    C3 1411  13.011  12.272  11.178 -0.0268  0.1201 -0.0798
   89loPI   PO4 1412  12.815  12.123  10.688  0.0817  0.3280 -0.3223
   89loPI   GL1 1413  12.698  11.943  10.310 -0.1897  0.4475 -0.0433
   89loPI   GL2 1414  12.497  12.201  10.319  0.1412  0.0789  0.3149
   89loPI   C1A 1415  12.757  11.852   9.856  0.1183  0.1761  0.0254
   89loPI   C2A 1416  12.705  11.818   9.453 -0.2236  0.0880 -0.2294
   89loPI   C3A 1417  12.770  11.754   9.071  0.1633  0.0855  0.0593
   89loPI   C4A 1418  12.766  11.765   8.720 -0.1245 -0.1425 -0.1700
   89loPI   C5A 1419  12.760  11.843   8.322 -0.1495 -0.1770 -0.1482
   89loPI   C6A 1420  12.756  12.179   8.018  0.1590 -0.0216 -0.1249
   89loPI   C1B 1421  12.470  12.240   9.965 -0.0959  0.1682  0.2086
   89loPI   C2B 1422  12.451  12.242   9.529 -0.0505  0.3439 -0.0523
   89loPI   C3B 1423  12.425  12.165   9.035 -0.3076 -0.3531 -0.1600
   89loPI   C4B 1424  12.467  12.125   8.620  0.1500  0.1215 -0.2252
   90loPI    C1 1425   9.159  17.633  10.760  0.2341 -0.0905 -0.1206
   90loPI    C2 1426   9.121  17.978  10.561  0.0661 -0.0243  0.0231
   90loPI    C3 1427   9.348  17.961  10.890 -0.0211 -0.0212  0.0837
   90loPI   PO4 1428   8.909  17.492  10.678  0.0626 -0.0302  0.1517
   90loPI   GL1 1429   8.849  17.404  10.273 -0.1377 -0.0954  0.0569
   90loPI   GL2 1430   9.204  17.581  10.237  0.2353 -0.0156 -0.2730
   90loPI   C1A 1431   8.572  17.467   9.839  0.0122  0.2138 -0.1287
   90loPI   C2A 1432   8.542  17.531   9.504  0.0289 -0.1513  0.1393
   90loPI   C3A 1433   8.664  17.502   9.066 -0.1959  0.1288  0.2493
   90loPI   C4A 1434   8.597  17.525   8.578 -0.0173 -0.0093 -0.0164
   90loPI   C5A 1435   8.578  17.615   8.240  0.1149 -0.0388  0.1608
   90loPI   C6A 1436   8.652  17.706   7.798 -0.1921  0.2165  0.0568
   90loPI   C1B 1437   9.120  17.524   9.791  0.1077 -0.1938 -0.1297
   90loPI   C2B 1438   9.138  17.508   9.365  0.2626 -0.1461 -0.2129
   90loPI   C3B 1439   9.117  17.589   8.911 -0.0952 -0.0164 -0.1544
   90loPI   C4B 1440   9.083  17.581   8.508  0.2962 -0.1953 -0.2562
   91loPI    C1 1441  15.760   3.652  10.717  0.0252  0.3208  0.1228
   91loPI    C2 1442  15.988   3.571  11.035 -0.1199  0.0450  0.1602
   91loPI    C3 1443  15.664   3.801  11.075 -0.0890  0.0829  0.1934
   91loPI   PO4 1444  15.880   3.592  10.537  0.1516  0.1976 -0.1114
   91loPI   GL1 1445  15.957   3.393  10.264 -0.0601 -0.1987 -0.0334
   91loPI   GL2 1446  16.193   3.140  10.212 -0.4929  0.0519 -0.0442
   91loPI   C1A 1447  16.105   3.507   9.830 -0.2749 -0.1537  0.1235
   91loPI   C2A 1448  16.132   3.407   9.364 -0.0225  0.0957 -0.2443
   91loPI   C3A 1449  16.096   3.506   8.891  0.2679  0.3514 -0.0774
   91loPI   C4A 1450  16.118   3.590   8.452 -0.3194 -0.0221  0.2191
   91loPI   C5A 1451  16.110   3.377   8.127  0.0280 -0.1864  0.0955
   91loPI   C6A 1452  15.719   3.222   7.977  0.1937  0.0619 -0.3753
   91loPI   C1B 1453  15.950   2.978   9.825 -0.1078  0.1514 -0.0679
   91loPI   C2B 1454  15.853   3.014   9.436 -0.0994  0.0914 -0.0802
   91loPI   C3B 1455  15.866   3.009   8.998 -0.1666  0.2135  0.3377
   91loPI   C4B 1456  15.877   3.121   8.509 -0.0669  0.0283 -0.1346
   92loPI    C1 1457   6.375  17.699  10.642 -0.0212 -0.0334  0.1141
   92loPI    C2 1458   6.014  17.615  10.493  0.0790 -0.3058  0.0195
   92loPI    C3 1459   6.062  17.658  10.887 -0.1088  0.0121  0.0107
   92loPI   PO4 1460   6.494  17.635  10.497 -0.1287 -0.0006  0.0074
   92loPI   GL1 1461   6.666  17.554  10.138  0.2565 -0.1824 -0.0061
   92loPI   GL2 1462   6.681  17.922  10.126 -0.1336  0.1281  0.1034
   92loPI   C1A 1463   6.438  17.353   9.793 -0.1523  0.2371 -0.2367
   92loPI   C2A 1464   6.530  17.325   9.359  0.0947  0.1723 -0.0752
   92loPI   C3A 1465   6.403  17.305   8.949 -0.0739 -0.1541  0.0966
   92loPI   C4A 1466   6.506  17.347   8.515 -0.0924 -0.1062  0.1246
   92loPI   C5A 1467   6.369  17.316   8.111  0.2202  0.1827 -0.0143
   92loPI   C6A 1468   6.000  17.146   8.016  0.2783  0.0468 -0.0548
   92loPI   C1B 1469   6.719  17.825   9.690 -0.0860 -0.0032 -0.1548
   92loPI   C2B 1470   6.700  17.778   9.231 -0.5849 -0.0855  0.1980
   92loPI   C3B 1471   6.743  17.818   8.728  0.0164  0.0309  0.1660
   92loPI   C4B 1472   6.738  17.787   8.327  0.0188  0.3019 -0.0453
   93loPI    C1 1473  15.604  11.596  11.147  0.0430  0.2667  0.1677
   93loPI    C2 1474  15.214  11.605  11.235 -0.0404  0.0067 -0.1573
   93loPI    C3 1475  15.477  11.472  11.506 -0.2057 -0.0624 -0.0289
   93loPI   PO4 1476  15.542  11.541  10.883 -0.0374 -0.0579 -0.0088
   93loPI   GL1 1477  15.554  11.705  10.436  0.1243  0.1997 -0.1104
   93loPI   GL2 1478  15.402  11.876  10.289  0.4433 -0.1683 -0.1570
   93loPI   C1A 1479  15.611  11.357  10.134 -0.2438 -0.2346  0.0350
   93loPI   C2A 1480  15.605  11.426   9.689 -0.2052 -0.0055  0.1803
   93loPI   C3A 1481  15.569  11.433   9.258 -0.1334  0.0107  0.1348
   93loPI   C4A 1482  15.508  11.467   8.836  0.0891 -0.2438 -0.0249
   93loPI   C5A 1483  15.375  11.520   8.394 -0.0758  0.0560 -0.0642
   93loPI   C6A 1484  15.624  11.599   7.951  0.1416  0.0061 -0.0253
   93loPI   C1B 1485  15.252  11.875   9.909 -0.1376  0.1022 -0.0593
   93loPI   C2B 1486  15.250  11.926   9.529 -0.0020 -0.1103  0.1314
   93loPI   C3B 1487  15.263  11.935   9.007 -0.1175 -0.1523  0.1457
   93loPI   C4B 1488  15.285  11.977   8.514  0.3250 -0.0203  0.1930
   94loPI    C1 1489  15.926  14.877  10.709 -0.1969 -0.0943 -0.0633
   94loPI    C2 1490  16.050  14.646  11.011  0.3499  0.1785 -0.0684
   94loPI    C3 1491  15.781  14.935  11.077  0.0055 -0.1562  0.0275
   94loPI   PO4 1492  16.005  14.730  10.474  0.1216  0.1790 -0.0371
   94loPI   GL1 1493  16.225  14.776  10.086  0.2880  0.0463 -0.2587
   94loPI   GL2 1494  16.387  14.594  10.105  0.0369  0.0606  0.0775
   94loPI   C1A 1495  16.215  14.737   9.623  0.0625  0.1576  0.1584
   94loPI   C2A 1496  16.182  14.734   9.196 -0.2733  0.0408  0.1778
   94loPI   C3A 1497  16.160  14.681   8.805  0.2094  0.3418  0.2743
   94loPI   C4A 1498  16.148  14.721   8.390  0.2010  0.0139  0.1197
   94loPI   C5A 1499  16.361  14.540   8.129  0.2248  0.0470 -0.0948
   94loPI   C6A 1500  16.607  14.388   7.774 -0.0287 -0.2131 -0.1438
   94loPI   C1B 1501  16.685  14.632   9.704 -0.1777  0.2732  0.1239
   94loPI   C2B 1502  16.725  14.697   9.328 -0.2002 -0.0919  0.0403
   94loPI   C3B 1503  16.720  14.745   8.918 -0.2594 -0.0082  0.4022
   94loPI   C4B 1504  16.613  14.678   8.507 -0.0533  0.0589  0.0340
   95loPI    C1 1505  13.535  17.970  10.287 -0.2798 -0.1641  0.0074
   95loPI    C2 1506  13.802  18.045  10.575 -0.1471 -0.0676 -0.1388
   95loPI    C3 1507  13.416  18.132  10.633 -0.1305 -0.1025  0.0306
   95loPI   PO4 1508  13.650  18.091  10.089 -0.0735  0.0498  0.1717
   95loPI   GL1 1509  13.636  18.310   9.666 -0.1217  0.0707  0.1409
   95loPI   GL2 1510  13.723  18.557   9.543 -0.3229  0.0873 -0.0297
   95loPI   C1A 1511  13.580  18.337   9.158  0.1732 -0.1128  0.1002
   95loPI   C2A 1512  13.490  18.271   8.683 -0.2206 -0.1821 -0.0439
   95loPI   C3A 1513  13.482  18.229   8.214  0.2107 -0.2974  0.0995
   95loPI   C4A 1514  13.252  18.250   7.842 -0.1631  0.2301  0.1085
   95loPI   C5A 1515  13.082  18.017   7.546 -0.0938 -0.2200  0.0253
   95loPI   C6A 1516  12.629  17.975   7.388  0.2626 -0.0025 -0.0511
   95loPI   C1B 1517  13.771  18.812   9.189 -0.0932  0.0957 -0.0093
   95loPI   C2B 1518  13.715  18.764   8.871  0.1735  0.1279  0.0790
   95loPI   C3B 1519  13.563  18.751   8.375  0.0742  0.2469  0.0905
   95loPI   C4B 1520  13.540  18.744   7.914 -0.0858  0.1147  0.0296
   96loPI    C1 1521  16.490  13.806  11.010 -0.0431 -0.0815 -0.1583
   96loPI    C2 1522  16.713  13.477  10.972 -0.0714 -0.1272  0.0580
   96loPI    C3 1523  16.457  13.511  11.278  0.0318  0.1535  0.1159
   96loPI   PO4 1524  16.456  13.846  10.745 -0.2917 -0.2191 -0.0011
   96loPI   GL1 1525  16.537  13.570  10.456 -0.2538  0.1846  0.0735
   96loPI   GL2 1526  16.849  13.553  10.513  0.0372  0.3501  0.2171
   96loPI   C1A 1527  16.431  13.339  10.208 -0.2123 -0.0429  0.0231
   96loPI   C2A 1528  16.444  13.210   9.858 -0.0977  0.0932 -0.0594
   96loPI   C3A 1529  16.478  13.326   9.418 -0.2107  0.0342 -0.3274
   96loPI   C4A 1530  16.437  13.306   8.983  0.0349  0.0721 -0.1799
   96loPI   C5A 1531  16.475  13.391   8.614 -0.0396  0.2551 -0.0329
   96loPI   C6A 1532  16.908  13.452   8.361 -0.1053  0.0689 -0.2162
   96loPI   C1B 1533  16.824  13.704  10.067 -0.0173  0.1750  0.1802
   96loPI   C2B 1534  16.736  13.702   9.698 -0.2722 -0.2761  0.0147
   96loPI   C3B 1535  16.652  13.779   9.204  0.0454  0.0459  0.1196
   96loPI   C4B 1536  16.767  13.863   8.681  0.1636 -0.3021 -0.0581
   97loPI    C1 1537  16.274   4.307  10.684  0.2853 -0.1053 -0.1531
   97loPI    C2 1538  16.238   3.919  10.595 -0.1588 -0.1166  0.0516
   97loPI    C3 1539  16.083   4.062  10.935 -0.1849  0.2788 -0.1211
   97loPI   PO4 1540  16.182   4.421  10.490 -0.3351 -0.1395  0.1530
   97loPI   GL1 1541  16.148   4.229  10.164 -0.2692  0.1346  0.0105
   97loPI   GL2 1542  16.004   3.865  10.164  0.0854 -0.0476  0.1013
   97loPI   C1A 1543  16.132   4.259   9.839 -0.2125 -0.5120 -0.0875
   97loPI   C2A 1544  16.067   4.316   9.355  0.1304 -0.3091  0.0740
   97loPI   C3A 1545  16.043   4.440   8.891  0.1785  0.1101  0.4236
   97loPI   C4A 1546  15.973   4.502   8.468  0.0263  0.1025 -0.0640
   97loPI   C5A 1547  16.132   4.510   8.052  0.0780 -0.1456 -0.0249
   97loPI   C6A 1548  16.399   4.919   7.915  0.1339  0.1677  0.0020
   97loPI   C1B 1549  15.829   3.897   9.643 -0.0369  0.1137  0.1287
   97loPI   C2B 1550  15.820   3.836   9.315 -0.0574  0.0148 -0.0545
   97loPI   C3B 1551  15.766   3.898   8.969 -0.0295  0.0506  0.3196
   97loPI   C4B 1552  15.775   3.998   8.538 -0.1961  0.0177 -0.0436
   98loPI    C1 1553  17.184   4.947  10.788  0.1341 -0.1027  0.1250
   98loPI    C2 1554  16.859   4.860  11.003  0.0210 -0.0396 -0.0183
   98loPI    C3 1555  17.217   4.879  11.181 -0.0629 -0.0398  0.1535
   98loPI   PO4 1556  17.083   4.929  10.547  0.0768  0.0228  0.2849
   98loPI   GL1 1557  16.914   4.727  10.207  0.0234 -0.0420  0.0464
   98loPI   GL2 1558  16.556   4.564  10.102 -0.1870 -0.0065  0.1946
   98loPI   C1A 1559  16.888   4.751   9.768  0.1172  0.3034  0.0127
   98loPI   C2A 1560  16.687   4.835   9.425  0.1667  0.1326  0.1530
   98loPI   C3A 1561  16.867   4.866   9.042 -0.2016  0.1371  0.0745
   98loPI   C4A 1562  16.718   4.940   8.716 -0.1086  0.0040  0.1247
   98loPI   C5A 1563  16.882   5.061   8.311 -0.0609 -0.1485  0.0147
   98loPI   C6A 1564  16.678   5.353   7.915  0.1373  0.1848 -0.2212
   98loPI   C1B 1565  16.552   4.355   9.640 -0.1219  0.2908  0.1075
   98loPI   C2B 1566  16.592   4.367   9.247  0.1959 -0.1556  0.1352
   98loPI   C3B 1567  16.535   4.461   8.828 -0.1831 -0.0453  0.1083
   98loPI   C4B 1568  16.456   4.605   8.404 -0.1601 -0.1624  0.3051
   99loPI    C1 1569  17.562  14.799  10.827  0.0651 -0.0127  0.0172
   99loPI    C2 1570  17.340  15.095  10.980 -0.0934 -0.0246 -0.1849
   99loPI    C3 1571  17.645  14.943  11.191 -0.0849  0.2010 -0.0313
   99loPI   PO4 1572  17.573  14.842  10.637  0.0554  0.1279  0.1677
   99loPI   GL1 1573  17.793  14.633  10.220  0.1781  0.0214  0.1189
   99loPI   GL2 1574  18.040  14.397  10.190 -0.0882  0.1669  0.0326
   99loPI   C1A 1575  17.763  14.688   9.815  0.0175 -0.1539  0.2270
   99loPI   C2A 1576  17.787  14.710   9.389  0.2830 -0.2399 -0.1999
   99loPI   C3A 1577  17.700  14.711   8.980 -0.2577 -0.0231 -0.1267
   99loPI   C4A 1578  17.663  14.734   8.563  0.1472  0.2295  0.2315
   99loPI   C5A 1579  17.867  14.668   8.249 -0.1129 -0.2078  0.0876
   99loPI   C6A 1580  18.004  14.690   7.812  0.1003  0.1531  0.0743
   99loPI   C1B 1581  18.002  14.160   9.779  0.1026 -0.1937  0.0544
   99loPI   C2B 1582  17.988  14.263   9.360  0.0106  0.3415 -0.2414
   99loPI   C3B 1583  18.015  14.303   8.949 -0.4271  0.1613 -0.1586
   99loPI   C4B 1584  18.033  14.229   8.526 -0.0470 -0.1915  0.5098
  100loPI    C1 1585   7.849   9.665  11.311 -0.3403  0.0470  0.1333
  100loPI    C2 1586   7.839   9.331  11.532  0.0827 -0.1087 -0.0708
  100loPI    C3 1587   7.821   9.689  11.709 -0.3430 -0.2341  0.1525
  100loPI   PO4 1588   7.725   9.640  11.173 -0.0133 -0.1411 -0.0623
  100loPI   GL1 1589   7.526   9.375  10.826 -0.0297 -0.0367 -0.3109
  100loPI   GL2 1590   7.346   9.218  10.681  0.1470  0.0282 -0.2382
  100loPI   C1A 1591   7.726   9.413  10.426 -0.3223 -0.0451  0.0589
  100loPI   C2A 1592   7.497   9.332   9.974 -0.3589  0.1676  0.1655
  100loPI   C3A 1593   7.476   9.275   9.655 -0.2399 -0.2067  0.0762
  100loPI   C4A 1594   7.499   9.283   9.277  0.0814 -0.1641  0.0622
  100loPI   C5A 1595   7.380   9.411   8.871 -0.2150 -0.1280  0.0530
  100loPI   C6A 1596   7.334   9.440   8.407  0.1204  0.2827 -0.0510
  100loPI   C1B 1597   7.115   9.324  10.297 -0.0229  0.2458  0.0589
  100loPI   C2B 1598   6.939   9.189   9.915 -0.1496 -0.1531 -0.0453
  100loPI   C3B 1599   6.925   9.251   9.566  0.0149  0.0372 -0.1169
  100loPI   C4B 1600   6.919   9.397   9.097 -0.4912  0.1970  0.1326
  101loPI    C1 1601   7.461   9.990  11.419 -0.0421  0.1390 -0.0651
  101loPI    C2 1602   7.790  10.199  11.511  0.1092 -0.2002  0.1864
  101loPI    C3 1603   7.496  10.159  11.780 -0.1653  0.1407 -0.0535
  101loPI   PO4 1604   7.393  10.067  11.143 -0.1134 -0.0784  0.0995
  101loPI   GL1 1605   7.500  10.136  10.746  0.1460  0.0369  0.0106
  101loPI   GL2 1606   7.434   9.856  10.689 -0.1320 -0.0820  0.0316
  101loPI   C1A 1607   7.499  10.204  10.377  0.1500 -0.2310  0.2344
  101loPI   C2A 1608   7.438  10.240   9.951 -0.0804  0.1411  0.1212
  101loPI   C3A 1609   7.436  10.197   9.574  0.3254  0.0985  0.1309
  101loPI   C4A 1610   7.474  10.217   9.176 -0.0793 -0.1108  0.2497
  101loPI   C5A 1611   7.487  10.262   8.727 -0.1391 -0.2615 -0.2005
  101loPI   C6A 1612   7.485   9.975   8.453  0.0365 -0.0755  0.2937
  101loPI   C1B 1613   7.300   9.761  10.288  0.0499 -0.2174  0.1742
  101loPI   C2B 1614   7.263   9.785   9.847  0.0224 -0.0641 -0.0414
  101loPI   C3B 1615   7.262   9.672   9.402 -0.1010  0.2327 -0.1209
  101loPI   C4B 1616   7.161   9.805   8.978 -0.0932 -0.1521  0.1438
  102loPI    C1 1617   8.342  15.095  11.187  0.0599 -0.0770 -0.2876
  102loPI    C2 1618   8.639  15.137  11.451 -0.0822 -0.1382 -0.1159
  102loPI    C3 1619   8.444  15.459  11.319 -0.3239 -0.1414  0.2196
  102loPI   PO4 1620   8.435  15.004  10.976 -0.2417  0.0144  0.1191
  102loPI   GL1 1621   8.403  14.925  10.535 -0.0792  0.0333 -0.0985
  102loPI   GL2 1622   8.694  14.995  10.340 -0.2059 -0.0429 -0.0623
  102loPI   C1A 1623   8.290  14.801  10.125 -0.0502  0.2991  0.1011
  102loPI   C2A 1624   8.186  14.767   9.650  0.1545  0.1688 -0.1506
  102loPI   C3A 1625   8.207  14.710   9.244 -0.0447  0.0741  0.4045
  102loPI   C4A 1626   8.147  14.727   8.799 -0.2446  0.2424 -0.2713
  102loPI   C5A 1627   8.285  14.675   8.426  0.0120  0.2609 -0.0498
  102loPI   C6A 1628   8.370  14.786   8.082  0.0159 -0.2210  0.0693
  102loPI   C1B 1629   8.774  14.887   9.955  0.5793  0.2322  0.3660
  102loPI   C2B 1630   8.772  14.761   9.612  0.1002 -0.1467 -0.0284
  102loPI   C3B 1631   8.663  14.726   9.212  0.0846 -0.2728  0.2543
  102loPI   C4B 1632   8.717  14.678   8.720  0.3784  0.2148 -0.1878
  103loPI    C1 1633   8.958  12.752  11.161 -0.0399  0.2879 -0.0234
  103loPI    C2 1634   8.718  12.606  11.445 -0.0032 -0.0249 -0.1489
  103loPI    C3 1635   9.111  12.638  11.513 -0.0208  0.0850 -0.0961
  103loPI   PO4 1636   8.912  12.631  10.901 -0.0573 -0.2054  0.2341
  103loPI   GL1 1637   9.079  12.501  10.467  0.1009  0.1402 -0.1514
  103loPI   GL2 1638   9.246  12.601  10.222 -0.0514 -0.3347  0.0364
  103loPI   C1A 1639   8.899  12.238  10.113  0.0054 -0.0923 -0.1201
  103loPI   C2A 1640   8.935  12.116   9.757 -0.0435  0.0469 -0.2404
  103loPI   C3A 1641   8.829  12.123   9.354 -0.0946 -0.2718  0.0661
  103loPI   C4A 1642   8.905  12.104   9.010  0.1296 -0.0438 -0.3837
  103loPI   C5A 1643   8.888  12.095   8.617 -0.1321 -0.1939  0.0124
  103loPI   C6A 1644   8.695  12.268   8.213 -0.0452 -0.1790 -0.0614
  103loPI   C1B 1645   9.183  12.668   9.808  0.1409 -0.0052  0.0232
  103loPI   C2B 1646   9.038  12.606   9.416  0.0767  0.0686 -0.0202
  103loPI   C3B 1647   9.108  12.577   8.946 -0.2806 -0.1450  0.1014
  103loPI   C4B 1648   9.165  12.510   8.453 -0.1722 -0.2500 -0.1675
  104loPI    C1 1649   0.888  13.693  11.217 -0.1145 -0.1163  0.0893
  104loPI    C2 1650   1.046  14.031  11.362 -0.2313 -0.0121 -0.0236
  104loPI    C3 1651   0.963  13.727  11.609  0.2937 -0.1322  0.0172
  104loPI   PO4 1652   1.050  13.634  10.991  0.0547  0.1160  0.2711
  104loPI   GL1 1653   0.948  13.715  10.589 -0.0098  0.2319 -0.0260
  104loPI   GL2 1654   1.341  13.754  10.536 -0.3008 -0.1761 -0.0951
  104loPI   C1A 1655   1.019  13.473  10.220 -0.0578 -0.0913 -0.3155
  104loPI   C2A 1656   1.096  13.459   9.767  0.0789  0.0174  0.1585
  104loPI   C3A 1657   0.980  13.505   9.280 -0.0710 -0.0229 -0.1479
  104loPI   C4A 1658   0.932  13.527   8.805  0.2819 -0.1162 -0.2072
  104loPI   C5A 1659   0.848  13.720   8.455 -0.2359 -0.0905 -0.0442
  104loPI   C6A 1660   0.771  14.042   8.300  0.0943 -0.0738 -0.0470
  104loPI   C1B 1661   1.297  13.893  10.165  0.3475 -0.0475 -0.0218
  104loPI   C2B 1662   1.337  13.950   9.720  0.5102  0.2157  0.0087
  104loPI   C3B 1663   1.309  13.950   9.274 -0.1411  0.3327  0.0750
  104loPI   C4B 1664   1.260  13.914   8.788  0.1247  0.1982 -0.1864
  105loPI    C1 1665   3.687  15.609  11.021  0.1953 -0.0809  0.1386
  105loPI    C2 1666   3.368  15.372  11.071  0.2730 -0.2235 -0.0309
  105loPI    C3 1667   3.566  15.511  11.389 -0.1618  0.1485  0.0881
  105loPI   PO4 1668   3.643  15.836  10.803  0.1534  0.0398 -0.1978
  105loPI   GL1 1669   3.734  15.785  10.373 -0.4160  0.3020 -0.0113
  105loPI   GL2 1670   3.626  16.059  10.311 -0.0498 -0.2913  0.0668
  105loPI   C1A 1671   3.771  15.735   9.910  0.0836  0.1186 -0.4797
  105loPI   C2A 1672   3.683  15.736   9.556  0.3392  0.0896 -0.1674
  105loPI   C3A 1673   3.702  15.833   9.069 -0.1266  0.0186 -0.0887
  105loPI   C4A 1674   3.739  15.908   8.634  0.1103  0.1137  0.1880
  105loPI   C5A 1675   3.930  15.729   8.265 -0.1277  0.2389 -0.0023
  105loPI   C6A 1676   4.181  15.981   7.916 -0.3120  0.1202 -0.1776
  105loPI   C1B 1677   3.428  16.221   9.847  0.0788 -0.2082  0.2699
  105loPI   C2B 1678   3.491  16.213   9.458  0.0160  0.1757 -0.0211
  105loPI   C3B 1679   3.409  16.307   9.078  0.2800 -0.0974  0.1107
  105loPI   C4B 1680   3.469  16.336   8.561 -0.5152  0.0424 -0.2442
  106loPI    C1 1681   3.039   9.988  10.889 -0.1509  0.0607  0.0525
  106loPI    C2 1682   3.105  10.245  11.188 -0.1241  0.0552  0.0513
  106loPI    C3 1683   3.208   9.861  11.228  0.3401  0.1514 -0.1488
  106loPI   PO4 1684   3.127  10.071  10.639 -0.0791 -0.0303 -0.0240
  106loPI   GL1 1685   3.044   9.760  10.370  0.0221 -0.0399 -0.0745
  106loPI   GL2 1686   3.180   9.415  10.380  0.1176 -0.0407  0.2284
  106loPI   C1A 1687   2.849   9.888  10.067  0.3043 -0.0439  0.1698
  106loPI   C2A 1688   2.732   9.963   9.652  0.0828 -0.1286  0.0651
  106loPI   C3A 1689   2.823   9.980   9.230 -0.0669  0.0837 -0.0059
  106loPI   C4A 1690   2.820   9.942   8.809 -0.0466 -0.2203 -0.1343
  106loPI   C5A 1691   2.824  10.035   8.459 -0.1147 -0.2679 -0.1743
  106loPI   C6A 1692   2.703  10.040   7.981 -0.1690 -0.1314 -0.3161
  106loPI   C1B 1693   3.143   9.440   9.938 -0.0147  0.0097  0.2313
  106loPI   C2B 1694   3.100   9.483   9.587  0.0931 -0.1450  0.1614
  106loPI   C3B 1695   3.075   9.564   9.106 -0.1206  0.0206  0.0271
  106loPI   C4B 1696   3.102   9.460   8.695 -0.1421  0.0031 -0.2588
  107loPI    C1 1697   1.096   7.652  11.248 -0.0610 -0.2527  0.1024
  107loPI    C2 1698   0.726   7.546  11.356 -0.1881 -0.1360 -0.2062
  107loPI    C3 1699   0.888   7.883  11.500 -0.1786 -0.2160 -0.0269
  107loPI   PO4 1700   1.122   7.611  10.997  0.5617 -0.0198  0.0099
  107loPI   GL1 1701   1.455   7.515  10.734 -0.1668  0.0962 -0.2818
  107loPI   GL2 1702   1.377   7.276  10.514 -0.0054 -0.1667  0.0724
  107loPI   C1A 1703   1.550   7.779  10.315 -0.0036  0.0771 -0.2856
  107loPI   C2A 1704   1.710   7.724   9.880 -0.0418  0.0483 -0.0089
  107loPI   C3A 1705   1.687   7.634   9.485 -0.0822  0.0405  0.2252
  107loPI   C4A 1706   1.607   7.666   9.104  0.0745 -0.0042 -0.0931
  107loPI   C5A 1707   1.613   7.728   8.622 -0.3280  0.0098  0.2321
  107loPI   C6A 1708   1.879   7.649   8.229 -0.2656  0.1753  0.0341
  107loPI   C1B 1709   1.455   7.300  10.070  0.1323  0.0249 -0.3156
  107loPI   C2B 1710   1.414   7.258   9.654 -0.3354  0.2097 -0.1929
  107loPI   C3B 1711   1.337   7.238   9.321 -0.2399  0.1472  0.0101
  107loPI   C4B 1712   1.360   7.306   8.836 -0.1652 -0.3033 -0.4744
  108loPI    C1 1713  11.686   9.646  11.177  0.2034 -0.3685  0.0229
  108loPI    C2 1714  11.532   9.311  11.332 -0.0183 -0.1821  0.2137
  108loPI    C3 1715  11.413   9.668  11.469  0.0466 -0.0189 -0.1435
  108loPI   PO4 1716  11.733   9.616  10.958  0.0824  0.1095 -0.2615
  108loPI   GL1 1717  11.755   9.476  10.487 -0.3891 -0.1565  0.2752
  108loPI   GL2 1718  11.536   9.722  10.500 -0.0705  0.2094 -0.0331
  108loPI   C1A 1719  11.858   9.220  10.158  0.0894 -0.2203  0.3279
  108loPI   C2A 1720  11.851   9.072   9.702  0.0039 -0.0277  0.0045
  108loPI   C3A 1721  11.940   8.936   9.291 -0.0412 -0.0501  0.0848
  108loPI   C4A 1722  11.800   8.978   8.714  0.1013  0.0941  0.0282
  108loPI   C5A 1723  11.789   9.261   8.348  0.2120 -0.0319 -0.3568
  108loPI   C6A 1724  11.758   9.756   8.193 -0.1065  0.2030  0.0209
  108loPI   C1B 1725  11.636   9.621  10.051 -0.3458  0.2350 -0.2021
  108loPI   C2B 1726  11.543   9.526   9.636  0.1622  0.0138  0.0585
  108loPI   C3B 1727  11.513   9.445   9.295 -0.0202  0.0360  0.2984
  108loPI   C4B 1728  11.539   9.470   8.816  0.0394  0.2386 -0.0597
  109loPI    C1 1729  11.450   4.250  11.116 -0.0236  0.2985  0.1584
  109loPI    C2 1730  11.170   3.964  11.126 -0.0174  0.2809 -0.0950
  109loPI    C3 1731  11.275   4.153  11.463 -0.0730  0.0358  0.0627
  109loPI   PO4 1732  11.508   4.169  10.876 -0.1796  0.3284 -0.1723
  109loPI   GL1 1733  11.490   4.388  10.382 -0.1437  0.2142 -0.1373
  109loPI   GL2 1734  11.471   4.057  10.269 -0.1317 -0.2476  0.1714
  109loPI   C1A 1735  11.654   4.607  10.059 -0.3095  0.0905  0.1138
  109loPI   C2A 1736  11.730   4.603   9.620  0.2074  0.1526 -0.1546
  109loPI   C3A 1737  11.745   4.533   9.271 -0.0442 -0.1455 -0.2112
  109loPI   C4A 1738  11.703   4.543   8.851  0.0533 -0.1136  0.2012
  109loPI   C5A 1739  11.614   4.753   8.455  0.0333  0.0924 -0.0754
  109loPI   C6A 1740  11.691   5.038   8.063  0.1174 -0.0241  0.1648
  109loPI   C1B 1741  11.568   4.154   9.924  0.2678  0.3638 -0.0312
  109loPI   C2B 1742  11.452   4.178   9.548  0.1602  0.4361  0.2242
  109loPI   C3B 1743  11.471   4.095   9.042 -0.0217 -0.0238  0.1334
  109loPI   C4B 1744  11.407   4.182   8.577  0.2064  0.1878  0.2077
  110loPI    C1 1745  11.849  12.865  10.974  0.0447  0.3389 -0.0560
  110loPI    C2 1746  11.987  12.738  11.328  0.2408  0.2690 -0.1559
  110loPI    C3 1747  11.814  13.098  11.298 -0.4233 -0.0063  0.1536
  110loPI   PO4 1748  12.031  12.668  10.767  0.3337  0.0062 -0.1991
  110loPI   GL1 1749  11.949  12.390  10.442 -0.0398  0.1516 -0.2502
  110loPI   GL2 1750  11.990  12.200  10.213  0.2091 -0.0589  0.0033
  110loPI   C1A 1751  12.166  12.631  10.010 -0.0305  0.2336 -0.2409
  110loPI   C2A 1752  12.142  12.693   9.537 -0.1564  0.0475  0.0272
  110loPI   C3A 1753  12.102  12.691   9.082 -0.0629 -0.2750  0.0408
  110loPI   C4A 1754  12.328  12.581   8.700  0.4823  0.0399  0.1014
  110loPI   C5A 1755  12.452  12.477   8.185 -0.0760 -0.4089  0.2310
  110loPI   C6A 1756  12.319  12.625   7.829  0.1698  0.0785  0.1191
  110loPI   C1B 1757  11.990  12.258   9.807  0.2626 -0.1168  0.0260
  110loPI   C2B 1758  11.979  12.210   9.398  0.0765  0.3497 -0.2628
  110loPI   C3B 1759  11.865  12.190   8.985  0.0400 -0.1344  0.2091
  110loPI   C4B 1760  11.926  12.293   8.565 -0.0361 -0.3270  0.2635
  111loPI    C1 1761  11.315   8.413  10.784 -0.0332  0.0077  0.0535
  111loPI    C2 1762  10.924   8.375  10.856 -0.0256 -0.0715  0.0534
  111loPI    C3 1763  11.158   8.563  11.120 -0.0581 -0.0531  0.0692
  111loPI   PO4 1764  11.349   8.465  10.598  0.2027  0.1872 -0.2327
  111loPI   GL1 1765  11.273   8.533  10.212  0.0639 -0.1328  0.2095
  111loPI   GL2 1766  11.001   8.667  10.251 -0.0676  0.1799 -0.0079
  111loPI   C1A 1767  11.146   8.514   9.795 -0.2228  0.1068 -0.0191
  111loPI   C2A 1768  11.016   8.517   9.344  0.2116  0.1246 -0.1778
  111loPI   C3A 1769  11.072   8.565   8.951 -0.3840  0.2107 -0.0475
  111loPI   C4A 1770  11.006   8.558   8.568  0.0658 -0.1780  0.1234
  111loPI   C5A 1771  11.183   8.704   8.145 -0.2803 -0.1714 -0.1772
  111loPI   C6A 1772  10.976   8.744   7.761  0.5783  0.4127  0.0036
  111loPI   C1B 1773  10.898   8.946   9.938 -0.2352  0.0643  0.1336
  111loPI   C2B 1774  10.758   9.038   9.448 -0.0119  0.0352  0.0079
  111loPI   C3B 1775  10.744   9.026   8.966 -0.0588 -0.2039  0.2064
  111loPI   C4B 1776  10.847   9.075   8.480  0.1635  0.1179  0.0284
  112loPI    C1 1777   9.690   0.817  11.142  0.0682 -0.1145  0.0449
  112loPI    C2 1778   9.895   1.155  11.202 -0.1107  0.0171 -0.0751
  112loPI    C3 1779   9.551   1.092  11.397 -0.1098 -0.0676 -0.1002
  112loPI   PO4 1780   9.660   0.811  10.886 -0.0998 -0.0411  0.2278
  112loPI   GL1 1781   9.595   0.798  10.440  0.0508 -0.1801  0.1705
  112loPI   GL2 1782   9.406   1.065  10.518 -0.0982  0.0174  0.2044
  112loPI   C1A 1783   9.428   0.797  10.018 -0.1925  0.1158  0.1091
  112loPI   C2A 1784   9.258   0.790   9.603 -0.0460  0.2069 -0.0345
  112loPI   C3A 1785   9.291   0.842   9.182  0.1946 -0.2388 -0.1591
  112loPI   C4A 1786   9.312   0.824   8.715  0.2676  0.1536  0.0355
  112loPI   C5A 1787   9.163   0.720   8.352  0.2084  0.0373  0.1349
  112loPI   C6A 1788   8.773   0.685   8.198 -0.4659  0.0959  0.1256
  112loPI   C1B 1789   9.651   1.250  10.153 -0.0622 -0.0716  0.0294
  112loPI   C2B 1790   9.529   1.198   9.757 -0.0863 -0.2530 -0.0924
  112loPI   C3B 1791   9.529   1.277   9.338 -0.1634  0.0474  0.3235
  112loPI   C4B 1792   9.502   1.296   8.923  0.4349  0.1068  0.2473
  113loPI    C1 1793   6.336  11.881  11.463  0.2181  0.0653  0.0769
  113loPI    C2 1794   6.006  11.723  11.623  0.0025  0.1978 -0.2284
  113loPI    C3 1795   6.177  12.042  11.792  0.1388 -0.0385  0.0897
  113loPI   PO4 1796   6.322  11.753  11.197  0.0385 -0.3929  0.0494
  113loPI   GL1 1797   6.449  11.836  10.769  0.0454 -0.0443 -0.0074
  113loPI   GL2 1798   6.122  11.748  10.750 -0.2053  0.0168  0.1941
  113loPI   C1A 1799   6.515  12.117  10.518  0.0684 -0.3569 -0.0579
  113loPI   C2A 1800   6.361  11.948  10.185 -0.1202  0.0510 -0.1608
  113loPI   C3A 1801   6.419  11.990   9.735 -0.0839  0.2179 -0.0359
  113loPI   C4A 1802   6.347  11.899   9.334 -0.1303 -0.1548  0.2250
  113loPI   C5A 1803   6.378  11.982   8.927 -0.0287 -0.3058 -0.0403
  113loPI   C6A 1804   6.493  12.105   8.450  0.1407 -0.1143 -0.0941
  113loPI   C1B 1805   6.197  11.513  10.382  0.1310 -0.3068  0.0156
  113loPI   C2B 1806   6.162  11.451   9.874  0.0302 -0.3946  0.1194
  113loPI   C3B 1807   6.100  11.467   9.444 -0.0545 -0.0054 -0.2728
  113loPI   C4B 1808   6.155  11.534   8.976 -0.2371  0.2107  0.4218
  114loPI    C1 1809   9.926  17.929  10.945  0.3411  0.1774 -0.0645
  114loPI    C2 1810  10.164  17.990  11.261  0.1311 -0.1058  0.1533
  114loPI    C3 1811   9.767  17.974  11.309  0.0929 -0.0867 -0.1369
  114loPI   PO4 1812   9.860  18.039  10.800 -0.0091 -0.2878 -0.0997
  114loPI   GL1 1813   9.865  18.165  10.319 -0.1186  0.1964 -0.0286
  114loPI   GL2 1814   9.578  18.248  10.463 -0.0651 -0.1074 -0.1510
  114loPI   C1A 1815   9.654  18.424  10.021  0.1117 -0.0442  0.2775
  114loPI   C2A 1816   9.524  18.429   9.652  0.0254  0.1435 -0.0351
  114loPI   C3A 1817   9.534  18.510   9.167  0.1742 -0.1428  0.0754
  114loPI   C4A 1818   9.474  18.419   8.755  0.2133 -0.1482  0.1341
  114loPI   C5A 1819   9.545  18.378   8.394  0.1916 -0.3129  0.1954
  114loPI   C6A 1820   9.274  18.365   8.038 -0.0594 -0.0437 -0.0044
  114loPI   C1B 1821   9.384  18.006  10.078  0.0332  0.2057  0.0392
  114loPI   C2B 1822   9.305  18.005   9.557  0.1436  0.3444  0.2768
  114loPI   C3B 1823   9.257  18.126   9.098 -0.0989 -0.1674 -0.1055
  114loPI   C4B 1824   9.338  17.957   8.700 -0.2899  0.2629  0.0376
  115loPI    C1 1825  11.794  12.019  10.806  0.0051 -0.1895 -0.0765
  115loPI    C2 1826  11.847  12.305  11.080  0.3038 -0.1138 -0.2090
  115loPI    C3 1827  11.702  11.948  11.189  0.1399  0.0117 -0.0055
  115loPI   PO4 1828  11.617  12.072  10.588  0.0153 -0.0206  0.0472
  115loPI   GL1 1829  11.496  12.159  10.187 -0.2854 -0.2485 -0.0066
  115loPI   GL2 1830  11.605  12.516  10.129  0.1080 -0.3420  0.0913
  115loPI   C1A 1831  11.436  12.128   9.823 -0.0687  0.0588  0.1246
  115loPI   C2A 1832  11.431  12.220   9.302 -0.3198  0.3449  0.2414
  115loPI   C3A 1833  11.377  12.199   8.852 -0.0416  0.0151 -0.0139
  115loPI   C4A 1834  11.455  12.120   8.322 -0.3192 -0.1765  0.0924
  115loPI   C5A 1835  11.735  12.120   8.028 -0.0643  0.1250 -0.1976
  115loPI   C6A 1836  11.894  12.410   7.690  0.0806 -0.0195 -0.1587
  115loPI   C1B 1837  11.671  12.655   9.673 -0.1279  0.0817  0.1338
  115loPI   C2B 1838  11.637  12.671   9.239  0.1174 -0.1212 -0.1273
  115loPI   C3B 1839  11.613  12.668   8.900  0.1876 -0.1339  0.0404
  115loPI   C4B 1840  11.526  12.670   8.450 -0.0416  0.0063 -0.1360
  116loPI    C1 1841  11.267  14.749  10.961  0.2214  0.0729  0.0861
  116loPI    C2 1842  11.239  14.556  11.310 -0.0425  0.1843  0.1289
  116loPI    C3 1843  11.466  14.884  11.281 -0.0002  0.1606  0.1887
  116loPI   PO4 1844  11.146  14.739  10.801  0.0622  0.1715 -0.4257
  116loPI   GL1 1845  11.045  14.822  10.398 -0.1477  0.1370  0.1371
  116loPI   GL2 1846  11.100  14.592  10.174 -0.0326  0.0112 -0.2015
  116loPI   C1A 1847  10.931  14.967  10.048  0.0300 -0.1084  0.1517
  116loPI   C2A 1848  10.836  14.864   9.684  0.2514  0.0464 -0.1200
  116loPI   C3A 1849  10.833  14.858   9.278 -0.0632  0.3062  0.0387
  116loPI   C4A 1850  10.798  14.852   8.908  0.2644  0.2045  0.0451
  116loPI   C5A 1851  10.676  14.917   8.468 -0.2878  0.1474 -0.0409
  116loPI   C6A 1852  10.241  14.962   8.191 -0.1803  0.2538 -0.0203
  116loPI   C1B 1853  11.150  14.498   9.718  0.1177 -0.3161  0.2129
  116loPI   C2B 1854  11.058  14.424   9.264 -0.2195 -0.1630  0.1822
  116loPI   C3B 1855  11.040  14.443   8.784  0.0668 -0.1885 -0.0082
  116loPI   C4B 1856  10.961  14.470   8.344  0.3824  0.0317  0.1914
  117loPI    C1 1857   5.242   7.752  11.349  0.0737  0.4018  0.0869
  117loPI    C2 1858   5.469   7.527  11.589  0.0238  0.1022 -0.1396
  117loPI    C3 1859   5.122   7.674  11.722  0.1309  0.1784  0.0605
  117loPI   PO4 1860   5.350   7.668  11.084  0.1308  0.1296 -0.1331
  117loPI   GL1 1861   5.160   7.662  10.710 -0.2579  0.0144  0.0128
  117loPI   GL2 1862   5.103   8.018  10.635 -0.0945 -0.1386  0.3111
  117loPI   C1A 1863   5.260   7.739  10.233 -0.2869  0.0643  0.2633
  117loPI   C2A 1864   5.222   7.797   9.779 -0.1374  0.0858 -0.0667
  117loPI   C3A 1865   5.288   7.847   9.326 -0.1721 -0.0368 -0.2873
  117loPI   C4A 1866   5.148   7.895   8.942 -0.0721 -0.1079  0.0425
  117loPI   C5A 1867   5.242   7.851   8.549 -0.0235  0.0292  0.4202
  117loPI   C6A 1868   5.263   7.542   8.263 -0.0236 -0.3029  0.2612
  117loPI   C1B 1869   5.029   8.196  10.196  0.0451  0.0032 -0.5338
  117loPI   C2B 1870   4.940   8.197   9.814  0.1855 -0.3123  0.1126
  117loPI   C3B 1871   4.912   8.247   9.383  0.0032  0.1971 -0.1770
  117loPI   C4B 1872   4.864   8.367   8.957 -0.0140  0.1983 -0.1164
  118loPI    C1 1873  13.574   5.411  11.304  0.1139 -0.0263  0.1232
  118loPI    C2 1874  13.294   5.281  11.558  0.0220  0.1215  0.0988
  118loPI    C3 1875  13.668   5.143  11.585 -0.0057  0.0771  0.2631
  118loPI   PO4 1876  13.417   5.408  11.065  0.0074  0.1413 -0.1755
  118loPI   GL1 1877  13.356   5.656  10.566  0.1274  0.3238  0.1779
  118loPI   GL2 1878  13.269   5.864  10.299  0.1022 -0.1680  0.0831
  118loPI   C1A 1879  13.524   5.539  10.074 -0.1956  0.2795 -0.0371
  118loPI   C2A 1880  13.656   5.622   9.620 -0.0715  0.2096  0.1442
  118loPI   C3A 1881  13.641   5.603   9.256  0.0132 -0.0557 -0.2523
  118loPI   C4A 1882  13.663   5.569   8.835 -0.0111 -0.0929 -0.0220
  118loPI   C5A 1883  13.687   5.584   8.408  0.0372  0.1885  0.0119
  118loPI   C6A 1884  13.479   5.780   8.026  0.0017 -0.3160 -0.4051
  118loPI   C1B 1885  13.302   6.006   9.864 -0.3159  0.1561 -0.2682
  118loPI   C2B 1886  13.333   6.062   9.458  0.0144  0.0446 -0.1065
  118loPI   C3B 1887  13.386   6.009   8.970  0.0551 -0.3688 -0.0682
  118loPI   C4B 1888  13.326   6.052   8.491 -0.1925 -0.1619  0.0837
  119loPI    C1 1889   3.431   8.402  11.199  0.0290  0.1974  0.0496
  119loPI    C2 1890   3.359   8.495  11.581 -0.0841  0.2021  0.0272
  119loPI    C3 1891   3.714   8.581  11.418  0.0318  0.0307  0.1847
  119loPI   PO4 1892   3.179   8.437  11.065  0.0350 -0.2014  0.2435
  119loPI   GL1 1893   3.066   8.398  10.572 -0.2597 -0.0746 -0.0517
  119loPI   GL2 1894   3.029   8.183  10.378 -0.1542 -0.0238 -0.1886
  119loPI   C1A 1895   3.231   8.614  10.174 -0.2376  0.0446 -0.0566
  119loPI   C2A 1896   3.177   8.617   9.729 -0.0917 -0.1005  0.0995
  119loPI   C3A 1897   3.020   8.656   9.419 -0.0069 -0.0267 -0.3912
  119loPI   C4A 1898   3.144   8.698   9.003  0.1103  0.2660  0.3157
  119loPI   C5A 1899   3.170   8.679   8.582 -0.0778  0.1361  0.0172
  119loPI   C6A 1900   3.222   8.997   8.302 -0.0514  0.0686 -0.0349
  119loPI   C1B 1901   3.011   8.209   9.958  0.0658 -0.2598 -0.1835
  119loPI   C2B 1902   2.952   8.147   9.542 -0.3896  0.0795 -0.0086
  119loPI   C3B 1903   2.836   8.226   9.083 -0.0220 -0.1094 -0.3336
  119loPI   C4B 1904   2.953   8.252   8.693 -0.0730  0.0498  0.1530
  120loPI    C1 1905   3.952  13.119  11.392  0.1396 -0.0073  0.2343
  120loPI    C2 1906   3.649  12.894  11.525  0.0268 -0.0528 -0.0891
  120loPI    C3 1907   3.976  12.943  11.750 -0.2770  0.1175  0.3296
  120loPI   PO4 1908   3.956  13.042  11.154 -0.1094 -0.0392 -0.0841
  120loPI   GL1 1909   3.894  13.110  10.729 -0.1070 -0.1518  0.0079
  120loPI   GL2 1910   3.985  12.829  10.697  0.2584 -0.3252  0.0176
  120loPI   C1A 1911   3.933  13.223  10.330 -0.2733 -0.1506 -0.1921
  120loPI   C2A 1912   3.965  13.139   9.883  0.1365 -0.1186  0.0997
  120loPI   C3A 1913   3.903  13.158   9.453  0.1450 -0.1234 -0.1985
  120loPI   C4A 1914   3.776  13.165   9.072 -0.0513 -0.1021  0.2949
  120loPI   C5A 1915   3.754  13.198   8.636 -0.0274  0.1509  0.1509
  120loPI   C6A 1916   3.561  13.432   8.311 -0.0569  0.2695  0.0834
  120loPI   C1B 1917   4.097  12.724  10.254 -0.0216  0.0389 -0.1015
  120loPI   C2B 1918   4.178  12.709   9.868 -0.2309  0.2660  0.0393
  120loPI   C3B 1919   4.038  12.677   9.463 -0.0579  0.1407 -0.3960
  120loPI   C4B 1920   4.004  12.702   8.995  0.2121 -0.0479  0.1159
  121loPI    C1 1921   4.454  10.812  10.950 -0.0374  0.0592 -0.2695
  121loPI    C2 1922   4.634  11.151  10.838 -0.1065  0.1158 -0.2103
  121loPI    C3 1923   4.590  11.067  11.226 -0.3055  0.1554 -0.2234
  121loPI   PO4 1924   4.230  10.854  10.801 -0.2335 -0.1853 -0.0109
  121loPI   GL1 1925   4.287  10.963  10.350  0.0392 -0.4353 -0.2306
  121loPI   GL2 1926   4.073  11.278  10.431 -0.1417  0.0215  0.0294
  121loPI   C1A 1927   4.351  10.907   9.970  0.1238  0.0553  0.2070
  121loPI   C2A 1928   4.244  10.903   9.566  0.5760 -0.3310 -0.2194
  121loPI   C3A 1929   4.361  10.985   9.155 -0.1099  0.0708 -0.3342
  121loPI   C4A 1930   4.287  10.955   8.745 -0.1417  0.0423 -0.0078
  121loPI   C5A 1931   4.269  11.151   8.375  0.0553  0.0760  0.1780
  121loPI   C6A 1932   4.474  11.311   8.027  0.1286 -0.3131  0.1278
  121loPI   C1B 1933   4.029  11.343  10.039 -0.1411  0.0707 -0.0612
  121loPI   C2B 1934   3.891  11.364   9.616 -0.0361 -0.0197 -0.0350
  121loPI   C3B 1935   3.998  11.362   9.232 -0.0710  0.2472  0.0256
  121loPI   C4B 1936   3.934  11.378   8.794 -0.1552  0.0902 -0.1496
  122loPI    C1 1937  17.852   5.588  11.015 -0.0355 -0.1091  0.0926
  122loPI    C2 1938  18.193   5.551  11.221 -0.0230 -0.3014  0.0390
  122loPI    C3 1939  17.851   5.628  11.413  0.0429 -0.1499  0.0971
  122loPI   PO4 1940  17.917   5.663  10.741 -0.0547 -0.1271 -0.1741
  122loPI   GL1 1941  17.932   5.545  10.371 -0.2384 -0.1515  0.0937
  122loPI   GL2 1942  17.592   5.708  10.264 -0.1752 -0.1294  0.2910
  122loPI   C1A 1943  18.059   5.326  10.006 -0.2133 -0.1551  0.1327
  122loPI   C2A 1944  18.061   5.412   9.646 -0.0276  0.0380 -0.0272
  122loPI   C3A 1945  18.025   5.440   9.184 -0.0206 -0.1125  0.4380
  122loPI   C4A 1946  17.972   5.426   8.692  0.1772 -0.0256  0.0951
  122loPI   C5A 1947  17.889   5.412   8.278 -0.1091 -0.1349  0.1430
  122loPI   C6A 1948  17.908   5.620   7.827  0.3015  0.0700 -0.0819
  122loPI   C1B 1949  17.709   5.780   9.868 -0.0143  0.3005 -0.1150
  122loPI   C2B 1950  17.772   5.837   9.364 -0.0063  0.2785 -0.0064
  122loPI   C3B 1951  17.719   5.803   8.889 -0.0630  0.3095  0.0629
  122loPI   C4B 1952  17.610   5.967   8.465 -0.2867 -0.0572  0.3247
  123loPI    C1 1953   9.421  12.454  10.938 -0.2765  0.0258 -0.0109
  123loPI    C2 1954   9.503  12.262  11.279  0.0060 -0.1372 -0.1660
  123loPI    C3 1955   9.138  12.236  11.117 -0.1234 -0.0767  0.1095
  123loPI   PO4 1956   9.641  12.385  10.793  0.3724 -0.3536  0.0543
  123loPI   GL1 1957   9.754  12.560  10.453 -0.1482  0.0684 -0.1879
  123loPI   GL2 1958   9.822  12.336  10.256  0.1015 -0.1169  0.2192
  123loPI   C1A 1959   9.685  12.729  10.038  0.3434  0.0982  0.0817
  123loPI   C2A 1960   9.632  12.687   9.592 -0.1170 -0.1350  0.1588
  123loPI   C3A 1961   9.549  12.622   9.144 -0.2917 -0.0213 -0.3175
  123loPI   C4A 1962   9.602  12.568   8.698 -0.2234 -0.0323  0.0859
  123loPI   C5A 1963   9.664  12.558   8.298  0.1979 -0.3864  0.1986
  123loPI   C6A 1964  10.031  12.464   8.069  0.0972 -0.1773 -0.2829
  123loPI   C1B 1965   9.923  12.227   9.838  0.0405  0.3623  0.3242
  123loPI   C2B 1966   9.889  12.213   9.426  0.0341 -0.4905 -0.3593
  123loPI   C3B 1967   9.831  12.130   9.012 -0.3360  0.0046 -0.0503
  123loPI   C4B 1968   9.953  12.191   8.551  0.1377  0.1631 -0.1289
  124loPI    C1 1969  13.763   7.351  10.977  0.2312  0.1254  0.3935
  124loPI    C2 1970  13.558   7.246  11.304 -0.0069 -0.1522  0.1608
  124loPI    C3 1971  13.633   7.632  11.230 -0.0476 -0.0796  0.4833
  124loPI   PO4 1972  13.677   7.228  10.818  0.1697  0.2372 -0.1116
  124loPI   GL1 1973  13.775   7.090  10.426 -0.1605 -0.3447 -0.1280
  124loPI   GL2 1974  13.460   6.987  10.432 -0.0988  0.2551 -0.1239
  124loPI   C1A 1975  13.822   7.001   9.990 -0.0624  0.0152 -0.2976
  124loPI   C2A 1976  13.858   7.021   9.521 -0.1354 -0.0264  0.1075
  124loPI   C3A 1977  13.827   6.999   9.153  0.1257 -0.0160  0.1111
  124loPI   C4A 1978  13.829   6.970   8.765  0.0806 -0.0894  0.1321
  124loPI   C5A 1979  13.793   6.930   8.276  0.0636  0.0362 -0.0902
  124loPI   C6A 1980  14.049   6.641   7.943  0.1046  0.0490 -0.0207
  124loPI   C1B 1981  13.315   6.853  10.109  0.0903  0.2285 -0.0787
  124loPI   C2B 1982  13.308   6.914   9.609 -0.2325  0.0524 -0.2472
  124loPI   C3B 1983  13.360   6.939   9.118  0.0530  0.2826  0.1069
  124loPI   C4B 1984  13.253   6.865   8.746 -0.0656  0.1935 -0.0311
  125loPI    C1 1985  11.601   7.517  11.089  0.0492 -0.1194 -0.0714
  125loPI    C2 1986  11.646   7.353  11.450  0.0723 -0.0675 -0.0506
  125loPI    C3 1987  11.308   7.547  11.360 -0.0341 -0.2910 -0.1411
  125loPI   PO4 1988  11.790   7.390  10.911  0.2114 -0.0052 -0.0019
  125loPI   GL1 1989  11.814   7.434  10.529 -0.1136  0.0645  0.2382
  125loPI   GL2 1990  11.898   7.169  10.354 -0.0260  0.0285  0.1016
  125loPI   C1A 1991  11.690   7.687  10.052  0.1838 -0.2731  0.1195
  125loPI   C2A 1992  11.535   7.633   9.697 -0.1723  0.0243  0.0825
  125loPI   C3A 1993  11.706   7.632   9.321  0.1916 -0.1286  0.3019
  125loPI   C4A 1994  11.793   7.610   8.933 -0.2501  0.0521 -0.1968
  125loPI   C5A 1995  11.583   7.690   8.535 -0.2819  0.0923  0.0275
  125loPI   C6A 1996  11.596   7.572   8.150 -0.0246  0.1089  0.1418
  125loPI   C1B 1997  11.950   7.257   9.864  0.2239  0.0037  0.0936
  125loPI   C2B 1998  12.003   7.249   9.367  0.0125  0.0576 -0.0218
  125loPI   C3B 1999  11.955   7.131   8.914  0.2090  0.0724  0.2640
  125loPI   C4B 2000  11.911   7.232   8.455  0.3957 -0.1812  0.2242
  126loPI    C1 2001  10.258   8.571  11.188 -0.1783  0.0964  0.2165
  126loPI    C2 2002  10.236   8.235  11.404 -0.3043  0.0449  0.1247
  126loPI    C3 2003  10.008   8.549  11.499 -0.2442  0.0774  0.1622
  126loPI   PO4 2004  10.359   8.446  10.959  0.1319  0.0591  0.0681
  126loPI   GL1 2005  10.061   8.253  10.645 -0.1241  0.2874  0.0708
  126loPI   GL2 2006   9.855   8.069  10.405  0.2154 -0.0843 -0.0235
  126loPI   C1A 2007  10.097   8.477  10.200  0.1604 -0.2671  0.0316
  126loPI   C2A 2008  10.072   8.472   9.834 -0.2383  0.0014  0.2100
  126loPI   C3A 2009  10.123   8.546   9.377 -0.1574 -0.1574 -0.4008
  126loPI   C4A 2010  10.081   8.456   8.893  0.2496  0.1160  0.3352
  126loPI   C5A 2011  10.129   8.512   8.483 -0.1613  0.3207 -0.0475
  126loPI   C6A 2012  10.347   8.322   8.224 -0.1305 -0.0698 -0.0192
  126loPI   C1B 2013   9.846   8.007   9.998  0.0983 -0.1232  0.0539
  126loPI   C2B 2014   9.910   8.047   9.584 -0.0737  0.0536  0.0994
  126loPI   C3B 2015   9.792   8.116   9.185  0.0217 -0.0880  0.0754
  126loPI   C4B 2016   9.768   8.003   8.817 -0.1552 -0.2205 -0.3019
  127loPI    C1 2017  10.813  11.078  10.985  0.0801  0.0448  0.1238
  127loPI    C2 2018  10.687  10.779  11.218  0.0694  0.0763  0.1586
  127loPI    C3 2019  11.076  10.815  11.133  0.0527 -0.0362  0.0296
  127loPI   PO4 2020  10.681  11.058  10.766 -0.0891  0.1869  0.2716
  127loPI   GL1 2021  10.577  11.275  10.467  0.1782  0.3052  0.1491
  127loPI   GL2 2022  10.813  11.252  10.300  0.1633  0.2631 -0.1620
  127loPI   C1A 2023  10.423  11.379   9.983  0.0711 -0.0282 -0.0119
  127loPI   C2A 2024  10.437  11.324   9.548  0.0996 -0.0899  0.4339
  127loPI   C3A 2025  10.432  11.261   9.186  0.1893 -0.1406  0.0175
  127loPI   C4A 2026  10.412  11.272   8.761 -0.2889 -0.1009  0.6033
  127loPI   C5A 2027  10.469  11.165   8.318 -0.0587  0.2556 -0.2084
  127loPI   C6A 2028  10.708  11.395   8.028 -0.1852 -0.1108 -0.2801
  127loPI   C1B 2029  10.958  11.309   9.896 -0.0183  0.1772 -0.0426
  127loPI   C2B 2030  11.042  11.259   9.337  0.0567  0.0653 -0.3539
  127loPI   C3B 2031  10.872  11.174   8.911 -0.2482  0.2986 -0.0377
  127loPI   C4B 2032  10.968  11.165   8.448  0.1744  0.0485 -0.0052
  128loPI    C1 2033   5.512   9.525  11.223  0.1107 -0.1958  0.0195
  128loPI    C2 2034   5.291   9.349  11.507 -0.1510 -0.0529 -0.0919
  128loPI    C3 2035   5.193   9.714  11.374  0.2521  0.0853 -0.0257
  128loPI   PO4 2036   5.520   9.349  10.995  0.0470 -0.0026  0.3243
  128loPI   GL1 2037   5.430   9.249  10.622  0.3726  0.0162  0.1699
  128loPI   GL2 2038   5.043   9.294  10.513  0.0245  0.0133 -0.0445
  128loPI   C1A 2039   5.475   9.248  10.157 -0.1306 -0.1275 -0.3123
  128loPI   C2A 2040   5.458   9.190   9.794  0.0127  0.2354  0.1528
  128loPI   C3A 2041   5.408   9.139   9.414  0.2529 -0.0312 -0.1800
  128loPI   C4A 2042   5.399   9.257   9.021 -0.2229 -0.1211 -0.0040
  128loPI   C5A 2043   5.422   9.382   8.599 -0.0209 -0.2791 -0.3824
  128loPI   C6A 2044   5.624   9.603   8.369  0.1983  0.1007  0.1416
  128loPI   C1B 2045   4.928   9.157  10.106  0.0487 -0.0078  0.0067
  128loPI   C2B 2046   4.837   9.161   9.592  0.1479 -0.2813  0.0485
  128loPI   C3B 2047   4.913   9.248   9.202  0.3015 -0.0792 -0.0586
  128loPI   C4B 2048   4.889   9.304   8.695 -0.1636  0.0001 -0.4106
  129loPI    C1 2049  16.550  17.748  10.888 -0.2539 -0.1433  0.0403
  129loPI    C2 2050  16.270  17.467  10.836 -0.3980 -0.0526  0.3070
  129loPI    C3 2051  16.225  17.743  11.122 -0.2382  0.2187  0.0747
  129loPI   PO4 2052  16.648  17.757  10.684  0.1352  0.1494 -0.0705
  129loPI   GL1 2053  16.568  17.522  10.271  0.0962 -0.0526 -0.0889
  129loPI   GL2 2054  16.399  17.760  10.080  0.0577 -0.1030 -0.0556
  129loPI   C1A 2055  16.511  17.361   9.847  0.2114  0.0904  0.0874
  129loPI   C2A 2056  16.591  17.355   9.450 -0.1308  0.0443  0.0347
  129loPI   C3A 2057  16.578  17.451   8.971  0.0302  0.2642 -0.2103
  129loPI   C4A 2058  16.557  17.500   8.540  0.1030 -0.2196  0.1346
  129loPI   C5A 2059  16.435  17.532   8.094  0.0701  0.0031 -0.0668
  129loPI   C6A 2060  16.203  17.424   7.721 -0.1751  0.4193  0.2426
  129loPI   C1B 2061  16.386  17.791   9.628  0.0180  0.3377  0.0517
  129loPI   C2B 2062  16.326  17.844   9.250  0.0867  0.1377 -0.0826
  129loPI   C3B 2063  16.352  17.884   8.863 -0.1588 -0.0146 -0.0825
  129loPI   C4B 2064  16.270  17.901   8.432 -0.3684 -0.3732 -0.0315
  130loPI    C1 2065   9.622  11.745  11.132  0.0757 -0.1961  0.1610
  130loPI    C2 2066   9.332  11.771  11.406 -0.1673  0.1153 -0.1165
  130loPI    C3 2067   9.713  11.833  11.511 -0.2329  0.0153  0.1897
  130loPI   PO4 2068   9.454  11.872  10.881 -0.1810  0.1321 -0.1743
  130loPI   GL1 2069   9.337  11.792  10.437  0.1260 -0.2127 -0.0829
  130loPI   GL2 2070   9.417  12.103  10.364 -0.1303  0.2059 -0.1252
  130loPI   C1A 2071   9.272  11.720  10.055 -0.1648 -0.0207 -0.1934
  130loPI   C2A 2072   9.255  11.689   9.572 -0.2450  0.3731 -0.3276
  130loPI   C3A 2073   9.084  11.636   9.112 -0.3307  0.0601 -0.2028
  130loPI   C4A 2074   9.137  11.650   8.702 -0.0470 -0.1969  0.0356
  130loPI   C5A 2075   9.177  11.783   8.304 -0.1105  0.1397 -0.0544
  130loPI   C6A 2076   9.352  11.819   7.907 -0.1263 -0.3395  0.0428
  130loPI   C1B 2077   9.450  12.199   9.990 -0.1058  0.0214  0.1788
  130loPI   C2B 2078   9.367  12.252   9.573  0.0029 -0.0373  0.2847
  130loPI   C3B 2079   9.358  12.136   9.153 -0.0987 -0.0213 -0.1727
  130loPI   C4B 2080   9.384  12.078   8.731 -0.1069 -0.0172 -0.2758
  131loPI    C1 2081   2.148   7.692  11.192  0.0222  0.0796 -0.3022
  131loPI    C2 2082   1.850   7.894  11.366  0.1086 -0.2493  0.2496
  131loPI    C3 2083   2.201   8.074  11.297 -0.1202  0.0581 -0.1482
  131loPI   PO4 2084   1.926   7.622  10.926 -0.1057 -0.2554 -0.3697
  131loPI   GL1 2085   1.977   7.516  10.544 -0.0420 -0.0129  0.1354
  131loPI   GL2 2086   2.117   7.730  10.394 -0.0454  0.1506 -0.2020
  131loPI   C1A 2087   1.958   7.307  10.182 -0.1641 -0.1458 -0.1482
  131loPI   C2A 2088   1.915   7.223   9.712 -0.3241 -0.0346  0.0482
  131loPI   C3A 2089   1.888   7.261   9.240  0.0953 -0.1286  0.1547
  131loPI   C4A 2090   1.872   7.298   8.789 -0.0984  0.0351 -0.0100
  131loPI   C5A 2091   1.796   7.170   8.348  0.1690  0.2121 -0.1805
  131loPI   C6A 2092   1.445   6.993   8.092  0.1928  0.2230 -0.0714
  131loPI   C1B 2093   2.225   7.672   9.917  0.0713  0.0978 -0.0195
  131loPI   C2B 2094   2.205   7.768   9.497  0.1063 -0.1257 -0.2420
  131loPI   C3B 2095   2.197   7.649   8.989 -0.0007  0.1328 -0.3464
  131loPI   C4B 2096   2.174   7.771   8.591  0.2699  0.0464 -0.1303
  132loPI    C1 2097  11.974  13.848  10.597  0.2206  0.1946 -0.0629
  132loPI    C2 2098  11.778  14.189  10.672  0.0171  0.1122 -0.2104
  132loPI    C3 2099  12.048  14.051  10.934 -0.1443  0.2110  0.0114
  132loPI   PO4 2100  12.055  13.910  10.377 -0.1309  0.0406  0.0608
  132loPI   GL1 2101  12.108  13.716   9.976 -0.0995  0.0803 -0.0083
  132loPI   GL2 2102  12.339  13.982   9.934 -0.1903 -0.2822 -0.0740
  132loPI   C1A 2103  12.113  13.530   9.676  0.3364 -0.0315  0.2397
  132loPI   C2A 2104  12.092  13.572   9.306 -0.1795  0.2659 -0.1519
  132loPI   C3A 2105  12.180  13.505   8.940 -0.0343 -0.1169 -0.0386
  132loPI   C4A 2106  12.237  13.451   8.495 -0.1226  0.2978  0.1091
  132loPI   C5A 2107  12.463  13.558   8.146 -0.2249 -0.2739  0.0740
  132loPI   C6A 2108  12.696  13.479   7.770 -0.2200 -0.1750  0.2546
  132loPI   C1B 2109  12.322  13.985   9.507 -0.0253  0.5905  0.0601
  132loPI   C2B 2110  12.349  13.952   9.115 -0.0387 -0.1331 -0.1698
  132loPI   C3B 2111  12.336  13.980   8.737  0.1778 -0.1396 -0.0627
  132loPI   C4B 2112  12.326  13.977   8.321  0.2418  0.1444  0.1030
  133loPI    C1 2113  17.398   5.345  10.977 -0.0822 -0.0698 -0.1491
  133loPI    C2 2114  17.056   5.448  11.157  0.0136 -0.2295  0.1314
  133loPI    C3 2115  17.368   5.328  11.375  0.2537 -0.0782 -0.1216
  133loPI   PO4 2116  17.399   5.571  10.717 -0.1248  0.3938  0.1324
  133loPI   GL1 2117  17.147   5.862  10.362  0.2916 -0.0618  0.0432
  133loPI   GL2 2118  16.908   6.104  10.357  0.1798 -0.1041 -0.1050
  133loPI   C1A 2119  17.221   5.759   9.909 -0.1706 -0.2345  0.1739
  133loPI   C2A 2120  17.191   5.653   9.560 -0.0629  0.0555  0.0044
  133loPI   C3A 2121  17.300   5.839   9.136 -0.0132 -0.1186 -0.2307
  133loPI   C4A 2122  17.128   5.787   8.674  0.1359  0.1483 -0.1065
  133loPI   C5A 2123  17.081   5.968   8.246 -0.0610  0.2014 -0.0880
  133loPI   C6A 2124  16.922   6.216   7.787 -0.0366 -0.3087 -0.0936
  133loPI   C1B 2125  16.974   6.200   9.998 -0.1259 -0.2408  0.0552
  133loPI   C2B 2126  16.970   6.230   9.587 -0.0204  0.1072 -0.0333
  133loPI   C3B 2127  16.836   6.288   9.250 -0.1838 -0.1444  0.0408
  133loPI   C4B 2128  16.911   6.246   8.786 -0.1471 -0.1652 -0.0870
  134loPI    C1 2129   1.879  11.699  11.295 -0.0174 -0.1649 -0.3041
  134loPI    C2 2130   1.626  11.410  11.405 -0.1610  0.0973  0.0715
  134loPI    C3 2131   1.912  11.532  11.657 -0.1191  0.3008 -0.0728
  134loPI   PO4 2132   1.848  11.666  10.974  0.0620 -0.1341  0.3269
  134loPI   GL1 2133   1.615  11.807  10.596  0.0011  0.2959  0.3521
  134loPI   GL2 2134   1.483  11.474  10.607  0.0034 -0.3325 -0.1026
  134loPI   C1A 2135   1.629  11.607  10.165  0.0340 -0.1678 -0.1203
  134loPI   C2A 2136   1.663  11.640   9.691 -0.1681 -0.0004  0.3399
  134loPI   C3A 2137   1.637  11.616   9.233 -0.1570 -0.1229  0.0980
  134loPI   C4A 2138   1.511  11.662   8.828  0.0896 -0.1246  0.2418
  134loPI   C5A 2139   1.164  11.671   8.580  0.0525 -0.3386  0.2631
  134loPI   C6A 2140   0.856  11.654   8.296  0.1561 -0.3190 -0.2539
  134loPI   C1B 2141   1.413  11.163  10.332 -0.0170 -0.1725  0.0889
  134loPI   C2B 2142   1.493  11.181   9.925 -0.1717 -0.1042  0.0871
  134loPI   C3B 2143   1.472  11.180   9.542 -0.0433 -0.2136 -0.0197
  134loPI   C4B 2144   1.369  11.237   9.054  0.1430  0.0369  0.0041
  135loPI    C1 2145   3.987   9.819  11.254  0.0112 -0.2969  0.1201
  135loPI    C2 2146   3.681   9.566  11.299 -0.1635 -0.1311 -0.1103
  135loPI    C3 2147   3.669   9.927  11.471 -0.0550 -0.1587 -0.0435
  135loPI   PO4 2148   4.028   9.790  11.005  0.1099  0.2604  0.0337
  135loPI   GL1 2149   3.990   9.927  10.603  0.0030  0.3798  0.1982
  135loPI   GL2 2150   4.328  10.027  10.669 -0.0440 -0.0678  0.0695
  135loPI   C1A 2151   3.893   9.933  10.161  0.1524  0.1877  0.1665
  135loPI   C2A 2152   3.733  10.000   9.681  0.2487 -0.0097  0.1317
  135loPI   C3A 2153   3.867  10.110   9.234  0.0459 -0.2319  0.2380
  135loPI   C4A 2154   3.798  10.045   8.800 -0.1311 -0.2515  0.0733
  135loPI   C5A 2155   3.816  10.198   8.366  0.3484 -0.1090 -0.2516
  135loPI   C6A 2156   4.121  10.203   8.112 -0.0302 -0.1188  0.0098
  135loPI   C1B 2157   4.365  10.066  10.290  0.2645 -0.0123  0.0814
  135loPI   C2B 2158   4.341  10.025   9.860 -0.2941  0.1642 -0.4163
  135loPI   C3B 2159   4.357  10.049   9.460  0.1246 -0.0210  0.0284
  135loPI   C4B 2160   4.362  10.151   8.982  0.0804 -0.0356 -0.2520
  136loPI    C1 2161   1.837  14.957  11.104 -0.1877 -0.0078  0.0105
  136loPI    C2 2162   1.917  15.210  11.403  0.1968 -0.1692  0.0499
  136loPI    C3 2163   1.916  14.816  11.470 -0.1716 -0.1914 -0.0625
  136loPI   PO4 2164   1.974  15.093  10.940 -0.2618  0.1335  0.1824
  136loPI   GL1 2165   1.920  15.197  10.539  0.0295 -0.1940 -0.2710
  136loPI   GL2 2166   1.572  15.250  10.529 -0.1957 -0.4206  0.0511
  136loPI   C1A 2167   1.985  15.297  10.096 -0.0727 -0.2934  0.1561
  136loPI   C2A 2168   1.985  15.322   9.636  0.1753 -0.1954  0.0853
  136loPI   C3A 2169   1.925  15.314   9.177 -0.1022 -0.0308  0.0330
  136loPI   C4A 2170   1.995  15.354   8.755 -0.2414 -0.0686  0.0888
  136loPI   C5A 2171   1.788  15.415   8.349 -0.1155  0.0467 -0.0972
  136loPI   C6A 2172   1.355  15.640   8.355  0.1017  0.0998  0.0473
  136loPI   C1B 2173   1.466  15.270  10.086  0.1883 -0.1580 -0.4335
  136loPI   C2B 2174   1.476  15.340   9.699  0.1541 -0.1007 -0.1690
  136loPI   C3B 2175   1.386  15.311   9.192 -0.2897  0.2385  0.4082
  136loPI   C4B 2176   1.412  15.320   8.824  0.0726  0.0136  0.2980
  137loPI    C1 2177   6.986  15.340  10.905  0.0629  0.0815  0.0344
  137loPI    C2 2178   7.116  15.133  11.222  0.0586 -0.0908 -0.0751
  137loPI    C3 2179   6.732  15.110  11.112  0.1105 -0.2197 -0.2336
  137loPI   PO4 2180   7.173  15.372  10.741  0.0858  0.2962 -0.1340
  137loPI   GL1 2181   7.398  15.544  10.376 -0.0883  0.0046  0.0610
  137loPI   GL2 2182   7.189  15.713  10.162 -0.1644  0.0129  0.1786
  137loPI   C1A 2183   7.641  15.649   9.976  0.0308  0.1414 -0.0113
  137loPI   C2A 2184   7.669  15.644   9.614  0.1104  0.2181 -0.0227
  137loPI   C3A 2185   7.634  15.610   9.175  0.1445 -0.1011  0.0807
  137loPI   C4A 2186   7.644  15.585   8.778  0.1341 -0.1887  0.1640
  137loPI   C5A 2187   7.741  15.458   8.305  0.4446  0.0957  0.0637
  137loPI   C6A 2188   8.024  15.120   8.009 -0.0005 -0.0765  0.2436
  137loPI   C1B 2189   7.197  15.549   9.772  0.3833 -0.2875  0.2539
  137loPI   C2B 2190   7.150  15.606   9.391 -0.0967  0.2303  0.0371
  137loPI   C3B 2191   7.078  15.553   8.939  0.2159 -0.0127 -0.0180
  137loPI   C4B 2192   7.166  15.571   8.516 -0.0919 -0.0231 -0.2817
  138loPI    C1 2193   1.103  14.598  11.108 -0.0798  0.0919  0.1149
  138loPI    C2 2194   0.741  14.506  11.250 -0.0688  0.0266  0.1011
  138loPI    C3 2195   1.050  14.546  11.501 -0.0770  0.0423  0.1088
  138loPI   PO4 2196   1.134  14.512  10.911 -0.0645  0.1260  0.0367
  138loPI   GL1 2197   1.302  14.638  10.536  0.0436  0.0605 -0.0938
  138loPI   GL2 2198   1.491  14.278  10.474  0.1380 -0.4060  0.1613
  138loPI   C1A 2199   1.244  14.832  10.076  0.3193  0.2391 -0.1446
  138loPI   C2A 2200   1.246  14.865   9.724  0.0746 -0.0216 -0.3394
  138loPI   C3A 2201   1.214  14.837   9.239  0.3116  0.1194 -0.0305
  138loPI   C4A 2202   1.203  14.799   8.798  0.0304 -0.0482  0.1941
  138loPI   C5A 2203   1.204  14.861   8.430  0.0092 -0.1207 -0.1318
  138loPI   C6A 2204   1.487  15.067   8.143  0.0964 -0.0681  0.1092
  138loPI   C1B 2205   1.525  14.406  10.001  0.1074 -0.0511 -0.0118
  138loPI   C2B 2206   1.512  14.398   9.527 -0.1344  0.0327 -0.0359
  138loPI   C3B 2207   1.450  14.428   9.031  0.1187  0.2276  0.1606
  138loPI   C4B 2208   1.501  14.327   8.605 -0.0249 -0.0338 -0.0645
  139loPI    C1 2209   8.016   3.818  11.062  0.1729  0.0263  0.0608
  139loPI    C2 2210   7.631   3.851  11.165  0.1243 -0.0720 -0.0862
  139loPI    C3 2211   7.909   3.793  11.447  0.0140 -0.1566  0.0061
  139loPI   PO4 2212   8.029   3.977  10.820 -0.0337 -0.1424  0.0152
  139loPI   GL1 2213   8.271   4.154  10.419  0.1176 -0.2234 -0.0882
  139loPI   GL2 2214   8.253   3.841  10.338 -0.0438  0.3398 -0.2613
  139loPI   C1A 2215   8.519   4.358  10.077  0.0143 -0.0399  0.0584
  139loPI   C2A 2216   8.577   4.460   9.563  0.4424 -0.4889 -0.0725
  139loPI   C3A 2217   8.501   4.317   9.121  0.1363 -0.1254 -0.0325
  139loPI   C4A 2218   8.482   4.345   8.667 -0.4031  0.1641 -0.0176
  139loPI   C5A 2219   8.553   4.361   8.283 -0.4323  0.0429 -0.1138
  139loPI   C6A 2220   8.210   4.339   7.925  0.0839  0.0059 -0.2679
  139loPI   C1B 2221   8.308   3.955   9.881 -0.0858  0.1959  0.0990
  139loPI   C2B 2222   8.362   4.008   9.470  0.1816 -0.0578  0.0475
  139loPI   C3B 2223   8.296   3.886   9.105  0.2351  0.2440 -0.1336
  139loPI   C4B 2224   8.321   3.887   8.618 -0.0032 -0.2438 -0.0232
  140loPI    C1 2225   7.000  17.703  10.497 -0.0073  0.0066  0.0088
  140loPI    C2 2226   7.167  17.396  10.692  0.0048  0.1122  0.1675
  140loPI    C3 2227   7.110  17.376  10.296  0.0890 -0.0570  0.1632
  140loPI   PO4 2228   7.051  17.879  10.680 -0.0871 -0.1026 -0.2577
  140loPI   GL1 2229   7.312  18.121  10.483  0.1202  0.0406 -0.1420
  140loPI   GL2 2230   7.061  18.329  10.297  0.3074  0.0335 -0.0525
  140loPI   C1A 2231   7.248  17.887  10.058 -0.0711 -0.1379 -0.2421
  140loPI   C2A 2232   7.225  17.829   9.625 -0.1649 -0.2045  0.2388
  140loPI   C3A 2233   7.238  17.773   9.151 -0.0398 -0.0934 -0.0030
  140loPI   C4A 2234   7.260  17.806   8.728 -0.0236 -0.0168  0.1139
  140loPI   C5A 2235   7.343  17.963   8.375 -0.0270  0.0299  0.0348
  140loPI   C6A 2236   7.205  18.013   7.982  0.0358 -0.1829  0.1782
  140loPI   C1B 2237   7.034  18.263   9.830  0.0332  0.2732  0.1862
  140loPI   C2B 2238   6.983  18.174   9.348  0.0549 -0.0372 -0.0606
  140loPI   C3B 2239   6.958  18.264   8.947  0.6070 -0.1107  0.1455
  140loPI   C4B 2240   6.978  18.227   8.599 -0.0505  0.0421 -0.0890
  141loPI    C1 2241  16.359  11.580  10.939  0.1712 -0.0911 -0.0425
  141loPI    C2 2242  16.514  11.726  11.278  0.2475 -0.2550 -0.0058
  141loPI    C3 2243  16.119  11.672  11.246  0.2179 -0.0401 -0.0209
  141loPI   PO4 2244  16.500  11.737  10.728 -0.1317 -0.1923 -0.0255
  141loPI   GL1 2245  16.429  11.819  10.291 -0.0305 -0.2295  0.1288
  141loPI   GL2 2246  16.637  11.585  10.253  0.0810  0.2086  0.1400
  141loPI   C1A 2247  16.436  11.903   9.907  0.2930  0.0041 -0.1913
  141loPI   C2A 2248  16.280  11.988   9.527  0.1629  0.1013  0.1215
  141loPI   C3A 2249  16.375  12.071   9.078  0.1597 -0.1205 -0.1342
  141loPI   C4A 2250  16.289  12.058   8.656  0.2607  0.2421  0.0249
  141loPI   C5A 2251  16.062  11.754   8.340 -0.1729 -0.1096 -0.2730
  141loPI   C6A 2252  15.890  11.371   8.434 -0.3319 -0.1818  0.2589
  141loPI   C1B 2253  16.652  11.477   9.906  0.2113  0.2150  0.0238
  141loPI   C2B 2254  16.598  11.554   9.422 -0.4732 -0.1901  0.0430
  141loPI   C3B 2255  16.547  11.568   8.938 -0.0474  0.0289  0.0343
  141loPI   C4B 2256  16.537  11.644   8.526  0.2924 -0.1660 -0.2247
  142loPI    C1 2257  14.476  12.356  11.137  0.3456  0.1905 -0.0252
  142loPI    C2 2258  14.149  12.542  10.999  0.2113 -0.1197 -0.1339
  142loPI    C3 2259  14.229  12.542  11.391  0.1348  0.0412 -0.1178
  142loPI   PO4 2260  14.689  12.422  10.934 -0.1285  0.1095  0.1133
  142loPI   GL1 2261  14.830  12.209  10.565  0.0963  0.2866 -0.2713
  142loPI   GL2 2262  14.789  12.408  10.426 -0.2125 -0.2062 -0.0583
  142loPI   C1A 2263  14.832  11.978  10.222 -0.1299  0.0111  0.1350
  142loPI   C2A 2264  14.772  11.929   9.761  0.1468 -0.2022 -0.0613
  142loPI   C3A 2265  14.767  11.961   9.370  0.2579 -0.1926  0.1664
  142loPI   C4A 2266  14.761  11.892   8.889  0.0340 -0.2541  0.0552
  142loPI   C5A 2267  14.669  11.971   8.530 -0.2830 -0.0318  0.0599
  142loPI   C6A 2268  14.288  11.910   8.277 -0.2561 -0.1991 -0.1965
  142loPI   C1B 2269  14.506  12.370  10.136 -0.0764  0.0626 -0.0836
  142loPI   C2B 2270  14.566  12.396   9.686  0.2782 -0.0742 -0.1401
  142loPI   C3B 2271  14.486  12.367   9.270  0.0754 -0.0576 -0.0124
  142loPI   C4B 2272  14.549  12.369   8.860 -0.0356 -0.3913  0.0704
  143loPI    C1 2273   3.439   6.641  11.043 -0.0803 -0.2112 -0.0074
  143loPI    C2 2274   3.461   7.003  11.212  0.0261 -0.1904 -0.0652
  143loPI    C3 2275   3.166   6.752  11.313 -0.0306 -0.0989 -0.0031
  143loPI   PO4 2276   3.514   6.697  10.811  0.1781  0.1626  0.2255
  143loPI   GL1 2277   3.774   6.887  10.498 -0.1659  0.1289  0.0516
  143loPI   GL2 2278   3.559   7.197  10.708 -0.2398 -0.1958  0.1458
  143loPI   C1A 2279   3.720   6.881  10.035  0.0499  0.2291  0.2204
  143loPI   C2A 2280   3.814   6.882   9.644  0.0910 -0.0811  0.0922
  143loPI   C3A 2281   3.711   6.909   9.190 -0.0749 -0.1215 -0.1679
  143loPI   C4A 2282   3.685   6.886   8.824 -0.2351  0.0259  0.0778
  143loPI   C5A 2283   3.872   6.949   8.376 -0.3476 -0.0115 -0.2867
  143loPI   C6A 2284   3.706   7.159   8.180 -0.4636  0.1897  0.0054
  143loPI   C1B 2285   3.477   7.271  10.279 -0.0966  0.0702  0.0765
  143loPI   C2B 2286   3.505   7.247   9.796  0.0871  0.0310 -0.1198
  143loPI   C3B 2287   3.514   7.397   9.454  0.1248  0.0642 -0.3481
  143loPI   C4B 2288   3.348   7.372   9.046 -0.1393 -0.0165  0.3443
  144loPI    C1 2289   2.123  13.808  11.508  0.1636  0.0239  0.0368
  144loPI    C2 2290   2.153  14.141  11.728  0.1401  0.0766 -0.0392
  144loPI    C3 2291   1.893  13.855  11.831  0.0766  0.1337 -0.0402
  144loPI   PO4 2292   2.018  13.950  11.259  0.0935 -0.1219  0.0436
  144loPI   GL1 2293   1.944  14.079  10.916 -0.0278  0.1711  0.1384
  144loPI   GL2 2294   1.852  13.899  10.660  0.1343 -0.2490  0.1420
  144loPI   C1A 2295   2.161  14.210  10.542 -0.0084 -0.0772  0.1371
  144loPI   C2A 2296   2.056  14.441  10.046  0.0919 -0.3903 -0.2505
  144loPI   C3A 2297   1.977  14.478   9.623  0.0691  0.0994  0.2051
  144loPI   C4A 2298   1.982  14.391   9.233  0.1321  0.0631  0.1227
  144loPI   C5A 2299   1.991  14.337   8.814 -0.2475 -0.1388  0.0564
  144loPI   C6A 2300   1.809  13.976   8.509  0.0608  0.0305 -0.1502
  144loPI   C1B 2301   1.814  13.948  10.178 -0.2134 -0.1397  0.0887
  144loPI   C2B 2302   1.803  14.029   9.781 -0.0286 -0.2557 -0.0541
  144loPI   C3B 2303   1.792  13.975   9.428 -0.1366 -0.2255 -0.0675
  144loPI   C4B 2304   1.721  14.005   9.016 -0.1236  0.2592  0.3189
  145loPI    C1 2305  17.797   7.119  10.684 -0.1989 -0.3773 -0.0911
  145loPI    C2 2306  17.453   7.306  10.770 -0.0837 -0.2362  0.0691
  145loPI    C3 2307  17.659   7.121  11.060  0.1855  0.0355  0.0563
  145loPI   PO4 2308  17.774   6.994  10.481 -0.0794 -0.2123  0.1027
  145loPI   GL1 2309  17.459   7.016  10.217 -0.2089 -0.1739 -0.2116
  145loPI   GL2 2310  17.575   6.701  10.024  0.0083 -0.1368 -0.1307
  145loPI   C1A 2311  17.395   7.123   9.849 -0.0879  0.0408  0.2089
  145loPI   C2A 2312  17.421   7.124   9.407  0.1837 -0.1451  0.3013
  145loPI   C3A 2313  17.297   7.198   8.960  0.0602 -0.1328  0.2800
  145loPI   C4A 2314  17.347   7.196   8.524 -0.0840  0.1474  0.3645
  145loPI   C5A 2315  17.227   7.280   8.135  0.2714 -0.2599 -0.1411
  145loPI   C6A 2316  17.205   7.403   7.684  0.1588 -0.0718 -0.0281
  145loPI   C1B 2317  17.678   6.605   9.558  0.0031 -0.1741 -0.0352
  145loPI   C2B 2318  17.641   6.758   9.064  0.0986  0.3532 -0.1679
  145loPI   C3B 2319  17.674   6.725   8.648  0.1525 -0.1126 -0.3528
  145loPI   C4B 2320  17.544   6.778   8.229  0.2904 -0.0564 -0.0786
  146loPI    C1 2321   2.710   0.842  10.667  0.1513 -0.0854 -0.0185
  146loPI    C2 2322   3.078   0.834  10.824  0.1760 -0.1694 -0.0802
  146loPI    C3 2323   2.788   1.043  11.004  0.1939 -0.2964  0.0987
  146loPI   PO4 2324   2.732   0.841  10.410 -0.0931 -0.3668 -0.0134
  146loPI   GL1 2325   2.390   0.812  10.087 -0.0977  0.0196 -0.0528
  146loPI   GL2 2326   2.730   0.880   9.892  0.0436  0.1244  0.1816
  146loPI   C1A 2327   2.273   0.789   9.633 -0.2843  0.2519  0.0542
  146loPI   C2A 2328   2.271   0.797   9.150  0.0358 -0.2067  0.2486
  146loPI   C3A 2329   2.261   0.750   8.723 -0.0374 -0.2081 -0.4207
  146loPI   C4A 2330   2.231   0.632   8.257  0.0317  0.0303 -0.3084
  146loPI   C5A 2331   1.852   0.588   7.965 -0.1222 -0.1722 -0.0616
  146loPI   C6A 2332   1.536   0.659   7.637  0.0111 -0.0095 -0.2281
  146loPI   C1B 2333   2.753   0.839   9.445  0.1230 -0.3189  0.0309
  146loPI   C2B 2334   2.770   0.825   8.975 -0.1299 -0.1050  0.0179
  146loPI   C3B 2335   2.706   0.862   8.514  0.1455 -0.1909  0.1134
  146loPI   C4B 2336   2.565   0.898   8.060 -0.1538  0.1300 -0.0901
  147loPI    C1 2337   6.892   4.923  10.873 -0.0161  0.0578  0.0858
  147loPI    C2 2338   6.779   4.650  11.143  0.0174 -0.0298  0.0118
  147loPI    C3 2339   7.105   4.873  11.208  0.0285 -0.0546  0.0413
  147loPI   PO4 2340   6.842   4.791  10.651  0.2899 -0.0543  0.1030
  147loPI   GL1 2341   6.640   4.857  10.186 -0.0512  0.0807 -0.1928
  147loPI   GL2 2342   6.455   5.045  10.283 -0.1524  0.1650  0.1993
  147loPI   C1A 2343   6.611   4.802   9.799  0.1555  0.1761  0.2485
  147loPI   C2A 2344   6.696   4.760   9.331 -0.3677  0.1461 -0.2493
  147loPI   C3A 2345   6.678   4.746   8.876  0.1234 -0.1811  0.0119
  147loPI   C4A 2346   6.797   4.631   8.357 -0.2899  0.1350  0.3700
  147loPI   C5A 2347   7.047   4.451   8.088  0.3109  0.0760  0.0344
  147loPI   C6A 2348   7.400   4.735   8.038 -0.1188 -0.1534 -0.1885
  147loPI   C1B 2349   6.371   5.222   9.856  0.2455  0.0697  0.2943
  147loPI   C2B 2350   6.381   5.205   9.451  0.0970  0.3037 -0.1167
  147loPI   C3B 2351   6.415   5.152   9.126  0.2175 -0.2096 -0.1221
  147loPI   C4B 2352   6.430   5.168   8.679  0.1172 -0.2039 -0.1677
  148loPI    C1 2353  16.112   6.026  10.946  0.0419  0.0730  0.0586
  148loPI    C2 2354  16.424   6.163  11.156  0.1986 -0.0520 -0.0907
  148loPI    C3 2355  16.054   6.284  11.247  0.2988  0.1746  0.0238
  148loPI   PO4 2356  16.138   6.074  10.768  0.0976  0.1274 -0.0203
  148loPI   GL1 2357  16.309   6.031  10.435  0.2233  0.1418  0.1307
  148loPI   GL2 2358  16.051   5.799  10.321  0.0671 -0.3128  0.0866
  148loPI   C1A 2359  16.481   6.183  10.112 -0.0361  0.2397 -0.0813
  148loPI   C2A 2360  16.479   6.220   9.670 -0.1341  0.0014 -0.2558
  148loPI   C3A 2361  16.326   6.231   9.207 -0.0642  0.2576  0.2863
  148loPI   C4A 2362  16.327   6.179   8.755 -0.4890 -0.1719  0.0099
  148loPI   C5A 2363  16.583   5.990   8.470  0.4474 -0.1413  0.0556
  148loPI   C6A 2364  16.548   5.855   8.124  0.1652 -0.0216  0.0844
  148loPI   C1B 2365  16.195   5.867   9.816  0.1560  0.0906 -0.2131
  148loPI   C2B 2366  16.102   5.745   9.458  0.0681  0.0871  0.0187
  148loPI   C3B 2367  16.077   5.760   9.011  0.1401  0.1155  0.1575
  148loPI   C4B 2368  16.156   5.751   8.553 -0.2079 -0.1290  0.0847
  149loPI    C1 2369   0.439   4.807  10.946 -0.1384  0.0070  0.2489
  149loPI    C2 2370   0.830   4.832  11.029 -0.0362 -0.0620 -0.1850
  149loPI    C3 2371   0.581   4.657  11.288  0.2411 -0.1388  0.0344
  149loPI   PO4 2372   0.430   4.759  10.703  0.0057  0.2152 -0.1757
  149loPI   GL1 2373   0.349   4.752  10.327  0.1378  0.0012 -0.1264
  149loPI   GL2 2374   0.496   4.471  10.200  0.2137 -0.2788 -0.0808
  149loPI   C1A 2375   0.217   4.884   9.920  0.0054 -0.2741 -0.2404
  149loPI   C2A 2376   0.255   4.971   9.587 -0.3883 -0.1937 -0.2024
  149loPI   C3A 2377   0.213   5.019   9.067  0.1309 -0.0622  0.0884
  149loPI   C4A 2378   0.267   5.051   8.595 -0.1416  0.2801  0.1257
  149loPI   C5A 2379   0.369   4.871   8.137  0.0268 -0.0041  0.1757
  149loPI   C6A 2380   0.590   4.435   7.961  0.0824  0.2729  0.1843
  149loPI   C1B 2381   0.463   4.492   9.813  0.0012 -0.0442 -0.0264
  149loPI   C2B 2382   0.579   4.548   9.422  0.1862  0.0852 -0.2448
  149loPI   C3B 2383   0.510   4.597   8.979 -0.2060 -0.1631  0.2840
  149loPI   C4B 2384   0.556   4.542   8.523  0.1327  0.1076  0.0097
  150loPI    C1 2385  16.256  16.954  10.665 -0.1924  0.1031  0.1016
  150loPI    C2 2386  16.486  17.005  10.989 -0.2381 -0.2596  0.1964
  150loPI    C3 2387  16.088  16.986  11.027 -0.2545 -0.1353  0.0954
  150loPI   PO4 2388  16.337  17.110  10.467  0.0929  0.2762 -0.1547
  150loPI   GL1 2389  16.463  16.905  10.045 -0.0898 -0.2546 -0.1563
  150loPI   GL2 2390  16.183  16.803  10.044  0.0177 -0.0853  0.1713
  150loPI   C1A 2391  16.347  16.937   9.595 -0.1018 -0.2583  0.0793
  150loPI   C2A 2392  16.356  16.925   9.137 -0.0244 -0.0300  0.0494
  150loPI   C3A 2393  16.353  17.045   8.693 -0.2863  0.0173 -0.0661
  150loPI   C4A 2394  16.377  17.063   8.221  0.1150 -0.0966  0.0382
  150loPI   C5A 2395  16.472  17.012   7.771 -0.0585 -0.1748  0.0995
  150loPI   C6A 2396  16.938  16.947   7.539 -0.0581  0.2227  0.1743
  150loPI   C1B 2397  15.878  16.881   9.697 -0.0347 -0.0382  0.3709
  150loPI   C2B 2398  15.831  16.916   9.247  0.2970 -0.4007 -0.2246
  150loPI   C3B 2399  15.823  16.993   8.852 -0.0044 -0.2238 -0.0432
  150loPI   C4B 2400  15.921  17.032   8.390 -0.1047  0.2527 -0.2245
  151loPI    C1 2401   0.663  15.314  11.114 -0.0122 -0.1278 -0.0799
  151loPI    C2 2402   0.868  15.031  11.309  0.0952  0.1076  0.1540
  151loPI    C3 2403   0.686  15.323  11.513 -0.0357  0.1948 -0.0837
  151loPI   PO4 2404   0.454  15.156  10.871  0.1384  0.1016  0.2750
  151loPI   GL1 2405   0.243  15.355  10.559  0.1927  0.0386 -0.1356
  151loPI   GL2 2406   0.322  15.622  10.425  0.0185 -0.1506 -0.0110
  151loPI   C1A 2407   0.341  15.233  10.172 -0.6404 -0.2441 -0.2779
  151loPI   C2A 2408   0.482  15.285   9.797  0.2039  0.1125  0.0211
  151loPI   C3A 2409   0.350  15.225   9.418  0.1083  0.0924  0.0574
  151loPI   C4A 2410   0.416  15.195   8.940 -0.1733  0.0185  0.0118
  151loPI   C5A 2411   0.428  15.129   8.472 -0.5403  0.2121 -0.1418
  151loPI   C6A 2412   0.290  14.950   8.101  0.0410  0.0635 -0.2711
  151loPI   C1B 2413   0.106  15.606   9.968 -0.2345 -0.2130 -0.2180
  151loPI   C2B 2414   0.134  15.733   9.469 -0.1403 -0.0099 -0.0379
  151loPI   C3B 2415   0.098  15.652   9.055  0.0788 -0.1358  0.0055
  151loPI   C4B 2416   0.131  15.667   8.679 -0.0437 -0.2323  0.0399
  152loPI    C1 2417   9.909  16.891  10.652  0.0594  0.0147 -0.0976
  152loPI    C2 2418   9.626  16.954  10.928  0.1546 -0.1032  0.0282
  152loPI    C3 2419   9.856  16.627  10.948  0.1188 -0.1458 -0.2289
  152loPI   PO4 2420   9.809  16.906  10.442  0.3777 -0.2256  0.0013
  152loPI   GL1 2421   9.811  16.626  10.084 -0.3403 -0.0428  0.1274
  152loPI   GL2 2422   9.541  16.366  10.097 -0.3426 -0.3586 -0.0272
  152loPI   C1A 2423   9.625  16.666   9.667 -0.0288  0.3874  0.0642
  152loPI   C2A 2424   9.641  16.693   9.190  0.2076  0.0522  0.3275
  152loPI   C3A 2425   9.671  16.634   8.809  0.0770  0.1797  0.3076
  152loPI   C4A 2426   9.729  16.737   8.341  0.0132 -0.0615  0.0202
  152loPI   C5A 2427   9.722  16.499   8.002  0.3917 -0.1759  0.1017
  152loPI   C6A 2428   9.968  16.400   7.759 -0.0022 -0.1170 -0.1377
  152loPI   C1B 2429   9.457  16.172   9.779  0.3134  0.3955 -0.1061
  152loPI   C2B 2430   9.360  16.152   9.367  0.1254  0.0513 -0.4215
  152loPI   C3B 2431   9.419  16.226   8.941 -0.2603  0.0663 -0.0351
  152loPI   C4B 2432   9.476  16.235   8.467 -0.0581  0.0340 -0.0652
  153loPI    C1 2433  16.671   3.936  10.883  0.2831 -0.2711  0.0607
  153loPI    C2 2434  16.475   3.587  10.876 -0.1657 -0.0317  0.2465
  153loPI    C3 2435  16.486   3.803  11.212 -0.1176  0.2571  0.0624
  153loPI   PO4 2436  16.769   4.008  10.595 -0.2612 -0.1024  0.0157
  153loPI   GL1 2437  16.598   4.082  10.231  0.0802 -0.1012  0.0224
  153loPI   GL2 2438  16.925   4.272  10.070 -0.3881 -0.1785 -0.1719
  153loPI   C1A 2439  16.425   3.830   9.937 -0.0487  0.4322  0.1415
  153loPI   C2A 2440  16.304   3.910   9.495 -0.0496  0.2370  0.0195
  153loPI   C3A 2441  16.307   3.965   9.079  0.1109 -0.0756 -0.1736
  153loPI   C4A 2442  16.245   4.054   8.628  0.1976 -0.4305  0.0688
  153loPI   C5A 2443  16.402   4.091   8.145 -0.1525  0.2016  0.0115
  153loPI   C6A 2444  16.735   4.221   8.017 -0.3098 -0.0187 -0.1667
  153loPI   C1B 2445  17.194   4.340   9.641  0.0981 -0.2505 -0.2365
  153loPI   C2B 2446  17.150   4.427   9.203 -0.1326 -0.3865  0.0730
  153loPI   C3B 2447  17.073   4.493   8.796  0.0978  0.1194 -0.1207
  153loPI   C4B 2448  16.993   4.521   8.394 -0.2175  0.3356 -0.2762
  154loPI    C1 2449   9.989  10.601  10.673  0.0306  0.1432 -0.0507
  154loPI    C2 2450  10.358  10.696  10.794  0.1413 -0.2451 -0.0716
  154loPI    C3 2451  10.230  10.318  10.819 -0.2363 -0.1244 -0.1194
  154loPI   PO4 2452   9.879  10.765  10.501 -0.4290 -0.0662 -0.2804
  154loPI   GL1 2453   9.788  10.796  10.091 -0.1017  0.2168  0.0946
  154loPI   GL2 2454  10.024  10.481  10.091  0.0149  0.0316 -0.1134
  154loPI   C1A 2455   9.730  10.822   9.655  0.0567  0.0219  0.0880
  154loPI   C2A 2456   9.685  10.730   9.274  0.1208  0.3301  0.0974
  154loPI   C3A 2457   9.652  10.799   8.866  0.0877 -0.0062 -0.1519
  154loPI   C4A 2458   9.727  10.748   8.440  0.3149  0.0059  0.0932
  154loPI   C5A 2459   9.488  10.634   8.000 -0.1143 -0.0084 -0.0745
  154loPI   C6A 2460   9.323  10.976   7.730 -0.1255  0.0827  0.0757
  154loPI   C1B 2461  10.035  10.361   9.679  0.2945 -0.2526  0.2377
  154loPI   C2B 2462   9.994  10.349   9.222  0.0274 -0.0227  0.4167
  154loPI   C3B 2463   9.984  10.285   8.715  0.0602 -0.0328  0.1653
  154loPI   C4B 2464  10.044  10.311   8.229 -0.0413 -0.1928  0.1623
  155loPI    C1 2465  11.738  11.159  10.812  0.2646 -0.1039 -0.0639
  155loPI    C2 2466  12.062  11.362  10.695  0.3463 -0.0805  0.1961
  155loPI    C3 2467  11.828  11.509  10.984  0.0742 -0.0737 -0.0238
  155loPI   PO4 2468  11.683  11.068  10.572 -0.1471 -0.0660  0.4325
  155loPI   GL1 2469  11.950  11.024  10.316 -0.0881  0.0983 -0.0643
  155loPI   GL2 2470  11.962  11.318  10.219  0.0970  0.0969  0.0162
  155loPI   C1A 2471  11.862  10.876   9.933  0.1906 -0.0240 -0.3658
  155loPI   C2A 2472  11.875  10.845   9.439  0.1041 -0.0664 -0.0543
  155loPI   C3A 2473  11.761  10.838   9.051 -0.0582  0.0132 -0.1057
  155loPI   C4A 2474  11.742  10.817   8.636  0.3525 -0.1915  0.4096
  155loPI   C5A 2475  11.905  10.979   8.085  0.4155  0.0225 -0.3579
  155loPI   C6A 2476  11.642  10.766   7.700  0.1720  0.2001  0.0252
  155loPI   C1B 2477  12.053  11.304   9.855 -0.1454  0.0181  0.2589
  155loPI   C2B 2478  12.029  11.320   9.442 -0.0310 -0.1559 -0.5828
  155loPI   C3B 2479  12.014  11.278   8.944  0.0763  0.1238 -0.3599
  155loPI   C4B 2480  11.945  11.328   8.521 -0.0917 -0.0893 -0.0895
  156loPI    C1 2481   7.001  16.802  10.723  0.1250  0.0344 -0.1293
  156loPI    C2 2482   6.607  16.823  10.792  0.1763 -0.0729  0.2196
  156loPI    C3 2483   6.857  17.073  10.979  0.2778 -0.0171  0.0134
  156loPI   PO4 2484   7.002  16.794  10.480  0.1381  0.0980 -0.0242
  156loPI   GL1 2485   6.681  16.751  10.159  0.1590  0.2634  0.0694
  156loPI   GL2 2486   6.865  16.994  10.080  0.0010 -0.1315 -0.2813
  156loPI   C1A 2487   6.603  16.405   9.820  0.1729  0.0680 -0.0594
  156loPI   C2A 2488   6.507  16.380   9.351  0.1782 -0.1920 -0.0901
  156loPI   C3A 2489   6.462  16.348   8.916  0.3597  0.0262 -0.0665
  156loPI   C4A 2490   6.534  16.478   8.463  0.1988 -0.1779 -0.1210
  156loPI   C5A 2491   6.788  16.375   8.050 -0.1273  0.2942  0.0549
  156loPI   C6A 2492   7.082  16.322   7.763 -0.3488 -0.2176  0.1149
  156loPI   C1B 2493   6.759  16.911   9.658 -0.0520 -0.0297 -0.1138
  156loPI   C2B 2494   6.730  16.839   9.183 -0.0380  0.0472  0.0992
  156loPI   C3B 2495   6.615  16.892   8.757 -0.0823 -0.2107 -0.1933
  156loPI   C4B 2496   6.964  16.767   8.380  0.2307 -0.1319 -0.1111
  157loPI    C1 2497  15.593   9.917  11.085 -0.0676 -0.0473  0.1062
  157loPI    C2 2498  15.416  10.195  11.311  0.2334  0.1953  0.0503
  157loPI    C3 2499  15.499   9.835  11.465  0.0044  0.1953  0.1780
  157loPI   PO4 2500  15.402   9.895  10.840 -0.1828 -0.0605  0.0041
  157loPI   GL1 2501  15.302  10.058  10.485 -0.2756 -0.0636  0.1787
  157loPI   GL2 2502  15.138   9.732  10.316  0.1448 -0.0534 -0.0020
  157loPI   C1A 2503  15.377  10.174  10.019  0.2321  0.0578  0.0029
  157loPI   C2A 2504  15.398  10.196   9.538  0.0554 -0.1320  0.0802
  157loPI   C3A 2505  15.395  10.162   9.163 -0.1166 -0.0031  0.3647
  157loPI   C4A 2506  15.361  10.211   8.726  0.4441  0.2655 -0.4848
  157loPI   C5A 2507  15.229  10.229   8.313  0.2266 -0.1809  0.0258
  157loPI   C6A 2508  15.525  10.234   7.990  0.1823  0.1680  0.3422
  157loPI   C1B 2509  15.147   9.717   9.892  0.0231  0.0807 -0.1237
  157loPI   C2B 2510  15.193   9.743   9.482 -0.1275 -0.2010  0.1091
  157loPI   C3B 2511  15.179   9.744   9.061  0.1828  0.0731 -0.1293
  157loPI   C4B 2512  15.153   9.758   8.614 -0.2308 -0.3194 -0.3656
  158loPI    C1 2513  16.854  16.671  10.986 -0.0075 -0.1475  0.0490
  158loPI    C2 2514  16.540  16.532  11.192 -0.1485  0.0259 -0.0465
  158loPI    C3 2515  16.837  16.720  11.383 -0.1600 -0.0327  0.0293
  158loPI   PO4 2516  16.742  16.728  10.636  0.2080 -0.0309 -0.0568
  158loPI   GL1 2517  16.905  16.897  10.270 -0.4399  0.1117  0.1734
  158loPI   GL2 2518  17.004  16.563  10.220  0.0764 -0.4009 -0.4095
  158loPI   C1A 2519  16.871  16.948   9.711 -0.1113  0.0247  0.0752
  158loPI   C2A 2520  16.910  16.956   9.244  0.1719 -0.5234 -0.1943
  158loPI   C3A 2521  16.828  17.041   8.892  0.0235  0.0191  0.1305
  158loPI   C4A 2522  16.786  17.062   8.428  0.0146 -0.1265 -0.4765
  158loPI   C5A 2523  16.803  16.758   8.047 -0.0740  0.3628 -0.1868
  158loPI   C6A 2524  17.030  16.385   7.942  0.1672  0.0562  0.1703
  158loPI   C1B 2525  17.122  16.506   9.758  0.0546  0.3607 -0.1155
  158loPI   C2B 2526  17.191  16.544   9.322  0.0492  0.3639 -0.1434
  158loPI   C3B 2527  17.126  16.533   8.905  0.2515 -0.1264  0.0506
  158loPI   C4B 2528  17.090  16.538   8.442  0.0612 -0.0891  0.1437
  159loPI    C1 2529  14.531  12.929  11.006 -0.0443  0.0111 -0.0203
  159loPI    C2 2530  14.193  13.029  11.195 -0.0562 -0.0538 -0.0072
  159loPI    C3 2531  14.493  13.293  11.168 -0.1713  0.0627 -0.1641
  159loPI   PO4 2532  14.437  12.862  10.751 -0.0862  0.2315  0.1854
  159loPI   GL1 2533  14.389  12.856  10.318  0.0821  0.0283 -0.0997
  159loPI   GL2 2534  14.645  12.890  10.266 -0.2305 -0.2957  0.0222
  159loPI   C1A 2535  14.196  12.766   9.919  0.0052  0.1830 -0.0922
  159loPI   C2A 2536  14.258  12.763   9.478 -0.5457  0.0692 -0.2626
  159loPI   C3A 2537  14.299  12.795   9.053 -0.1790  0.1386 -0.1356
  159loPI   C4A 2538  14.228  12.712   8.658 -0.0760  0.0165  0.2076
  159loPI   C5A 2539  14.303  12.789   8.305 -0.2492 -0.1675 -0.2682
  159loPI   C6A 2540  14.607  12.899   8.100  0.1071  0.2322  0.2590
  159loPI   C1B 2541  14.816  12.883   9.946 -0.3278 -0.0507  0.1856
  159loPI   C2B 2542  14.761  12.910   9.454 -0.1598  0.1747  0.0862
  159loPI   C3B 2543  14.760  12.814   9.073 -0.1439  0.0120 -0.1983
  159loPI   C4B 2544  14.705  12.834   8.628 -0.2994  0.1997  0.0177
  160loPI    C1 2545   0.744   4.152  10.568 -0.0751 -0.1158  0.0372
  160loPI    C2 2546   0.728   4.393  10.886  0.0568 -0.1806  0.0936
  160loPI    C3 2547   1.041   4.149  10.835  0.0170 -0.1997 -0.0649
  160loPI   PO4 2548   0.413   4.157  10.577  0.0716 -0.2746 -0.1788
  160loPI   GL1 2549   0.088   4.234  10.428  0.1129  0.0321 -0.1340
  160loPI   GL2 2550   0.262   4.050  10.128 -0.2994  0.1122 -0.1668
  160loPI   C1A 2551  -0.021   4.464  10.067  0.1757  0.0692  0.0692
  160loPI   C2A 2552   0.101   4.433   9.533  0.1322 -0.2829  0.1925
  160loPI   C3A 2553   0.045   4.573   9.128  0.0423  0.2815 -0.1217
  160loPI   C4A 2554  -0.009   4.588   8.680 -0.0820  0.1157  0.0020
  160loPI   C5A 2555   0.099   4.437   8.255 -0.2237  0.0079  0.2267
  160loPI   C6A 2556   0.075   4.303   7.850  0.6160 -0.3200 -0.1847
  160loPI   C1B 2557   0.342   3.994   9.612  0.1727 -0.1947 -0.1829
  160loPI   C2B 2558   0.359   4.115   9.190 -0.0378 -0.1641  0.5539
  160loPI   C3B 2559   0.275   4.182   8.744 -0.2709 -0.1197 -0.0347
  160loPI   C4B 2560   0.408   4.068   8.317 -0.1516 -0.2232  0.0732
  161loPI    C1 2561   6.465   2.066  10.775 -0.2794 -0.1066  0.1743
  161loPI    C2 2562   6.680   2.271  11.042  0.2210 -0.1582 -0.1744
  161loPI    C3 2563   6.411   2.002  11.166  0.1562  0.1025  0.2743
  161loPI   PO4 2564   6.665   1.931  10.601  0.0474  0.0361 -0.0914
  161loPI   GL1 2565   6.698   2.250  10.222 -0.3381  0.0755  0.0991
  161loPI   GL2 2566   6.925   1.968  10.106 -0.1625 -0.0267 -0.0168
  161loPI   C1A 2567   6.630   2.411   9.849  0.0695 -0.1242 -0.1503
  161loPI   C2A 2568   6.623   2.510   9.434 -0.3049  0.2995  0.2476
  161loPI   C3A 2569   6.627   2.519   8.955 -0.0855 -0.0374 -0.2039
  161loPI   C4A 2570   6.526   2.448   8.517  0.1687  0.2412 -0.0583
  161loPI   C5A 2571   6.573   2.675   8.138 -0.2330 -0.0289 -0.1815
  161loPI   C6A 2572   6.729   2.685   7.882  0.2638 -0.0160  0.3060
  161loPI   C1B 2573   6.997   1.959   9.613  0.1713 -0.4278 -0.0232
  161loPI   C2B 2574   6.895   2.065   9.151 -0.3680  0.0366 -0.1585
  161loPI   C3B 2575   6.798   2.042   8.729  0.0396  0.0497  0.1210
  161loPI   C4B 2576   6.702   1.854   8.317 -0.2112  0.3055  0.2467
  162loPI    C1 2577   6.802  16.402  10.925  0.2464 -0.0903 -0.2676
  162loPI    C2 2578   7.137  16.415  11.144  0.2155 -0.0765 -0.2213
  162loPI    C3 2579   6.780  16.445  11.322  0.1806 -0.3495 -0.2418
  162loPI   PO4 2580   6.921  16.274  10.721 -0.1765 -0.1827  0.1511
  162loPI   GL1 2581   6.963  16.317  10.306 -0.1786  0.0649 -0.2951
  162loPI   GL2 2582   6.762  16.052  10.205  0.3262  0.1533  0.2410
  162loPI   C1A 2583   7.040  16.382   9.888  0.1224  0.2032 -0.1111
  162loPI   C2A 2584   7.088  16.572   9.480  0.2384 -0.2556  0.3695
  162loPI   C3A 2585   7.069  16.461   9.044 -0.4109  0.1223 -0.0509
  162loPI   C4A 2586   7.175  16.446   8.617 -0.1054  0.0877 -0.0656
  162loPI   C5A 2587   7.278  16.404   8.224  0.0976 -0.4770 -0.1143
  162loPI   C6A 2588   7.628  16.589   8.070 -0.0433  0.2031  0.1178
  162loPI   C1B 2589   6.702  15.705   9.991 -0.2251  0.0722 -0.1623
  162loPI   C2B 2590   6.624  15.447   9.612 -0.3535 -0.0968 -0.0345
  162loPI   C3B 2591   6.654  15.560   9.140 -0.0433 -0.1067 -0.0064
  162loPI   C4B 2592   6.625  15.478   8.668 -0.0084 -0.1779  0.1155
  163loPI    C1 2593   9.053   2.653  11.235  0.0933 -0.1100 -0.0321
  163loPI    C2 2594   8.913   2.897  11.519  0.1350  0.0880 -0.1802
  163loPI    C3 2595   8.763   2.528  11.482 -0.1801  0.2129 -0.1826
  163loPI   PO4 2596   9.071   2.883  11.048  0.0730  0.0031 -0.3189
  163loPI   GL1 2597   9.046   3.009  10.564 -0.1814 -0.1913 -0.2971
  163loPI   GL2 2598   9.343   2.849  10.466  0.0847 -0.0257 -0.0130
  163loPI   C1A 2599   8.954   3.064  10.179 -0.1435 -0.4844 -0.0481
  163loPI   C2A 2600   8.917   3.009   9.775 -0.2293 -0.1096 -0.2670
  163loPI   C3A 2601   8.908   3.089   9.433  0.2052  0.1130  0.1116
  163loPI   C4A 2602   8.915   3.084   9.013  0.0538 -0.0755  0.2402
  163loPI   C5A 2603   8.863   2.992   8.583  0.0547 -0.3365 -0.1390
  163loPI   C6A 2604   8.884   2.780   8.119  0.1221 -0.0444  0.3055
  163loPI   C1B 2605   9.270   2.636  10.080 -0.0069  0.1259 -0.3458
  163loPI   C2B 2606   9.199   2.539   9.660 -0.2536  0.1628  0.1907
  163loPI   C3B 2607   9.242   2.614   9.201  0.0956  0.1321 -0.2034
  163loPI   C4B 2608   9.117   2.634   8.768  0.0823  0.1562 -0.0159
  164loPI    C1 2609  14.210   5.401  10.704  0.0372  0.2814 -0.0492
  164loPI    C2 2610  14.256   5.624  11.033  0.0425  0.1650  0.0292
  164loPI    C3 2611  14.040   5.287  11.048  0.2215  0.0455 -0.0337
  164loPI   PO4 2612  14.136   5.482  10.539 -0.2822  0.3530  0.0035
  164loPI   GL1 2613  13.943   5.276  10.218 -0.1371 -0.3284 -0.1263
  164loPI   GL2 2614  13.774   4.904  10.195  0.0829 -0.0234  0.0631
  164loPI   C1A 2615  13.956   5.169   9.750 -0.3590  0.1923 -0.0639
  164loPI   C2A 2616  13.905   5.172   9.298 -0.1732  0.3144 -0.3181
  164loPI   C3A 2617  13.898   5.104   8.916 -0.0356 -0.0403 -0.0973
  164loPI   C4A 2618  13.840   5.103   8.517  0.0012 -0.1122 -0.0764
  164loPI   C5A 2619  13.787   5.203   8.101  0.0388 -0.1949 -0.2056
  164loPI   C6A 2620  14.184   5.175   7.830  0.0215  0.1847 -0.2121
  164loPI   C1B 2621  13.693   4.733   9.758 -0.0415  0.1826  0.0149
  164loPI   C2B 2622  13.698   4.693   9.229 -0.0294 -0.0467  0.2137
  164loPI   C3B 2623  13.686   4.649   8.755  0.1105  0.0233 -0.3533
  164loPI   C4B 2624  13.571   4.812   8.255 -0.0513  0.3012  0.1316
  165loPI    C1 2625  11.210   9.475  11.026  0.0822  0.0567  0.1541
  165loPI    C2 2626  11.121   9.117  11.179 -0.1394  0.1066  0.1458
  165loPI    C3 2627  10.962   9.447  11.338 -0.1521  0.1805 -0.0177
  165loPI   PO4 2628  11.317   9.378  10.824 -0.4003 -0.1580  0.1798
  165loPI   GL1 2629  11.188   9.352  10.345 -0.1149  0.1286  0.0926
  165loPI   GL2 2630  10.839   9.218  10.326 -0.3932 -0.0980 -0.0158
  165loPI   C1A 2631  11.128   9.504   9.949  0.0957 -0.3043  0.3957
  165loPI   C2A 2632  11.046   9.532   9.543 -0.0273  0.0712 -0.2577
  165loPI   C3A 2633  11.023   9.525   9.157  0.0960 -0.1257  0.2027
  165loPI   C4A 2634  11.073   9.444   8.702 -0.1410 -0.0827  0.0341
  165loPI   C5A 2635  11.223   9.542   8.300  0.2601 -0.0436  0.0197
  165loPI   C6A 2636  11.434   9.612   7.865  0.0348  0.0170  0.0998
  165loPI   C1B 2637  10.632   9.387   9.965 -0.2308  0.5800  0.0496
  165loPI   C2B 2638  10.505   9.481   9.584 -0.0387  0.0566 -0.0677
  165loPI   C3B 2639  10.521   9.495   9.205  0.0520  0.1764 -0.0251
  165loPI   C4B 2640  10.534   9.464   8.777  0.1577  0.1038  0.0392
  166loPI    C1 2641   8.536   9.279  10.945  0.0458 -0.1845  0.0782
  166loPI    C2 2642   8.329   9.390  11.268  0.1305  0.0526  0.0532
  166loPI    C3 2643   8.393   9.002  11.195 -0.0986 -0.0128  0.1883
  166loPI   PO4 2644   8.659   9.557  10.867 -0.1512  0.2964  0.1540
  166loPI   GL1 2645   8.712   9.836  10.480  0.1660 -0.2061 -0.0178
  166loPI   GL2 2646   8.435   9.685  10.416 -0.1633  0.1556  0.1456
  166loPI   C1A 2647   8.828   9.866  10.166 -0.1643  0.1551 -0.0223
  166loPI   C2A 2648   8.785   9.803   9.707 -0.3599  0.3031 -0.1821
  166loPI   C3A 2649   8.685   9.839   9.306 -0.0058 -0.1268  0.1099
  166loPI   C4A 2650   8.688   9.878   8.811 -0.1137 -0.2326 -0.0451
  166loPI   C5A 2651   8.680   9.877   8.396 -0.0545 -0.1038 -0.3058
  166loPI   C6A 2652   9.005   9.745   8.092 -0.2321 -0.2690 -0.0392
  166loPI   C1B 2653   8.262   9.873  10.060  0.2575  0.2175 -0.0177
  166loPI   C2B 2654   8.240   9.834   9.569 -0.5257 -0.1177  0.4784
  166loPI   C3B 2655   8.204   9.860   9.066 -0.2159 -0.1096  0.0117
  166loPI   C4B 2656   8.160   9.965   8.585  0.3083  0.1547 -0.0018
  167loPI    C1 2657  12.773  16.700  10.210  0.1078 -0.2881 -0.0428
  167loPI    C2 2658  12.717  16.447  10.515 -0.0365  0.0025  0.1772
  167loPI    C3 2659  12.958  16.763  10.560  0.1164 -0.0734 -0.0849
  167loPI   PO4 2660  12.858  16.521  10.067 -0.0382  0.2406 -0.0587
  167loPI   GL1 2661  12.921  16.524   9.691  0.1630  0.1114 -0.1214
  167loPI   GL2 2662  12.617  16.190   9.492 -0.0021 -0.2092 -0.0932
  167loPI   C1A 2663  12.813  16.562   9.235  0.1340  0.0840  0.1513
  167loPI   C2A 2664  12.853  16.587   8.790  0.0909  0.0721  0.1471
  167loPI   C3A 2665  13.024  16.389   8.371 -0.0495  0.0340 -0.0657
  167loPI   C4A 2666  12.933  16.524   7.826 -0.2793  0.0026  0.1237
  167loPI   C5A 2667  13.166  16.682   7.466  0.1216  0.0338  0.0778
  167loPI   C6A 2668  13.458  16.986   7.252 -0.0885  0.0720 -0.1236
  167loPI   C1B 2669  12.436  16.211   9.040 -0.1618 -0.2675  0.3229
  167loPI   C2B 2670  12.530  16.302   8.563 -0.0574  0.1252 -0.2454
  167loPI   C3B 2671  12.485  16.361   8.114  0.2402  0.1996 -0.1071
  167loPI   C4B 2672  12.344  16.421   7.618  0.1583  0.1715 -0.0891
  168loPI    C1 2673  17.366  11.419  10.906  0.1766  0.1928  0.0402
  168loPI    C2 2674  17.569  11.100  11.038  0.2335  0.1598 -0.1246
  168loPI    C3 2675  17.325  11.299  11.286  0.0366 -0.1369 -0.0755
  168loPI   PO4 2676  17.287  11.365  10.717  0.1002 -0.0636 -0.1049
  168loPI   GL1 2677  17.288  11.389  10.418 -0.0451 -0.1978 -0.0447
  168loPI   GL2 2678  17.526  11.117  10.339  0.0396 -0.5273  0.1712
  168loPI   C1A 2679  17.166  11.438  10.001 -0.3585  0.0392  0.2131
  168loPI   C2A 2680  17.153  11.572   9.595  0.1332 -0.1358 -0.0624
  168loPI   C3A 2681  17.132  11.571   9.202 -0.2109  0.0659 -0.1824
  168loPI   C4A 2682  17.131  11.638   8.802 -0.0102 -0.1364 -0.0685
  168loPI   C5A 2683  17.122  11.675   8.424 -0.2656  0.3848 -0.1979
  168loPI   C6A 2684  17.117  11.793   8.018 -0.0548  0.1147 -0.0807
  168loPI   C1B 2685  17.428  11.004   9.950 -0.0211 -0.1183 -0.0047
  168loPI   C2B 2686  17.437  11.017   9.487  0.1124 -0.0127 -0.4400
  168loPI   C3B 2687  17.376  11.158   9.040  0.0970  0.2281  0.1531
  168loPI   C4B 2688  17.342  11.201   8.601 -0.1173 -0.0961  0.0015
  169loPI    C1 2689   3.454  11.554  11.117  0.0314  0.0576  0.0460
  169loPI    C2 2690   3.129  11.415  10.931  0.2574 -0.1434 -0.2071
  169loPI    C3 2691   3.124  11.471  11.327 -0.0450 -0.2579 -0.1922
  169loPI   PO4 2692   3.679  11.447  10.906  0.0640 -0.1029 -0.2718
  169loPI   GL1 2693   3.508  11.409  10.529 -0.3733 -0.0287 -0.4202
  169loPI   GL2 2694   3.596  11.240  10.446  0.0295 -0.2138 -0.1933
  169loPI   C1A 2695   3.245  11.695  10.190 -0.1261  0.2410 -0.0649
  169loPI   C2A 2696   3.146  11.780   9.755  0.1066 -0.0685 -0.0107
  169loPI   C3A 2697   3.198  11.785   9.369 -0.0278  0.1936  0.1742
  169loPI   C4A 2698   3.156  11.773   8.897 -0.2612  0.0946  0.2484
  169loPI   C5A 2699   2.879  11.782   8.534 -0.2216  0.0875 -0.1365
  169loPI   C6A 2700   2.464  11.926   8.572 -0.1416 -0.0442  0.1351
  169loPI   C1B 2701   3.502  11.285   9.966 -0.0663 -0.0206  0.0976
  169loPI   C2B 2702   3.442  11.333   9.506  0.0923  0.1312  0.0927
  169loPI   C3B 2703   3.521  11.357   9.060  0.1149 -0.0121  0.2405
  169loPI   C4B 2704   3.438  11.439   8.589  0.1363 -0.1462 -0.0989
  170loPI    C1 2705  11.103  10.179  10.756 -0.0156 -0.0827 -0.0369
  170loPI    C2 2706  11.184   9.924  11.054 -0.1395  0.0988  0.1552
  170loPI    C3 2707  11.242  10.317  11.105  0.1002  0.1081 -0.1569
  170loPI   PO4 2708  11.220  10.191  10.557 -0.2863  0.1079  0.0388
  170loPI   GL1 2709  11.373  10.102  10.215 -0.0251  0.0437 -0.4319
  170loPI   GL2 2710  11.508  10.434  10.149  0.0074  0.0929 -0.3213
  170loPI   C1A 2711  11.284   9.959   9.830  0.2288  0.1558  0.3747
  170loPI   C2A 2712  11.293   9.936   9.412  0.0811  0.4448 -0.1233
  170loPI   C3A 2713  11.260   9.938   8.985 -0.4624 -0.0571 -0.0412
  170loPI   C4A 2714  11.377   9.884   8.579  0.0569 -0.0711 -0.2404
  170loPI   C5A 2715  11.386  10.009   8.105 -0.1497 -0.1139  0.0807
  170loPI   C6A 2716  11.024   9.894   7.817  0.1242 -0.1864  0.0454
  170loPI   C1B 2717  11.564  10.378   9.681  0.1978 -0.1021  0.1136
  170loPI   C2B 2718  11.576  10.380   9.264 -0.0661  0.2086  0.1368
  170loPI   C3B 2719  11.466  10.397   8.950  0.2433 -0.1241  0.0466
  170loPI   C4B 2720  11.541  10.346   8.516 -0.0213 -0.3772 -0.0105
  171loPI    C1 2721  13.319  10.499  11.277 -0.0346  0.0126 -0.0631
  171loPI    C2 2722  13.546  10.828  11.303  0.0206 -0.0173 -0.1610
  171loPI    C3 2723  13.190  10.816  11.485  0.1037  0.0242  0.0062
  171loPI   PO4 2724  13.309  10.454  10.964 -0.0121 -0.1721  0.0563
  171loPI   GL1 2725  13.163  10.638  10.606 -0.0736 -0.3441  0.3542
  171loPI   GL2 2726  13.564  10.577  10.506 -0.2135  0.0241  0.1147
  171loPI   C1A 2727  13.316  10.904  10.259  0.1472  0.1780  0.3764
  171loPI   C2A 2728  13.290  10.945   9.835 -0.2846  0.1288  0.0029
  171loPI   C3A 2729  13.350  10.942   9.349  0.3393 -0.3396  0.1753
  171loPI   C4A 2730  13.307  10.935   8.966  0.1492 -0.1574  0.2280
  171loPI   C5A 2731  13.294  10.978   8.563 -0.0478  0.1663 -0.0092
  171loPI   C6A 2732  12.961  10.803   8.252 -0.0291 -0.1790  0.0558
  171loPI   C1B 2733  13.593  10.515  10.004 -0.0195 -0.1853 -0.0281
  171loPI   C2B 2734  13.596  10.517   9.506  0.1009  0.0233 -0.1383
  171loPI   C3B 2735  13.583  10.453   9.161  0.0198  0.0677 -0.0706
  171loPI   C4B 2736  13.525  10.527   8.685  0.0097 -0.3016 -0.2276
  172loPI    C1 2737   3.841   1.168  10.936 -0.0527  0.3231 -0.2407
  172loPI    C2 2738   3.455   1.138  11.039 -0.0001 -0.0143 -0.1308
  172loPI    C3 2739   3.739   1.116  11.320  0.1004  0.2702 -0.2067
  172loPI   PO4 2740   3.794   1.234  10.570  0.1744 -0.0121  0.1331
  172loPI   GL1 2741   3.726   1.115  10.200  0.1155 -0.0219  0.0450
  172loPI   GL2 2742   3.953   1.255   9.982  0.2393  0.1334 -0.3863
  172loPI   C1A 2743   3.499   1.262   9.916 -0.2565 -0.0639 -0.0650
  172loPI   C2A 2744   3.522   1.293   9.463 -0.0097 -0.4006 -0.1391
  172loPI   C3A 2745   3.541   1.308   9.010  0.0083  0.1060  0.0190
  172loPI   C4A 2746   3.480   1.291   8.646 -0.0080 -0.2501 -0.0017
  172loPI   C5A 2747   3.548   1.518   8.255 -0.0959  0.1824  0.0284
  172loPI   C6A 2748   3.314   1.797   8.010 -0.0861  0.1146  0.2928
  172loPI   C1B 2749   4.046   1.353   9.637  0.1933  0.1926 -0.0419
  172loPI   C2B 2750   4.038   1.332   9.238  0.1443 -0.0064  0.0892
  172loPI   C3B 2751   4.102   1.381   8.856 -0.1187  0.1404 -0.2232
  172loPI   C4B 2752   4.009   1.345   8.405  0.1629  0.0897 -0.2120
  173loPI    C1 2753  12.254  16.695  10.435 -0.2963 -0.0571 -0.0760
  173loPI    C2 2754  11.867  16.627  10.509 -0.3077  0.1982  0.1151
  173loPI    C3 2755  12.103  16.774  10.797 -0.0641  0.0328  0.0033
  173loPI   PO4 2756  12.266  16.794  10.209  0.3093 -0.1831 -0.2371
  173loPI   GL1 2757  12.225  17.193   9.913  0.2596 -0.0316  0.0851
  173loPI   GL2 2758  12.391  17.425   9.815  0.1386 -0.0904  0.0661
  173loPI   C1A 2759  12.127  17.044   9.510  0.1749 -0.1502 -0.0124
  173loPI   C2A 2760  12.010  17.104   9.076  0.1400 -0.0371 -0.0123
  173loPI   C3A 2761  11.873  17.194   8.654  0.1547  0.2189 -0.2772
  173loPI   C4A 2762  11.850  17.162   8.195  0.2073  0.0908 -0.0996
  173loPI   C5A 2763  12.048  17.280   7.873  0.0348  0.0851 -0.3598
  173loPI   C6A 2764  12.145  17.127   7.452 -0.0440  0.0973  0.0359
  173loPI   C1B 2765  12.265  17.542   9.351 -0.2044  0.4035  0.0390
  173loPI   C2B 2766  12.188  17.611   8.965 -0.0522  0.1741 -0.0662
  173loPI   C3B 2767  12.106  17.638   8.451  0.0690  0.1837  0.0058
  173loPI   C4B 2768  12.223  17.783   7.939 -0.1211 -0.1398  0.1416
  174loPI    C1 2769  15.391  16.057  10.986  0.0931 -0.0176  0.0274
  174loPI    C2 2770  15.091  16.317  10.936  0.2083  0.1193  0.0387
  174loPI    C3 2771  15.231  16.241  11.303  0.1683  0.0335  0.0364
  174loPI   PO4 2772  15.535  16.173  10.725 -0.0914  0.0689  0.0617
  174loPI   GL1 2773  15.496  16.009  10.288  0.0313 -0.2334 -0.2595
  174loPI   GL2 2774  15.785  15.973  10.094 -0.2450  0.2784  0.1136
  174loPI   C1A 2775  15.321  15.965   9.884 -0.2965 -0.0491 -0.1551
  174loPI   C2A 2776  15.403  16.002   9.498 -0.0668 -0.1965  0.1463
  174loPI   C3A 2777  15.426  15.967   9.031  0.1041 -0.0285 -0.2723
  174loPI   C4A 2778  15.287  16.059   8.635  0.3953 -0.1004 -0.1278
  174loPI   C5A 2779  15.488  16.188   8.202 -0.0465 -0.3819 -0.1606
  174loPI   C6A 2780  15.847  16.043   8.004 -0.1719  0.4182 -0.0345
  174loPI   C1B 2781  15.833  16.015   9.734 -0.0549  0.2118 -0.0502
  174loPI   C2B 2782  15.936  15.980   9.361  0.3914 -0.3127  0.0247
  174loPI   C3B 2783  15.956  16.020   8.937 -0.0820 -0.3380 -0.2175
  174loPI   C4B 2784  15.853  16.132   8.493 -0.1651 -0.0493 -0.0374
  175loPI    C1 2785  14.069   8.102  11.218  0.0121 -0.1346 -0.1217
  175loPI    C2 2786  13.916   7.927  11.544  0.1962 -0.4471 -0.1991
  175loPI    C3 2787  14.293   8.062  11.547 -0.0073  0.1482 -0.0717
  175loPI   PO4 2788  14.041   7.857  11.007 -0.0072  0.1637 -0.1460
  175loPI   GL1 2789  13.919   7.635  10.567 -0.0420  0.2544 -0.1647
  175loPI   GL2 2790  14.044   7.974  10.452  0.0782  0.2352  0.0784
  175loPI   C1A 2791  14.027   7.432  10.242 -0.1249  0.1471  0.3070
  175loPI   C2A 2792  14.096   7.424   9.801  0.3570 -0.0307 -0.0550
  175loPI   C3A 2793  14.066   7.437   9.320  0.0640  0.1517  0.1932
  175loPI   C4A 2794  14.034   7.473   8.967 -0.6308 -0.2451 -0.0723
  175loPI   C5A 2795  14.008   7.403   8.441 -0.0094  0.0751 -0.1302
  175loPI   C6A 2796  14.263   7.592   8.062  0.0782 -0.1870  0.1945
  175loPI   C1B 2797  13.791   7.842  10.082  0.1549 -0.1480 -0.1568
  175loPI   C2B 2798  13.815   7.769   9.585 -0.4677  0.1422  0.2239
  175loPI   C3B 2799  13.751   7.863   9.135 -0.0239  0.3950  0.0897
  175loPI   C4B 2800  13.789   7.898   8.764  0.2501  0.1566 -0.0111
  176loPI    C1 2801   4.740   0.282  11.037 -0.0775  0.0859  0.1489
  176loPI    C2 2802   4.510   0.149  11.335 -0.1842  0.3442  0.1847
  176loPI    C3 2803   4.870   0.304  11.415 -0.0810  0.1277  0.1476
  176loPI   PO4 2804   4.693   0.005  10.816  0.1039 -0.0272 -0.0431
  176loPI   GL1 2805   4.648  -0.022  10.396  0.1473  0.2178  0.0666
  176loPI   GL2 2806   4.453  -0.184  10.353  0.0372 -0.1741 -0.0876
  176loPI   C1A 2807   4.819  -0.026   9.969  0.3107  0.0414  0.0157
  176loPI   C2A 2808   4.909   0.043   9.452 -0.1993 -0.0227  0.4188
  176loPI   C3A 2809   4.869   0.012   8.938 -0.1279 -0.1997 -0.1013
  176loPI   C4A 2810   4.863   0.076   8.483  0.2138  0.2066 -0.2080
  176loPI   C5A 2811   4.594  -0.120   8.147  0.1650  0.0099  0.0782
  176loPI   C6A 2812   4.749  -0.360   7.876  0.0124  0.1673  0.1942
  176loPI   C1B 2813   4.332  -0.044   9.890 -0.0424 -0.1272  0.1637
  176loPI   C2B 2814   4.310   0.045   9.519  0.1106  0.1028 -0.2987
  176loPI   C3B 2815   4.374   0.062   9.071 -0.0528 -0.1102 -0.0955
  176loPI   C4B 2816   4.412   0.090   8.587  0.0465  0.1169 -0.0863
  177loPI    C1 2817  15.374   1.724  10.540 -0.0282 -0.0664 -0.1220
  177loPI    C2 2818  15.154   1.627  10.860 -0.1120  0.0903 -0.1311
  177loPI    C3 2819  15.447   1.896  10.893 -0.1384  0.1267 -0.1919
  177loPI   PO4 2820  15.223   1.828  10.350 -0.1027  0.0974 -0.1483
  177loPI   GL1 2821  14.839   2.047  10.241  0.1139 -0.0359  0.0313
  177loPI   GL2 2822  14.630   1.821  10.115  0.0122  0.1616  0.1139
  177loPI   C1A 2823  14.956   2.138   9.787  0.1193  0.2287 -0.0380
  177loPI   C2A 2824  14.978   2.023   9.372  0.0089  0.1291  0.1901
  177loPI   C3A 2825  14.991   2.031   8.941  0.0028 -0.0680 -0.1639
  177loPI   C4A 2826  14.994   2.060   8.504  0.0363 -0.2496 -0.2435
  177loPI   C5A 2827  14.985   1.976   8.000  0.0737  0.1817  0.0319
  177loPI   C6A 2828  15.168   2.077   7.575  0.0630 -0.0612 -0.1863
  177loPI   C1B 2829  14.697   1.613   9.557 -0.2356  0.3352  0.1228
  177loPI   C2B 2830  14.713   1.641   9.105  0.4212  0.0973  0.1207
  177loPI   C3B 2831  14.615   1.610   8.699  0.1094 -0.3480 -0.2407
  177loPI   C4B 2832  14.665   1.565   8.207 -0.0466  0.0144 -0.3173
  178loPI    C1 2833  16.303  15.719  10.937  0.1142  0.2333 -0.0126
  178loPI    C2 2834  16.433  15.984  11.207 -0.0934  0.1945  0.1279
  178loPI    C3 2835  16.290  15.630  11.327  0.1023  0.0516 -0.0535
  178loPI   PO4 2836  16.497  15.777  10.708  0.0596 -0.3270 -0.0083
  178loPI   GL1 2837  16.650  15.570  10.334  0.0522 -0.0858  0.0692
  178loPI   GL2 2838  16.451  15.902  10.232  0.3236  0.0943 -0.3919
  178loPI   C1A 2839  16.652  15.608   9.856  0.0422 -0.1234  0.3040
  178loPI   C2A 2840  16.657  15.561   9.390 -0.1070 -0.2535 -0.1206
  178loPI   C3A 2841  16.693  15.708   8.880  0.3509  0.1588 -0.0649
  178loPI   C4A 2842  16.726  15.696   8.497  0.0059 -0.0595 -0.1592
  178loPI   C5A 2843  16.818  16.019   8.291 -0.2161 -0.1895 -0.1743
  178loPI   C6A 2844  16.434  16.256   8.071 -0.1045  0.0313 -0.1410
  178loPI   C1B 2845  16.388  15.983   9.863  0.1473 -0.2766 -0.0299
  178loPI   C2B 2846  16.444  16.008   9.475 -0.0904 -0.2299 -0.3037
  178loPI   C3B 2847  16.483  16.108   9.046 -0.1323 -0.1899  0.1681
  178loPI   C4B 2848  16.417  16.117   8.656 -0.1084 -0.1019  0.0889
  179loPI    C1 2849  13.950  13.415  10.936  0.0926  0.1380  0.0662
  179loPI    C2 2850  14.106  13.527  11.287  0.1294  0.0069  0.0921
  179loPI    C3 2851  13.948  13.801  11.042  0.3962  0.1414  0.0668
  179loPI   PO4 2852  14.116  13.260  10.714 -0.0272  0.0454  0.0160
  179loPI   GL1 2853  14.298  13.305  10.341 -0.0804  0.1736 -0.2162
  179loPI   GL2 2854  13.998  13.219  10.206 -0.3305  0.3728 -0.0377
  179loPI   C1A 2855  14.466  13.210   9.919 -0.0841  0.1773 -0.2829
  179loPI   C2A 2856  14.460  13.322   9.545 -0.0373 -0.1628 -0.2338
  179loPI   C3A 2857  14.464  13.241   9.096  0.0039 -0.1633 -0.0521
  179loPI   C4A 2858  14.405  13.218   8.625  0.0225 -0.1676 -0.0790
  179loPI   C5A 2859  14.298  13.318   8.217 -0.1639 -0.0095 -0.1400
  179loPI   C6A 2860  14.007  13.604   8.047 -0.0130  0.2923 -0.2021
  179loPI   C1B 2861  13.992  13.209   9.812 -0.1346 -0.3818 -0.0964
  179loPI   C2B 2862  13.890  13.160   9.380 -0.2249 -0.0319  0.2105
  179loPI   C3B 2863  13.928  13.245   8.947 -0.0134 -0.0005  0.4545
  179loPI   C4B 2864  13.915  13.290   8.568 -0.1876 -0.0059  0.0462
  180loPI    C1 2865   2.405  14.854  11.056 -0.0895 -0.1185  0.0434
  180loPI    C2 2866   2.396  15.206  11.245  0.0987 -0.0940  0.0084
  180loPI    C3 2867   2.418  14.866  11.456 -0.2085 -0.0922  0.0468
  180loPI   PO4 2868   2.582  14.904  10.882 -0.3274 -0.1722 -0.1708
  180loPI   GL1 2869   2.775  14.879  10.442  0.1417  0.0319  0.0625
  180loPI   GL2 2870   2.946  14.664  10.547  0.0153  0.0924 -0.0224
  180loPI   C1A 2871   2.771  14.854  10.035 -0.0235  0.0273 -0.2796
  180loPI   C2A 2872   2.738  14.876   9.645  0.0860 -0.1267  0.0502
  180loPI   C3A 2873   2.707  14.917   9.120 -0.0937  0.0419 -0.1023
  180loPI   C4A 2874   2.689  14.822   8.676 -0.0815  0.0611 -0.1476
  180loPI   C5A 2875   2.309  14.604   8.435  0.2764 -0.3106 -0.1204
  180loPI   C6A 2876   1.931  14.421   8.298 -0.0173  0.2151  0.5072
  180loPI   C1B 2877   3.019  14.447  10.234  0.1170  0.2690  0.1244
  180loPI   C2B 2878   3.055  14.476   9.761 -0.2531  0.0811  0.0091
  180loPI   C3B 2879   3.027  14.521   9.339  0.4823  0.0998  0.4096
  180loPI   C4B 2880   3.073  14.423   8.903  0.0112 -0.0225 -0.3718
  181loPI    C1 2881  13.149   8.190  10.886 -0.1641  0.3210 -0.1468
  181loPI    C2 2882  13.174   8.488  11.151 -0.1044 -0.0441  0.2690
  181loPI    C3 2883  12.951   8.166  11.233  0.0432 -0.2337 -0.0565
  181loPI   PO4 2884  13.254   8.295  10.680  0.0070 -0.0394 -0.1187
  181loPI   GL1 2885  13.541   8.161  10.378 -0.0950  0.0009 -0.0290
  181loPI   GL2 2886  13.533   8.519  10.328  0.2958  0.1074  0.0923
  181loPI   C1A 2887  13.512   8.246   9.922 -0.0751  0.0724  0.2361
  181loPI   C2A 2888  13.441   8.214   9.463 -0.1670  0.0377 -0.2100
  181loPI   C3A 2889  13.410   8.258   9.049  0.0505 -0.1160 -0.0576
  181loPI   C4A 2890  13.470   8.276   8.723  0.2243  0.0762  0.0082
  181loPI   C5A 2891  13.387   8.007   8.354  0.1541 -0.1977  0.1596
  181loPI   C6A 2892  13.056   7.786   8.228  0.2075 -0.2108 -0.3819
  181loPI   C1B 2893  13.714   8.709   9.998 -0.0470 -0.0643  0.0926
  181loPI   C2B 2894  13.658   8.751   9.613 -0.0097 -0.0082 -0.0749
  181loPI   C3B 2895  13.624   8.795   9.306  0.3602  0.2376 -0.0121
  181loPI   C4B 2896  13.706   8.718   8.898 -0.1975 -0.0280  0.3045
  182loPI    C1 2897  12.689   7.022  11.165 -0.0466  0.1573 -0.0075
  182loPI    C2 2898  13.052   7.110  11.307 -0.0058  0.1907 -0.1314
  182loPI    C3 2899  12.738   7.094  11.555  0.1490 -0.2364  0.0454
  182loPI   PO4 2900  12.740   6.912  10.971 -0.0855  0.2275  0.0531
  182loPI   GL1 2901  12.882   6.986  10.563  0.2472 -0.0175 -0.2745
  182loPI   GL2 2902  12.963   6.768  10.477 -0.0914 -0.0791 -0.1599
  182loPI   C1A 2903  13.006   7.299  10.287  0.1860  0.1152 -0.2540
  182loPI   C2A 2904  13.079   7.358   9.823 -0.0256  0.0112  0.0858
  182loPI   C3A 2905  13.077   7.376   9.464 -0.0051  0.1589 -0.0690
  182loPI   C4A 2906  13.017   7.277   9.014  0.0029 -0.4912  0.0109
  182loPI   C5A 2907  13.134   7.286   8.608  0.1607 -0.2880 -0.1257
  182loPI   C6A 2908  13.336   7.042   8.271  0.1459 -0.0876 -0.0439
  182loPI   C1B 2909  12.836   6.929  10.061 -0.1717  0.0197  0.2451
  182loPI   C2B 2910  12.773   6.899   9.603 -0.1109 -0.1422 -0.0689
  182loPI   C3B 2911  12.861   6.813   9.105  0.0103 -0.0329  0.0668
  182loPI   C4B 2912  12.767   6.844   8.708 -0.1610 -0.1287 -0.0944
  183loPI    C1 2913   3.753   3.009  10.381  0.0548 -0.0003 -0.0788
  183loPI    C2 2914   3.885   3.289  10.634 -0.0737 -0.1323  0.1376
  183loPI    C3 2915   3.641   3.001  10.765 -0.1568 -0.1920 -0.1425
  183loPI   PO4 2916   3.657   3.047  10.134  0.1091 -0.1951  0.0191
  183loPI   GL1 2917   3.653   3.183   9.766  0.0290  0.0311 -0.3203
  183loPI   GL2 2918   3.934   3.250   9.800 -0.0180  0.1521  0.0152
  183loPI   C1A 2919   3.585   2.918   9.512 -0.1192  0.0393  0.5199
  183loPI   C2A 2920   3.420   3.043   9.059 -0.1417  0.0677 -0.1024
  183loPI   C3A 2921   3.426   3.268   8.629  0.0825 -0.3316 -0.2430
  183loPI   C4A 2922   3.346   3.314   8.200 -0.1737  0.0635  0.2742
  183loPI   C5A 2923   3.655   3.136   7.930  0.2491  0.1233  0.1290
  183loPI   C6A 2924   3.974   3.236   7.513  0.1786 -0.3233 -0.2385
  183loPI   C1B 2925   3.789   3.297   9.268 -0.0133 -0.0158  0.1923
  183loPI   C2B 2926   3.877   3.352   8.808 -0.2176 -0.0376 -0.1066
  183loPI   C3B 2927   3.994   3.283   8.354  0.0465  0.1873  0.0345
  183loPI   C4B 2928   4.145   3.306   7.978 -0.0497 -0.3522 -0.0555
  184loPI    C1 2929  17.248  11.838  11.139  0.3494  0.1176  0.0330
  184loPI    C2 2930  17.004  11.744  11.441  0.2103  0.0601 -0.0959
  184loPI    C3 2931  17.400  11.731  11.493  0.1871  0.1221  0.1048
  184loPI   PO4 2932  16.969  11.777  10.895  0.3749 -0.0489 -0.1635
  184loPI   GL1 2933  17.068  11.843  10.433  0.2375  0.1223 -0.0925
  184loPI   GL2 2934  17.340  11.918  10.314 -0.1955  0.0167 -0.2669
  184loPI   C1A 2935  16.903  11.944  10.052  0.2898 -0.1506  0.1094
  184loPI   C2A 2936  16.865  11.974   9.576  0.0954 -0.2523  0.0626
  184loPI   C3A 2937  16.846  12.000   9.109 -0.2719  0.0617  0.1747
  184loPI   C4A 2938  16.795  12.056   8.671 -0.2327  0.0677 -0.0609
  184loPI   C5A 2939  16.683  12.080   8.236  0.2420  0.0712 -0.0637
  184loPI   C6A 2940  16.318  12.120   8.155 -0.1733  0.0671  0.1706
  184loPI   C1B 2941  17.375  11.945   9.932  0.1576  0.2219  0.1987
  184loPI   C2B 2942  17.400  12.036   9.518  0.1673 -0.2318 -0.2059
  184loPI   C3B 2943  17.331  12.054   9.143 -0.1026 -0.1393  0.3382
  184loPI   C4B 2944  17.330  12.078   8.726 -0.1941 -0.1810  0.1449
  185loPI    C1 2945   4.130   8.782  11.242  0.0475  0.0698 -0.0484
  185loPI    C2 2946   4.466   8.584  11.331  0.0735  0.0692 -0.1467
  185loPI    C3 2947   4.280   8.799  11.613  0.1095  0.0007 -0.0701
  185loPI   PO4 2948   4.177   8.902  10.997 -0.0883  0.1411 -0.1373
  185loPI   GL1 2949   3.994   8.844  10.581  0.0217 -0.1305  0.1205
  185loPI   GL2 2950   4.293   8.637  10.565 -0.1340  0.1276 -0.1628
  185loPI   C1A 2951   3.964   9.076  10.259  0.1443 -0.1721  0.3706
  185loPI   C2A 2952   3.894   9.084   9.814  0.1615  0.0724 -0.2829
  185loPI   C3A 2953   3.827   9.133   9.425 -0.0708 -0.1607  0.0266
  185loPI   C4A 2954   3.901   9.159   8.961  0.1758  0.1372 -0.0104
  185loPI   C5A 2955   3.896   9.398   8.629 -0.1672 -0.2875 -0.1132
  185loPI   C6A 2956   4.059   9.756   8.396 -0.1645  0.2093  0.1477
  185loPI   C1B 2957   4.193   8.635  10.156 -0.2567 -0.0668 -0.2843
  185loPI   C2B 2958   4.189   8.688   9.867 -0.1044 -0.2511 -0.1789
  185loPI   C3B 2959   4.124   8.642   9.464 -0.3151 -0.1590  0.0044
  185loPI   C4B 2960   4.126   8.732   8.989 -0.2918  0.3396  0.1990
  186loPI    C1 2961   2.219   9.556  11.157  0.2130 -0.0669  0.0805
  186loPI    C2 2962   2.039   9.912  11.183  0.0823 -0.1083 -0.2156
  186loPI    C3 2963   1.929   9.614  11.426  0.2088  0.0579  0.0497
  186loPI   PO4 2964   2.251   9.540  10.851 -0.1426 -0.0997  0.0219
  186loPI   GL1 2965   2.135   9.306  10.598  0.0343  0.0796 -0.1000
  186loPI   GL2 2966   2.136   9.475  10.365  0.0111 -0.3233  0.0762
  186loPI   C1A 2967   1.839   9.057  10.292  0.0072  0.0656  0.1007
  186loPI   C2A 2968   1.801   9.046   9.844  0.0202 -0.0819  0.0164
  186loPI   C3A 2969   1.804   9.066   9.386 -0.5503 -0.2425  0.0802
  186loPI   C4A 2970   1.799   9.036   8.924  0.0576 -0.2067  0.2504
  186loPI   C5A 2971   1.644   8.964   8.535  0.2039  0.2369  0.3747
  186loPI   C6A 2972   1.313   8.663   8.405  0.1171 -0.0608  0.0990
  186loPI   C1B 2973   2.084   9.485   9.977 -0.2280  0.0963  0.1086
  186loPI   C2B 2974   2.092   9.505   9.411  0.1072  0.3233  0.2169
  186loPI   C3B 2975   2.053   9.521   9.026 -0.1731 -0.0654  0.2147
  186loPI   C4B 2976   1.988   9.448   8.630 -0.0352 -0.4947  0.2045
  187loPI    C1 2977  17.877   3.253  10.948  0.1852  0.2431 -0.0345
  187loPI    C2 2978  18.123   2.996  11.131 -0.0100  0.0459 -0.0436
  187loPI    C3 2979  17.968   3.304  11.334  0.2918  0.2096 -0.0547
  187loPI   PO4 2980  18.019   3.227  10.655  0.0612 -0.0251 -0.1881
  187loPI   GL1 2981  18.029   3.087  10.255 -0.3865 -0.0397 -0.1058
  187loPI   GL2 2982  17.779   2.823  10.263  0.2019 -0.1852  0.1888
  187loPI   C1A 2983  17.961   3.095   9.807 -0.0269 -0.1610  0.1601
  187loPI   C2A 2984  17.979   3.128   9.397  0.1973 -0.0317  0.0552
  187loPI   C3A 2985  18.041   3.135   8.932  0.2184  0.0833 -0.1294
  187loPI   C4A 2986  18.005   3.190   8.510 -0.0871 -0.0558 -0.1210
  187loPI   C5A 2987  18.135   2.942   8.194  0.0306  0.0029 -0.0684
  187loPI   C6A 2988  18.436   2.789   7.972 -0.0504 -0.2854  0.0352
  187loPI   C1B 2989  17.525   2.900   9.826  0.0484  0.1354  0.2286
  187loPI   C2B 2990  17.490   3.062   9.466  0.1107  0.0442  0.1193
  187loPI   C3B 2991  17.539   3.148   8.972  0.1617 -0.1155 -0.1579
  187loPI   C4B 2992  17.492   3.222   8.544  0.1824  0.0986 -0.0917
  188loPI    C1 2993  12.225   6.157  11.120 -0.1936 -0.0614 -0.1959
  188loPI    C2 2994  12.266   5.788  11.269  0.0756  0.0685  0.0612
  188loPI    C3 2995  11.918   5.981  11.307 -0.0139 -0.0939  0.0744
  188loPI   PO4 2996  12.260   6.110  10.878 -0.0354 -0.0472 -0.0723
  188loPI   GL1 2997  12.370   6.093  10.507  0.0322  0.0053 -0.1699
  188loPI   GL2 2998  12.107   5.866  10.478 -0.3718 -0.0329  0.1663
  188loPI   C1A 2999  12.335   5.972  10.025 -0.3097  0.1130  0.0351
  188loPI   C2A 3000  12.374   5.970   9.581 -0.0154  0.0267 -0.3118
  188loPI   C3A 3001  12.347   5.894   9.175  0.0585 -0.0608 -0.0194
  188loPI   C4A 3002  12.306   5.969   8.769  0.1242 -0.2009 -0.2212
  188loPI   C5A 3003  12.292   5.942   8.384  0.0140  0.3554  0.0386
  188loPI   C6A 3004  12.375   5.592   8.135 -0.0772  0.1859 -0.0716
  188loPI   C1B 3005  12.070   5.560  10.177  0.1322  0.4933  0.0095
  188loPI   C2B 3006  12.075   5.505   9.741 -0.0372  0.1376 -0.0462
  188loPI   C3B 3007  12.138   5.468   9.310 -0.1344  0.0701 -0.2409
  188loPI   C4B 3008  12.150   5.517   8.825 -0.0204 -0.1284 -0.1372
  189loPI    C1 3009  12.229   7.168  11.030  0.1296  0.1332  0.0050
  189loPI    C2 3010  11.957   6.960  11.236  0.2203  0.0698  0.0617
  189loPI    C3 3011  12.252   7.148  11.429  0.1515  0.2332  0.0089
  189loPI   PO4 3012  12.274   7.108  10.763 -0.1636  0.1886  0.1480
  189loPI   GL1 3013  12.366   7.366  10.377  0.0628  0.0716  0.0219
  189loPI   GL2 3014  12.604   7.625  10.407 -0.1042 -0.1654  0.1006
  189loPI   C1A 3015  12.483   7.342   9.892 -0.0832 -0.1158  0.0906
  189loPI   C2A 3016  12.566   7.334   9.440 -0.1252  0.1531  0.3827
  189loPI   C3A 3017  12.553   7.227   9.070  0.2324 -0.2535 -0.0089
  189loPI   C4A 3018  12.472   7.229   8.587  0.0021  0.0383 -0.0778
  189loPI   C5A 3019  12.614   7.584   8.251  0.3721 -0.0006  0.0183
  189loPI   C6A 3020  12.718   7.455   7.835  0.1041  0.1013 -0.1753
  189loPI   C1B 3021  12.749   7.771   9.999 -0.0734 -0.0896  0.1782
  189loPI   C2B 3022  12.707   7.812   9.575 -0.1507  0.2602 -0.0378
  189loPI   C3B 3023  12.755   7.700   9.082 -0.0309  0.1384  0.0144
  189loPI   C4B 3024  12.763   7.736   8.701 -0.1708 -0.0327  0.1262
  190loPI    C1 3025   6.122   0.147  10.957 -0.0098  0.2496  0.1664
  190loPI    C2 3026   6.403  -0.107  11.086 -0.0572  0.0595 -0.0980
  190loPI    C3 3027   6.331   0.230  11.289  0.1479 -0.0377  0.1422
  190loPI   PO4 3028   6.173   0.076  10.674 -0.0521  0.1311 -0.5076
  190loPI   GL1 3029   6.203   0.057  10.306  0.1812 -0.0457  0.0076
  190loPI   GL2 3030   6.054   0.232  10.111 -0.1073  0.1437  0.0408
  190loPI   C1A 3031   6.186  -0.333   9.993 -0.2672  0.1450 -0.1641
  190loPI   C2A 3032   6.239  -0.295   9.567  0.1460  0.0247  0.0398
  190loPI   C3A 3033   6.197  -0.348   9.150 -0.2268 -0.0251 -0.1387
  190loPI   C4A 3034   6.174  -0.305   8.716 -0.1864  0.1136 -0.0410
  190loPI   C5A 3035   6.255  -0.230   8.258 -0.0872  0.1547  0.1200
  190loPI   C6A 3036   6.459  -0.042   7.903 -0.0890 -0.2158 -0.2158
  190loPI   C1B 3037   5.852   0.043   9.808 -0.0668 -0.1025  0.0015
  190loPI   C2B 3038   5.925   0.014   9.383  0.0210  0.1145  0.2538
  190loPI   C3B 3039   5.942   0.141   8.908  0.0873 -0.0329 -0.1625
  190loPI   C4B 3040   5.846   0.103   8.443  0.0526  0.0686  0.0626
  191loPI    C1 3041   1.626   5.488  10.734 -0.0622  0.3582 -0.0692
  191loPI    C2 3042   1.960   5.703  10.789  0.0171  0.1983  0.0832
  191loPI    C3 3043   1.708   5.643  11.094 -0.0006  0.0689  0.0438
  191loPI   PO4 3044   1.546   5.605  10.517 -0.0222  0.0984 -0.0650
  191loPI   GL1 3045   1.182   5.748  10.380 -0.4130  0.1789  0.3632
  191loPI   GL2 3046   1.006   5.517  10.429 -0.1752 -0.0326  0.1555
  191loPI   C1A 3047   1.164   5.934  10.034 -0.2270  0.2915 -0.0854
  191loPI   C2A 3048   1.218   5.921   9.619 -0.1846  0.0345  0.2109
  191loPI   C3A 3049   1.195   5.862   9.143  0.0835  0.3363 -0.1463
  191loPI   C4A 3050   1.078   5.854   8.620  0.2972  0.0629 -0.0262
  191loPI   C5A 3051   1.025   5.666   8.261  0.1135  0.1392  0.2680
  191loPI   C6A 3052   1.146   5.636   7.873 -0.3957 -0.0931  0.1294
  191loPI   C1B 3053   0.893   5.453  10.047  0.0047  0.1132 -0.2349
  191loPI   C2B 3054   0.987   5.490   9.548 -0.1299  0.2509  0.2220
  191loPI   C3B 3055   0.937   5.445   9.093 -0.1208 -0.2636  0.1196
  191loPI   C4B 3056   0.862   5.431   8.696 -0.1546 -0.0921  0.0990
  192loPI    C1 3057   4.115   6.012  11.123  0.2541  0.0587 -0.2104
  192loPI    C2 3058   4.372   6.201  11.364  0.0161  0.1989 -0.0624
  192loPI    C3 3059   4.231   5.841  11.465  0.2267  0.0776 -0.1916
  192loPI   PO4 3060   4.239   6.029  10.848 -0.0494  0.0917  0.1757
  192loPI   GL1 3061   4.206   5.876  10.427 -0.0154 -0.2547 -0.4403
  192loPI   GL2 3062   3.926   5.841  10.499 -0.1812  0.0584 -0.0292
  192loPI   C1A 3063   4.353   6.075  10.078  0.2339 -0.0380  0.2905
  192loPI   C2A 3064   4.283   6.087   9.626 -0.0264  0.0808 -0.0224
  192loPI   C3A 3065   4.238   6.036   9.208 -0.0002  0.4254  0.4037
  192loPI   C4A 3066   4.351   6.006   8.730 -0.3732  0.1974  0.0210
  192loPI   C5A 3067   4.334   5.832   8.280 -0.0724  0.0333 -0.5898
  192loPI   C6A 3068   4.366   5.418   7.988  0.0393 -0.0346  0.2917
  192loPI   C1B 3069   3.786   5.980  10.018 -0.1235  0.0954  0.2710
  192loPI   C2B 3070   3.760   5.980   9.625 -0.0599  0.0893  0.0497
  192loPI   C3B 3071   3.731   6.078   9.212 -0.1660  0.1226  0.0391
  192loPI   C4B 3072   3.819   6.059   8.897 -0.0497 -0.1440 -0.1429
  193loPI    C1 3073   2.894  14.784  11.352 -0.1287 -0.0571  0.0779
  193loPI    C2 3074   3.227  15.003  11.388 -0.1627  0.0256 -0.0978
  193loPI    C3 3075   3.014  14.907  11.713  0.0455 -0.0492  0.0182
  193loPI   PO4 3076   2.936  14.608  11.231 -0.0435  0.0037  0.0002
  193loPI   GL1 3077   2.863  14.290  10.856 -0.0638  0.2407  0.0378
  193loPI   GL2 3078   2.526  14.425  10.808 -0.4165  0.0128 -0.2046
  193loPI   C1A 3079   2.825  14.052  10.507 -0.2019 -0.0333  0.0571
  193loPI   C2A 3080   2.833  13.929  10.001  0.1927  0.2426 -0.0412
  193loPI   C3A 3081   2.735  14.071   9.571 -0.2253 -0.2721  0.0154
  193loPI   C4A 3082   2.809  14.063   9.168  0.2096  0.1637  0.0302
  193loPI   C5A 3083   2.729  14.051   8.777  0.0963 -0.0359  0.1114
  193loPI   C6A 3084   2.409  14.111   8.521  0.1254 -0.2689 -0.0143
  193loPI   C1B 3085   2.549  14.478  10.315  0.0368  0.1653  0.1656
  193loPI   C2B 3086   2.508  14.408   9.893 -0.2147 -0.0700  0.2475
  193loPI   C3B 3087   2.463  14.447   9.456 -0.1492  0.0071  0.1819
  193loPI   C4B 3088   2.466  14.438   8.983 -0.1515  0.2884  0.0288
  194loPI    C1 3089  10.859   0.313  10.677  0.3258  0.2198 -0.0955
  194loPI    C2 3090  10.883   0.646  10.896  0.0383  0.1095  0.1113
  194loPI    C3 3091  11.104   0.327  10.992  0.0615  0.1278  0.1187
  194loPI   PO4 3092  10.891   0.443  10.429 -0.1960  0.0986 -0.2624
  194loPI   GL1 3093  10.724   0.590  10.078  0.1506  0.1368 -0.1558
  194loPI   GL2 3094  10.827   0.883   9.895  0.0721  0.0002  0.4963
  194loPI   C1A 3095  10.518   0.432   9.667  0.1452 -0.0679  0.4463
  194loPI   C2A 3096  10.520   0.394   9.264  0.1711 -0.0499  0.1031
  194loPI   C3A 3097  10.589   0.360   8.803  0.2049  0.1768  0.3048
  194loPI   C4A 3098  10.644   0.351   8.429 -0.0836 -0.1325 -0.1600
  194loPI   C5A 3099  10.609   0.568   8.056 -0.1240  0.2227 -0.4624
  194loPI   C6A 3100  10.100   0.629   7.957 -0.4783 -0.0340 -0.3607
  194loPI   C1B 3101  10.774   0.847   9.456  0.0833  0.2769 -0.1531
  194loPI   C2B 3102  10.875   0.902   8.970 -0.0303  0.2612  0.1375
  194loPI   C3B 3103  10.802   0.820   8.597  0.0095 -0.0567  0.1788
  194loPI   C4B 3104  10.784   1.022   8.221 -0.0575 -0.0659 -0.0474
  195loPI    C1 3105  15.375   6.172  10.851 -0.0911  0.1569 -0.1810
  195loPI    C2 3106  15.141   6.199  11.174  0.3734 -0.0396  0.1847
  195loPI    C3 3107  15.257   5.840  11.042  0.0646  0.0302 -0.3022
  195loPI   PO4 3108  15.254   6.277  10.666 -0.0862  0.0012 -0.0768
  195loPI   GL1 3109  15.321   6.197  10.200  0.0754  0.1696  0.1446
  195loPI   GL2 3110  15.518   6.479  10.222 -0.1498 -0.3459 -0.0671
  195loPI   C1A 3111  15.249   6.189   9.723  0.1359 -0.4440 -0.1045
  195loPI   C2A 3112  15.353   6.175   9.340 -0.2402  0.3723  0.0314
  195loPI   C3A 3113  15.376   6.115   8.908 -0.1298  0.0056 -0.1544
  195loPI   C4A 3114  15.394   6.163   8.498 -0.0609 -0.0275 -0.1903
  195loPI   C5A 3115  15.656   6.272   8.216  0.1027 -0.2745  0.0432
  195loPI   C6A 3116  16.003   6.073   8.120  0.0134  0.3377 -0.0720
  195loPI   C1B 3117  15.684   6.606   9.891 -0.1480 -0.3629 -0.4535
  195loPI   C2B 3118  15.656   6.623   9.518 -0.4205  0.0963  0.1114
  195loPI   C3B 3119  15.563   6.588   9.174 -0.1969  0.2420  0.0044
  195loPI   C4B 3120  15.547   6.670   8.740 -0.1350  0.1728  0.2421
  196loPI    C1 3121   9.321  14.746  10.888 -0.0223 -0.0560  0.0309
  196loPI    C2 3122   9.689  14.902  10.899 -0.1358  0.2197  0.0113
  196loPI    C3 3123   9.563  14.665  11.196  0.1722 -0.1502 -0.1443
  196loPI   PO4 3124   9.282  14.527  10.684 -0.0328 -0.0761  0.2530
  196loPI   GL1 3125   9.522  14.519  10.350  0.1420  0.1101  0.1727
  196loPI   GL2 3126   9.657  14.845  10.384  0.1655 -0.6860 -0.3043
  196loPI   C1A 3127   9.506  14.349  10.000  0.1559 -0.2691  0.1221
  196loPI   C2A 3128   9.486  14.424   9.594 -0.0983 -0.1981  0.2387
  196loPI   C3A 3129   9.540  14.361   9.105 -0.2139 -0.0071 -0.0189
  196loPI   C4A 3130   9.471  14.430   8.696  0.0903  0.1247 -0.1985
  196loPI   C5A 3131   9.394  14.556   8.239  0.0378  0.0398  0.1497
  196loPI   C6A 3132   9.454  14.725   7.857 -0.1448  0.1563 -0.1658
  196loPI   C1B 3133   9.731  14.855  10.022 -0.1781 -0.1868  0.3094
  196loPI   C2B 3134   9.749  14.871   9.561  0.0901 -0.0102 -0.1485
  196loPI   C3B 3135   9.777  14.802   9.154  0.0563 -0.1469  0.1080
  196loPI   C4B 3136   9.699  14.873   8.771  0.0969  0.1182 -0.0258
  197loPI    C1 3137   0.585  10.243  10.874  0.0426  0.0603  0.1529
  197loPI    C2 3138   0.227  10.411  10.936 -0.0155 -0.0320  0.0711
  197loPI    C3 3139   0.517  10.449  11.210 -0.0695  0.0911  0.1116
  197loPI   PO4 3140   0.550  10.164  10.654  0.1177 -0.0232  0.0160
  197loPI   GL1 3141   0.415  10.290  10.275  0.1425 -0.0794 -0.1018
  197loPI   GL2 3142   0.296  10.526  10.438 -0.1823  0.0399 -0.0020
  197loPI   C1A 3143   0.391  10.253   9.854  0.0020  0.1741  0.2324
  197loPI   C2A 3144   0.437  10.234   9.414 -0.3522 -0.1948  0.1579
  197loPI   C3A 3145   0.346  10.338   9.009 -0.2272  0.2430  0.0586
  197loPI   C4A 3146   0.414  10.384   8.514 -0.1038  0.0080 -0.0226
  197loPI   C5A 3147   0.170  10.811   8.376 -0.1226 -0.2664  0.0415
  197loPI   C6A 3148  -0.346  10.948   8.333 -0.1145 -0.2323 -0.2927
  197loPI   C1B 3149   0.231  10.712  10.066  0.1834 -0.0077  0.0602
  197loPI   C2B 3150   0.248  10.674   9.624  0.4130 -0.3037  0.0943
  197loPI   C3B 3151   0.144  10.659   9.273  0.0547  0.0047 -0.2862
  197loPI   C4B 3152   0.126  10.741   8.838 -0.3478  0.0503 -0.2831
  198loPI    C1 3153  13.674   8.401  10.998  0.0236 -0.1052  0.0613
  198loPI    C2 3154  13.523   8.133  11.254 -0.2397  0.0617  0.0842
  198loPI    C3 3155  13.712   8.457  11.393 -0.1330  0.0099  0.0609
  198loPI   PO4 3156  13.778   8.321  10.809 -0.1435  0.1052 -0.1557
  198loPI   GL1 3157  14.017   8.553  10.478 -0.0196  0.0483  0.0122
  198loPI   GL2 3158  14.216   8.785  10.331  0.2805 -0.0509  0.1087
  198loPI   C1A 3159  13.994   8.313  10.075 -0.1770  0.0150 -0.0782
  198loPI   C2A 3160  13.975   8.260   9.620 -0.1182 -0.1488 -0.1218
  198loPI   C3A 3161  13.891   8.352   9.245  0.3430  0.0713 -0.4509
  198loPI   C4A 3162  13.968   8.329   8.765  0.1730 -0.3166  0.3319
  198loPI   C5A 3163  13.850   8.460   8.354 -0.0171  0.1295  0.1113
  198loPI   C6A 3164  13.782   8.876   8.099  0.0867  0.0400  0.3317
  198loPI   C1B 3165  14.209   8.681   9.885 -0.0983  0.1911 -0.3834
  198loPI   C2B 3166  14.107   8.782   9.547  0.0374  0.1081  0.0306
  198loPI   C3B 3167  14.219   8.766   9.149  0.0439 -0.1299 -0.1586
  198loPI   C4B 3168  14.173   8.757   8.801  0.2948 -0.6034 -0.3148
  199loPI    C1 3169  17.766  17.804  11.093  0.0646  0.1448  0.2208
  199loPI    C2 3170  17.397  17.958  11.107 -0.0299 -0.0527 -0.0225
  199loPI    C3 3171  17.646  18.005  11.417 -0.2331  0.1446  0.1136
  199loPI   PO4 3172  17.948  17.856  10.838  0.1842  0.2320  0.1078
  199loPI   GL1 3173  17.923  17.805  10.372 -0.0861 -0.0701 -0.2892
  199loPI   GL2 3174  17.625  17.555  10.275  0.0757  0.1983  0.1838
  199loPI   C1A 3175  17.833  17.854   9.956  0.1679 -0.0077 -0.1985
  199loPI   C2A 3176  17.864  17.940   9.493  0.2322  0.0060  0.0186
  199loPI   C3A 3177  17.852  17.941   9.033  0.2352 -0.1832 -0.1841
  199loPI   C4A 3178  17.799  17.912   8.610  0.3019 -0.0337 -0.1138
  199loPI   C5A 3179  17.503  17.865   8.228 -0.0696 -0.0801 -0.0802
  199loPI   C6A 3180  17.189  17.967   7.899 -0.2873  0.0314  0.1668
  199loPI   C1B 3181  17.545  17.398   9.914 -0.0373  0.1730 -0.1079
  199loPI   C2B 3182  17.569  17.477   9.497 -0.0266 -0.0082 -0.0395
  199loPI   C3B 3183  17.588  17.469   9.052 -0.0022 -0.1966  0.1210
  199loPI   C4B 3184  17.582  17.505   8.563  0.2124  0.0056 -0.0675
  200loPI    C1 3185   5.430  15.044  11.243 -0.2512  0.2038 -0.0358
  200loPI    C2 3186   5.693  14.933  11.523 -0.2959  0.0628 -0.0488
  200loPI    C3 3187   5.498  15.281  11.558 -0.0979  0.1751 -0.0464
  200loPI   PO4 3188   5.507  14.960  11.011  0.2378 -0.0997  0.2025
  200loPI   GL1 3189   5.571  15.027  10.576  0.1603 -0.1214 -0.0431
  200loPI   GL2 3190   5.246  14.870  10.492 -0.2576  0.1484 -0.4853
  200loPI   C1A 3191   5.843  14.947  10.237 -0.2585 -0.1723  0.1645
  200loPI   C2A 3192   5.862  15.005   9.795  0.1391  0.0148  0.0837
  200loPI   C3A 3193   5.772  14.945   9.347 -0.4216  0.2913 -0.3090
  200loPI   C4A 3194   5.852  15.083   8.921  0.3842 -0.0420  0.1024
  200loPI   C5A 3195   5.952  15.161   8.457  0.0938 -0.0591 -0.0147
  200loPI   C6A 3196   5.777  15.359   8.015  0.0908  0.2760  0.3641
  200loPI   C1B 3197   5.372  15.007  10.080 -0.0198 -0.3283 -0.0852
  200loPI   C2B 3198   5.240  14.976   9.612  0.1639 -0.0996  0.0954
  200loPI   C3B 3199   5.303  14.930   9.214 -0.2017  0.1161  0.0030
  200loPI   C4B 3200   5.249  14.989   8.812  0.0001  0.3305 -0.2129
  201loPI    C1 3201   9.227   4.069  11.181  0.1829  0.1428  0.0092
  201loPI    C2 3202   9.272   3.892  11.536  0.0750  0.1830  0.0433
  201loPI    C3 3203   9.093   4.249  11.512 -0.1394  0.0694 -0.0779
  201loPI   PO4 3204   9.094   3.942  10.940 -0.0571  0.0005 -0.1185
  201loPI   GL1 3205   9.303   3.711  10.563 -0.0263 -0.0355  0.0482
  201loPI   GL2 3206   9.317   3.960  10.376  0.0540  0.2350 -0.0096
  201loPI   C1A 3207   9.173   3.515  10.177  0.0607  0.0784  0.4230
  201loPI   C2A 3208   9.101   3.520   9.738  0.2801  0.1019  0.2052
  201loPI   C3A 3209   9.166   3.572   9.301 -0.0191 -0.0887  0.2899
  201loPI   C4A 3210   9.079   3.577   8.932 -0.1019  0.0409 -0.1334
  201loPI   C5A 3211   9.096   3.515   8.476 -0.0391 -0.1004 -0.1306
  201loPI   C6A 3212   8.967   3.318   8.030 -0.1187 -0.0987  0.0102
  201loPI   C1B 3213   9.361   3.983   9.941 -0.0451 -0.0875  0.0757
  201loPI   C2B 3214   9.387   3.996   9.440 -0.2070 -0.0570 -0.1522
  201loPI   C3B 3215   9.392   3.972   8.943 -0.1481  0.3549  0.0743
  201loPI   C4B 3216   9.365   3.953   8.535  0.0003 -0.1729  0.2807
  202loPI    C1 3217   2.114  11.239  11.333  0.0486  0.2592 -0.1446
  202loPI    C2 3218   2.383  10.960  11.433 -0.0524  0.2040 -0.0249
  202loPI    C3 3219   2.269  11.234  11.702  0.0618  0.3743 -0.1481
  202loPI   PO4 3220   2.139  11.256  11.104  0.1820 -0.1111 -0.0419
  202loPI   GL1 3221   2.140  11.320  10.677 -0.1131  0.3323  0.1567
  202loPI   GL2 3222   1.861  11.172  10.489 -0.0521 -0.0177  0.0443
  202loPI   C1A 3223   2.121  11.600  10.416  0.0688  0.1773  0.0605
  202loPI   C2A 3224   2.133  11.764  10.054  0.1647  0.0962  0.3490
  202loPI   C3A 3225   2.184  11.686   9.657  0.1974 -0.0790  0.2069
  202loPI   C4A 3226   2.161  11.675   9.247 -0.2181 -0.2931  0.0335
  202loPI   C5A 3227   2.108  11.659   8.795 -0.0059 -0.1875 -0.1760
  202loPI   C6A 3228   1.950  11.641   8.510  0.2543  0.0669 -0.0517
  202loPI   C1B 3229   1.941  11.204  10.123  0.2795 -0.1800  0.1099
  202loPI   C2B 3230   1.967  11.231   9.692 -0.1470 -0.1203  0.1488
  202loPI   C3B 3231   1.952  11.229   9.197 -0.0357  0.3481 -0.1148
  202loPI   C4B 3232   1.833  11.228   8.770 -0.3654  0.0306  0.2414
  203loPI    C1 3233   6.172   8.529  11.319  0.2207  0.2517 -0.1213
  203loPI    C2 3234   6.308   8.660  11.671 -0.0596  0.0285  0.0741
  203loPI    C3 3235   6.406   8.294  11.544 -0.2770 -0.0422  0.1056
  203loPI   PO4 3236   6.186   8.789  11.143  0.0149 -0.0505 -0.1592
  203loPI   GL1 3237   5.855   8.988  10.811 -0.2087  0.3121  0.1237
  203loPI   GL2 3238   5.938   9.232  10.675 -0.1850 -0.1689  0.0377
  203loPI   C1A 3239   5.802   8.779  10.430  0.3032 -0.0235  0.0391
  203loPI   C2A 3240   5.697   8.797  10.028 -0.1771 -0.1561 -0.0594
  203loPI   C3A 3241   5.675   8.740   9.531 -0.2654  0.0086 -0.2737
  203loPI   C4A 3242   5.648   8.773   9.132 -0.0163 -0.0835  0.2629
  203loPI   C5A 3243   5.678   8.995   8.740 -0.1121 -0.2158 -0.3845
  203loPI   C6A 3244   5.939   9.275   8.504 -0.0352  0.2138  0.0438
  203loPI   C1B 3245   6.149   9.201  10.373 -0.2747 -0.0377  0.1619
  203loPI   C2B 3246   5.986   9.217   9.944 -0.2319  0.0348 -0.1119
  203loPI   C3B 3247   5.902   9.237   9.490 -0.0007  0.2304 -0.1293
  203loPI   C4B 3248   5.926   9.246   9.115  0.0815 -0.1761  0.2309
  204loPI    C1 3249  13.736  15.006  10.575  0.0507 -0.1131  0.0175
  204loPI    C2 3250  13.642  15.371  10.710 -0.0859 -0.0862 -0.1468
  204loPI    C3 3251  13.621  15.055  10.955  0.2340  0.0435  0.0543
  204loPI   PO4 3252  13.542  14.947  10.367  0.0040 -0.3328  0.0251
  204loPI   GL1 3253  13.558  14.778   9.974 -0.1165  0.0912  0.1670
  204loPI   GL2 3254  13.591  15.073   9.867  0.2208  0.0461 -0.1674
  204loPI   C1A 3255  13.580  14.564   9.530  0.0602 -0.3803  0.0121
  204loPI   C2A 3256  13.502  14.645   9.157 -0.0325 -0.1566 -0.2551
  204loPI   C3A 3257  13.572  14.528   8.719  0.1019 -0.1238 -0.1557
  204loPI   C4A 3258  13.662  14.565   8.356 -0.0524 -0.0547 -0.3079
  204loPI   C5A 3259  13.647  14.500   7.946  0.0362  0.1444  0.0599
  204loPI   C6A 3260  13.763  14.240   7.608  0.3074  0.0057  0.1251
  204loPI   C1B 3261  13.530  15.173   9.458 -0.0264 -0.0370  0.1822
  204loPI   C2B 3262  13.501  15.192   9.015 -0.0051  0.1045 -0.0903
  204loPI   C3B 3263  13.390  14.980   8.755  0.3285 -0.1313 -0.2824
  204loPI   C4B 3264  13.300  15.007   8.312  0.1202  0.0732  0.1518
  205loPI    C1 3265  15.748   8.111  11.121  0.1076  0.1274 -0.0271
  205loPI    C2 3266  15.749   7.853  11.426  0.0241  0.0714 -0.0740
  205loPI    C3 3267  15.402   7.984  11.276  0.0648  0.0962 -0.1469
  205loPI   PO4 3268  15.850   8.007  10.951  0.3922 -0.0753  0.2227
  205loPI   GL1 3269  15.856   8.108  10.468  0.0291 -0.0835  0.0598
  205loPI   GL2 3270  15.846   7.838  10.346  0.1353  0.1293  0.0823
  205loPI   C1A 3271  16.012   8.376  10.084  0.0601  0.2739  0.2498
  205loPI   C2A 3272  16.049   8.309   9.650 -0.3619  0.0948  0.1136
  205loPI   C3A 3273  16.083   8.421   9.217 -0.1923  0.1039  0.2732
  205loPI   C4A 3274  16.044   8.380   8.874  0.0620 -0.0474  0.0360
  205loPI   C5A 3275  15.982   8.342   8.441  0.1529  0.0717 -0.0073
  205loPI   C6A 3276  16.031   8.187   8.034 -0.3831 -0.0773  0.0757
  205loPI   C1B 3277  15.804   7.901   9.930  0.3207 -0.1330 -0.0149
  205loPI   C2B 3278  15.798   7.843   9.548 -0.1750  0.0968  0.2291
  205loPI   C3B 3279  15.814   8.002   9.157  0.0097 -0.1617 -0.4184
  205loPI   C4B 3280  15.724   8.015   8.726  0.0009  0.1341  0.1194
  206loPI    C1 3281   9.350   5.318  10.716  0.1158  0.1683  0.1024
  206loPI    C2 3282   9.512   5.263  11.078 -0.1307 -0.0708  0.1796
  206loPI    C3 3283   9.126   5.362  11.044 -0.1036 -0.0279 -0.0187
  206loPI   PO4 3284   9.564   5.509  10.596  0.5257 -0.0239  0.2108
  206loPI   GL1 3285   9.676   5.736  10.283  0.1947  0.3238 -0.1779
  206loPI   GL2 3286   9.413   6.002  10.340 -0.3617  0.2731 -0.1591
  206loPI   C1A 3287   9.808   5.919   9.976 -0.0550  0.1798  0.0765
  206loPI   C2A 3288   9.697   5.860   9.655  0.0042  0.0027 -0.1833
  206loPI   C3A 3289   9.671   5.763   9.241  0.2943  0.3305  0.1541
  206loPI   C4A 3290   9.753   5.883   8.848 -0.2150 -0.1881 -0.0683
  206loPI   C5A 3291   9.877   6.089   8.494 -0.0704  0.0686 -0.1319
  206loPI   C6A 3292   9.696   6.152   8.070 -0.0159  0.0648  0.1010
  206loPI   C1B 3293   9.261   5.790   9.912  0.2862 -0.0924 -0.2240
  206loPI   C2B 3294   9.210   5.813   9.503 -0.0751 -0.1140  0.1177
  206loPI   C3B 3295   9.207   5.700   9.065 -0.4152  0.1730 -0.0227
  206loPI   C4B 3296   9.306   5.738   8.677 -0.1826  0.0155 -0.1395
  207loPI    C1 3297   6.587  14.681  11.285  0.0884 -0.1783  0.1023
  207loPI    C2 3298   6.384  14.364  11.420  0.0864 -0.2122  0.0204
  207loPI    C3 3299   6.533  14.630  11.678 -0.0275 -0.2084  0.0829
  207loPI   PO4 3300   6.708  14.621  11.007 -0.0877  0.1063  0.0294
  207loPI   GL1 3301   6.815  14.563  10.576  0.0922  0.1196  0.1970
  207loPI   GL2 3302   6.680  14.242  10.513  0.0091  0.1654 -0.1751
  207loPI   C1A 3303   7.003  14.320  10.189 -0.0295  0.2619 -0.0290
  207loPI   C2A 3304   6.940  14.148   9.822 -0.0257 -0.2789 -0.0307
  207loPI   C3A 3305   6.967  14.131   9.426  0.0594 -0.1658  0.0897
  207loPI   C4A 3306   6.932  14.236   9.052  0.0097 -0.1980  0.1947
  207loPI   C5A 3307   6.901  14.215   8.631  0.0274 -0.0775  0.3210
  207loPI   C6A 3308   6.751  14.566   8.300 -0.1350 -0.0519 -0.1074
  207loPI   C1B 3309   6.487  14.264  10.110  0.2365 -0.0238  0.6606
  207loPI   C2B 3310   6.424  14.137   9.631 -0.3584  0.0288 -0.2522
  207loPI   C3B 3311   6.411  14.199   9.165 -0.0586 -0.2166  0.4312
  207loPI   C4B 3312   6.395  14.096   8.730  0.1498 -0.1738  0.1824
  208loPI    C1 3313  10.477   0.411  11.114  0.2019 -0.0627  0.0545
  208loPI    C2 3314  10.668   0.083  11.239 -0.0467 -0.1498  0.2126
  208loPI    C3 3315  10.511   0.336  11.505 -0.1863 -0.1003  0.0845
  208loPI   PO4 3316  10.300   0.251  10.801 -0.1036 -0.1272 -0.2468
  208loPI   GL1 3317  10.377   0.219  10.312 -0.0319  0.1520  0.0264
  208loPI   GL2 3318  10.638  -0.053  10.298 -0.0583  0.0769  0.4367
  208loPI   C1A 3319  10.143   0.379   9.994  0.1612  0.1199 -0.1325
  208loPI   C2A 3320  10.004   0.398   9.630  0.0906  0.0414 -0.0258
  208loPI   C3A 3321  10.043   0.447   9.219 -0.0964 -0.0726  0.2503
  208loPI   C4A 3322  10.030   0.420   8.718  0.0456 -0.0667  0.0603
  208loPI   C5A 3323  10.106   0.319   8.343  0.0131  0.2676  0.1646
  208loPI   C6A 3324  10.404   0.048   8.060 -0.1195  0.2395  0.0275
  208loPI   C1B 3325  10.415  -0.067   9.941  0.0310  0.2727  0.2227
  208loPI   C2B 3326  10.326  -0.027   9.466 -0.0731  0.1103  0.0821
  208loPI   C3B 3327  10.282   0.022   9.068  0.5309  0.1029  0.2374
  208loPI   C4B 3328  10.357  -0.075   8.565  0.0047 -0.1678  0.0086
  209loPI    C1 3329   5.136  10.227  11.168  0.2193  0.0242  0.1318
  209loPI    C2 3330   4.853  10.078  11.408  0.0271  0.0839 -0.0544
  209loPI    C3 3331   5.197  10.211  11.563 -0.0839  0.0985  0.1841
  209loPI   PO4 3332   5.212  10.011  10.984  0.0039 -0.2112 -0.0200
  209loPI   GL1 3333   5.386   9.733  10.731 -0.2181 -0.1672 -0.0809
  209loPI   GL2 3334   5.499  10.026  10.528  0.2261 -0.1147  0.0294
  209loPI   C1A 3335   5.260   9.689  10.256  0.0576 -0.1249  0.2207
  209loPI   C2A 3336   5.174   9.618   9.862 -0.0365 -0.0803  0.1190
  209loPI   C3A 3337   5.071   9.687   9.457 -0.0331 -0.0262  0.0428
  209loPI   C4A 3338   5.055   9.719   8.973  0.1626  0.0666  0.0893
  209loPI   C5A 3339   5.190   9.853   8.493  0.0629  0.5014  0.1156
  209loPI   C6A 3340   5.483  10.113   8.369  0.0740 -0.1437 -0.0628
  209loPI   C1B 3341   5.472  10.116  10.039  0.4260  0.0826  0.0984
  209loPI   C2B 3342   5.454  10.046   9.674  0.2214  0.0052 -0.2547
  209loPI   C3B 3343   5.324  10.143   9.260 -0.1825 -0.0185  0.0251
  209loPI   C4B 3344   5.416  10.070   8.854  0.0990 -0.1762  0.0436
  210loPI    C1 3345   4.553   2.265  10.554 -0.0130 -0.0331 -0.0367
  210loPI    C2 3346   4.271   2.386  10.811 -0.0814 -0.0378 -0.1092
  210loPI    C3 3347   4.648   2.510  10.856 -0.0605 -0.1690  0.0902
  210loPI   PO4 3348   4.403   2.221  10.343  0.2205  0.0200 -0.1215
  210loPI   GL1 3349   4.369   2.057   9.972  0.0152 -0.2381 -0.0803
  210loPI   GL2 3350   4.149   2.291   9.876 -0.0882 -0.1748 -0.1908
  210loPI   C1A 3351   4.231   1.863   9.657  0.1254  0.1130  0.3624
  210loPI   C2A 3352   4.262   1.782   9.191 -0.0284 -0.1908  0.0665
  210loPI   C3A 3353   4.373   1.834   8.898 -0.2872  0.1552  0.1211
  210loPI   C4A 3354   4.279   1.851   8.457  0.2610  0.2778  0.2260
  210loPI   C5A 3355   4.068   1.841   8.115  0.0485 -0.0271 -0.4684
  210loPI   C6A 3356   3.870   1.641   7.888 -0.0207  0.1346 -0.3454
  210loPI   C1B 3357   4.013   2.343   9.490 -0.0843 -0.1190 -0.1057
  210loPI   C2B 3358   4.074   2.239   9.065 -0.1022  0.2774  0.0923
  210loPI   C3B 3359   3.898   2.358   8.695 -0.0481 -0.0578  0.0332
  210loPI   C4B 3360   3.940   2.434   8.327 -0.0393  0.1959  0.3567
  211loPI    C1 3361   9.336  10.163  11.000 -0.1415 -0.1002  0.0852
  211loPI    C2 3362   9.105  10.479  11.082  0.1067  0.1456 -0.1414
  211loPI    C3 3363   9.416  10.392  11.319 -0.0347 -0.0047 -0.0089
  211loPI   PO4 3364   9.320  10.139  10.746 -0.0152 -0.2479 -0.0200
  211loPI   GL1 3365   8.979  10.239  10.535 -0.2542 -0.2219  0.1154
  211loPI   GL2 3366   9.110  10.564  10.534  0.0082  0.0875 -0.0639
  211loPI   C1A 3367   9.115  10.269  10.165 -0.0391 -0.1754  0.0683
  211loPI   C2A 3368   8.999  10.349   9.746 -0.1107 -0.0698 -0.1031
  211loPI   C3A 3369   8.908  10.250   9.436 -0.0226 -0.2237 -0.0214
  211loPI   C4A 3370   8.943  10.305   8.996 -0.0665  0.2881 -0.1198
  211loPI   C5A 3371   8.941  10.317   8.547 -0.3357  0.1213  0.1185
  211loPI   C6A 3372   9.117  10.246   8.111 -0.2593  0.0647  0.0795
  211loPI   C1B 3373   8.899  10.803  10.160  0.2388 -0.3244 -0.2120
  211loPI   C2B 3374   8.706  10.766   9.821 -0.0172  0.3320 -0.0688
  211loPI   C3B 3375   8.689  10.741   9.429  0.0714 -0.4214 -0.0612
  211loPI   C4B 3376   8.727  10.726   9.024  0.1900 -0.0633 -0.1246
  212loPI    C1 3377   4.715   7.745  11.383 -0.0963 -0.1140 -0.2531
  212loPI    C2 3378   4.733   7.362  11.498  0.0402  0.0339  0.2392
  212loPI    C3 3379   4.388   7.563  11.526  0.0795  0.0773  0.4246
  212loPI   PO4 3380   4.749   7.758  11.136 -0.1487  0.0061 -0.0083
  212loPI   GL1 3381   4.643   7.843  10.746  0.1126  0.0438  0.0899
  212loPI   GL2 3382   4.605   8.207  10.548 -0.1968 -0.0016 -0.0705
  212loPI   C1A 3383   4.733   7.736  10.373  0.0212 -0.3066  0.0819
  212loPI   C2A 3384   4.730   7.743   9.986  0.1477 -0.2920 -0.2644
  212loPI   C3A 3385   4.747   7.796   9.571 -0.0771 -0.2640  0.1858
  212loPI   C4A 3386   4.663   7.811   9.107 -0.2305  0.1395  0.0389
  212loPI   C5A 3387   4.527   7.946   8.712 -0.0454  0.1013  0.0741
  212loPI   C6A 3388   4.820   7.852   8.321 -0.3733 -0.2181 -0.0703
  212loPI   C1B 3389   4.457   8.254  10.109 -0.1113 -0.1402 -0.0333
  212loPI   C2B 3390   4.429   8.233   9.680  0.0012 -0.4804  0.1972
  212loPI   C3B 3391   4.375   8.243   9.238 -0.4558 -0.3046  0.0923
  212loPI   C4B 3392   4.375   8.403   8.757 -0.2716  0.5192  0.0991
  213loPI    C1 3393   6.371  17.219  10.929  0.1573 -0.2302  0.1346
  213loPI    C2 3394   6.008  17.215  11.099  0.0321 -0.0665 -0.1231
  213loPI    C3 3395   6.316  17.387  11.288 -0.0821  0.0205 -0.0148
  213loPI   PO4 3396   6.252  17.232  10.664  0.1299  0.1460  0.1012
  213loPI   GL1 3397   6.314  17.228  10.275 -0.2716  0.2074  0.0572
  213loPI   GL2 3398   6.043  17.206  10.136 -0.0549 -0.1149 -0.0488
  213loPI   C1A 3399   6.303  16.913   9.854  0.1298 -0.0422 -0.1050
  213loPI   C2A 3400   6.287  16.878   9.435  0.0782 -0.1975 -0.0453
  213loPI   C3A 3401   6.227  16.786   8.950  0.2112  0.2720  0.0095
  213loPI   C4A 3402   6.197  16.896   8.497 -0.2366  0.2158  0.0613
  213loPI   C5A 3403   6.503  16.844   8.153 -0.2403  0.1167 -0.0784
  213loPI   C6A 3404   6.901  17.108   8.027  0.1028 -0.2462 -0.1263
  213loPI   C1B 3405   5.937  17.242   9.760 -0.0196  0.0501 -0.1482
  213loPI   C2B 3406   6.026  17.275   9.388  0.1134 -0.1292  0.1034
  213loPI   C3B 3407   5.963  17.236   8.936 -0.1417 -0.2640 -0.0328
  213loPI   C4B 3408   5.962  17.319   8.476 -0.3000 -0.2988 -0.1007
  214loPI    C1 3409   0.002  14.664  11.123 -0.0878 -0.0110  0.0384
  214loPI    C2 3410   0.319  14.867  11.257 -0.1521  0.0163  0.1502
  214loPI    C3 3411   0.253  14.493  11.383 -0.0714 -0.0504 -0.0034
  214loPI   PO4 3412  -0.014  14.852  10.911  0.1441 -0.3965  0.0352
  214loPI   GL1 3413   0.100  14.881  10.489  0.2960 -0.1839 -0.2863
  214loPI   GL2 3414   0.323  14.743  10.365  0.3658 -0.0740 -0.2105
  214loPI   C1A 3415  -0.217  15.131  10.161 -0.1958 -0.0076  0.0401
  214loPI   C2A 3416  -0.064  15.156   9.663  0.0060 -0.1299  0.0704
  214loPI   C3A 3417  -0.123  15.200   9.196  0.0264 -0.2028 -0.0526
  214loPI   C4A 3418  -0.128  15.199   8.815 -0.0059 -0.4706 -0.1333
  214loPI   C5A 3419  -0.063  15.162   8.417  0.0566 -0.1413 -0.0162
  214loPI   C6A 3420  -0.227  15.149   7.971  0.1915 -0.0519  0.0428
  214loPI   C1B 3421   0.169  14.835   9.972 -0.0314  0.0070  0.1245
  214loPI   C2B 3422   0.217  14.733   9.574  0.0232  0.3863 -0.1608
  214loPI   C3B 3423   0.189  14.739   9.037  0.0774  0.0267  0.1289
  214loPI   C4B 3424   0.106  14.751   8.578 -0.0964  0.1009  0.0111
  215loPI    C1 3425  17.098   7.706  11.038 -0.1409 -0.0464 -0.0543
  215loPI    C2 3426  17.282   7.426  11.255 -0.0795  0.0102 -0.0333
  215loPI    C3 3427  16.959   7.611  11.401 -0.2240 -0.1724 -0.1185
  215loPI   PO4 3428  17.049   7.620  10.759 -0.0549 -0.1494  0.1619
  215loPI   GL1 3429  16.966   7.756  10.361  0.2787 -0.2390 -0.4787
  215loPI   GL2 3430  17.220   7.489  10.177 -0.0119  0.2498 -0.0253
  215loPI   C1A 3431  16.796   7.896   9.990  0.0592  0.0673  0.0495
  215loPI   C2A 3432  16.857   8.086   9.635 -0.2497 -0.1010 -0.1304
  215loPI   C3A 3433  16.814   8.031   9.221 -0.0825  0.3634 -0.0829
  215loPI   C4A 3434  16.780   8.025   8.774 -0.1899 -0.1020  0.0710
  215loPI   C5A 3435  16.817   8.075   8.339  0.2754 -0.3168 -0.1039
  215loPI   C6A 3436  16.969   8.453   8.145  0.4861  0.0101  0.0192
  215loPI   C1B 3437  17.144   7.604   9.797 -0.1321  0.0657  0.3154
  215loPI   C2B 3438  17.067   7.614   9.338 -0.0445  0.2779 -0.2468
  215loPI   C3B 3439  17.021   7.626   8.916  0.0224  0.0846  0.1555
  215loPI   C4B 3440  17.069   7.625   8.438 -0.1306 -0.3278 -0.2087
  216loPI    C1 3441   7.564   5.326  11.072 -0.1488  0.1060 -0.2111
  216loPI    C2 3442   7.407   5.628  11.282 -0.0253  0.1738 -0.2148
  216loPI    C3 3443   7.372   5.252  11.415 -0.1229  0.1960 -0.1767
  216loPI   PO4 3444   7.535   5.372  10.893 -0.0927  0.1204 -0.0223
  216loPI   GL1 3445   7.668   5.241  10.411  0.1356  0.1656 -0.1649
  216loPI   GL2 3446   7.714   5.570  10.307 -0.0577  0.0259  0.1719
  216loPI   C1A 3447   7.424   5.261  10.105 -0.3815 -0.1165 -0.0616
  216loPI   C2A 3448   7.455   5.243   9.622  0.1160  0.2049  0.1506
  216loPI   C3A 3449   7.418   5.268   9.229  0.1275  0.1668  0.0695
  216loPI   C4A 3450   7.358   5.350   8.790 -0.0535  0.5155 -0.2561
  216loPI   C5A 3451   7.133   5.516   8.405 -0.2544  0.2471  0.5906
  216loPI   C6A 3452   7.074   5.820   8.260 -0.1316 -0.0441 -0.1650
  216loPI   C1B 3453   7.727   5.653   9.826  0.0449  0.2740 -0.0300
  216loPI   C2B 3454   7.706   5.788   9.437  0.0095  0.1757  0.3264
  216loPI   C3B 3455   7.588   5.758   8.980  0.1195  0.0849  0.0010
  216loPI   C4B 3456   7.567   5.672   8.492  0.0734 -0.2294  0.4511
  217loPI    C1 3457   4.076  13.953  11.199  0.0227  0.0076 -0.1422
  217loPI    C2 3458   3.676  13.945  11.200  0.0223 -0.0457  0.1746
  217loPI    C3 3459   3.871  14.209  11.429  0.1688  0.2071 -0.2307
  217loPI   PO4 3460   4.118  13.918  10.940 -0.0777 -0.0055 -0.1853
  217loPI   GL1 3461   3.884  13.635  10.623 -0.1392  0.1257 -0.3995
  217loPI   GL2 3462   3.738  13.879  10.589  0.1765  0.4443 -0.0668
  217loPI   C1A 3463   3.570  13.541  10.236  0.1788 -0.1328  0.0598
  217loPI   C2A 3464   3.654  13.464   9.769  0.1667 -0.0587  0.2348
  217loPI   C3A 3465   3.523  13.603   9.311  0.0990 -0.0401 -0.1546
  217loPI   C4A 3466   3.553  13.555   8.890  0.0555  0.1405  0.1820
  217loPI   C5A 3467   3.433  13.796   8.623  0.2045  0.3356 -0.1529
  217loPI   C6A 3468   3.242  14.093   8.589 -0.1134  0.1204  0.1070
  217loPI   C1B 3469   3.855  13.957  10.201 -0.0566  0.1164  0.0596
  217loPI   C2B 3470   3.836  14.005   9.802 -0.0229 -0.2046  0.1657
  217loPI   C3B 3471   3.812  14.019   9.351 -0.0695  0.1043  0.0440
  217loPI   C4B 3472   3.816  14.051   8.924  0.0552 -0.1002  0.1405
  218loPI    C1 3473   2.213   3.109  10.565  0.0763  0.0427 -0.1662
  218loPI    C2 3474   2.581   2.957  10.604  0.0482  0.0381  0.1046
  218loPI    C3 3475   2.261   2.717  10.627  0.0183  0.0805  0.1332
  218loPI   PO4 3476   2.254   3.266  10.292 -0.0371 -0.1566  0.0424
  218loPI   GL1 3477   2.112   3.597  10.113 -0.0979 -0.0309 -0.1611
  218loPI   GL2 3478   1.964   3.907  10.096  0.2734  0.2361  0.0093
  218loPI   C1A 3479   2.103   3.690   9.701 -0.2599  0.0928  0.3107
  218loPI   C2A 3480   2.127   3.796   9.269  0.0298 -0.0620 -0.0182
  218loPI   C3A 3481   2.091   3.668   8.877  0.2933  0.0630  0.4461
  218loPI   C4A 3482   2.203   3.636   8.462  0.0629 -0.3135 -0.2115
  218loPI   C5A 3483   1.949   3.711   8.147 -0.0702  0.5280 -0.0080
  218loPI   C6A 3484   1.717   3.637   7.676  0.1021 -0.2546 -0.2668
  218loPI   C1B 3485   1.827   4.110   9.777 -0.2748  0.1217  0.0058
  218loPI   C2B 3486   1.847   4.164   9.388 -0.2058  0.0162  0.0910
  218loPI   C3B 3487   1.853   4.174   8.982 -0.1948  0.1594 -0.0451
  218loPI   C4B 3488   1.814   4.069   8.595 -0.1344 -0.0452  0.0641
  219loPI    C1 3489  10.755   6.237  11.233 -0.1372 -0.3465  0.2976
  219loPI    C2 3490  11.117   6.393  11.302 -0.1960 -0.1564  0.1842
  219loPI    C3 3491  10.790   6.573  11.446 -0.2753 -0.0898 -0.0740
  219loPI   PO4 3492  10.799   6.140  10.991 -0.1086 -0.0550  0.2622
  219loPI   GL1 3493  10.617   6.004  10.601 -0.3969 -0.1012  0.2285
  219loPI   GL2 3494  10.884   5.988  10.482 -0.3906  0.0646  0.0636
  219loPI   C1A 3495  10.535   6.277  10.301  0.0386 -0.3200 -0.1973
  219loPI   C2A 3496  10.502   6.385   9.963  0.0322 -0.0918  0.3149
  219loPI   C3A 3497  10.447   6.346   9.536  0.0510 -0.0811 -0.0247
  219loPI   C4A 3498  10.477   6.378   9.157 -0.1437 -0.0099  0.1324
  219loPI   C5A 3499  10.454   6.464   8.699  0.1509  0.2878  0.0061
  219loPI   C6A 3500  10.417   6.203   8.393 -0.0986  0.1326 -0.1548
  219loPI   C1B 3501  10.824   5.842  10.117  0.0546 -0.2155 -0.0462
  219loPI   C2B 3502  10.669   5.919   9.843  0.2474 -0.0668 -0.1265
  219loPI   C3B 3503  10.701   5.935   9.482 -0.0275 -0.1022 -0.3593
  219loPI   C4B 3504  10.733   5.996   9.091 -0.1441 -0.1923  0.1341
  220loPI    C1 3505   4.159  10.380  11.008 -0.1759  0.0424  0.3272
  220loPI    C2 3506   4.325  10.174  11.307  0.1980  0.0012  0.0974
  220loPI    C3 3507   4.307  10.573  11.325  0.2155 -0.0015  0.1770
  220loPI   PO4 3508   3.999  10.294  10.999  0.3488 -0.0158 -0.3755
  220loPI   GL1 3509   3.851  10.375  10.566  0.3224  0.0388  0.1113
  220loPI   GL2 3510   4.068  10.437  10.507  0.0040  0.0620 -0.3611
  220loPI   C1A 3511   3.807  10.719  10.259  0.1651 -0.3681 -0.2371
  220loPI   C2A 3512   3.793  10.894   9.758  0.1753  0.0594 -0.1990
  220loPI   C3A 3513   3.691  10.942   9.406  0.3595  0.0726 -0.1215
  220loPI   C4A 3514   3.790  10.914   8.994 -0.1803 -0.4061 -0.2283
  220loPI   C5A 3515   3.732  11.002   8.552 -0.1435  0.1768 -0.0618
  220loPI   C6A 3516   3.258  10.914   8.382  0.1491  0.2336 -0.0953
  220loPI   C1B 3517   4.101  10.394  10.090 -0.3179 -0.1253 -0.2010
  220loPI   C2B 3518   3.990  10.479   9.661  0.0662  0.2674  0.1946
  220loPI   C3B 3519   4.083  10.517   9.202 -0.0617 -0.3354  0.2094
  220loPI   C4B 3520   4.053  10.522   8.745  0.3900  0.2110 -0.0998
  221loPI    C1 3521   6.130  12.184  10.971 -0.1731  0.0395  0.2142
  221loPI    C2 3522   6.291  12.370  11.287  0.0189  0.1578  0.0490
  221loPI    C3 3523   6.523  12.258  10.981 -0.1647  0.0373 -0.0481
  221loPI   PO4 3524   5.925  12.330  10.897 -0.0463 -0.0970  0.0521
  221loPI   GL1 3525   5.850  12.651  10.524 -0.1018  0.0943  0.4205
  221loPI   GL2 3526   6.119  12.425  10.435 -0.2024  0.1294  0.1630
  221loPI   C1A 3527   5.762  12.738  10.063  0.2337  0.0588 -0.1229
  221loPI   C2A 3528   5.822  12.781   9.645  0.4609  0.1206 -0.1315
  221loPI   C3A 3529   5.657  12.787   9.214 -0.1638  0.2526  0.0820
  221loPI   C4A 3530   5.691  12.772   8.693 -0.1607  0.1866 -0.0056
  221loPI   C5A 3531   5.612  12.386   8.388 -0.1025 -0.2939 -0.2281
  221loPI   C6A 3532   5.467  12.215   7.896  0.1657 -0.1913  0.0479
  221loPI   C1B 3533   6.068  12.334   9.972 -0.0750  0.2187 -0.0870
  221loPI   C2B 3534   6.071  12.345   9.531 -0.0923  0.0219 -0.0348
  221loPI   C3B 3535   6.026  12.359   9.082  0.2640  0.0463  0.1213
  221loPI   C4B 3536   6.054  12.328   8.675 -0.2622 -0.1185 -0.1973
  222loPI    C1 3537   2.288   1.956  10.667  0.0021 -0.3305  0.1717
  222loPI    C2 3538   2.319   2.175  11.000 -0.0700 -0.0735  0.0121
  222loPI    C3 3539   2.103   1.839  11.001 -0.1552 -0.0191  0.1967
  222loPI   PO4 3540   2.584   1.882  10.545  0.1117  0.2223  0.0606
  222loPI   GL1 3541   2.754   1.522  10.246 -0.2363 -0.2569  0.3477
  222loPI   GL2 3542   3.027   1.421  10.149 -0.4076 -0.0153  0.0103
  222loPI   C1A 3543   2.497   1.303   9.988  0.1090  0.1282  0.1986
  222loPI   C2A 3544   2.538   1.218   9.670  0.1811  0.1100  0.2373
  222loPI   C3A 3545   2.459   1.265   9.284  0.0690  0.0770 -0.0757
  222loPI   C4A 3546   2.437   1.195   8.829 -0.1011  0.0805  0.2852
  222loPI   C5A 3547   2.608   1.372   8.397 -0.0375 -0.4351  0.1523
  222loPI   C6A 3548   2.887   1.783   8.221  0.3020 -0.2084 -0.1144
  222loPI   C1B 3549   3.033   1.300   9.699  0.3525  0.0989  0.0582
  222loPI   C2B 3550   2.980   1.236   9.194 -0.0823 -0.1667 -0.1089
  222loPI   C3B 3551   2.959   1.271   8.790 -0.0380  0.3385  0.0280
  222loPI   C4B 3552   3.123   1.310   8.314  0.0028 -0.0637 -0.1038
  223loPI    C1 3553   5.783  10.122  11.044  0.0030  0.1057  0.0821
  223loPI    C2 3554   5.624   9.987  11.386  0.1289  0.1852  0.1727
  223loPI    C3 3555   6.019  10.047  11.358  0.1342  0.0684 -0.0242
  223loPI   PO4 3556   5.608  10.303  10.991 -0.1645  0.2621  0.1921
  223loPI   GL1 3557   5.364  10.529  10.665  0.3125 -0.1580  0.2323
  223loPI   GL2 3558   5.709  10.505  10.553 -0.0054 -0.0230  0.1333
  223loPI   C1A 3559   5.118  10.458  10.230  0.0890 -0.0445  0.2156
  223loPI   C2A 3560   5.157  10.446   9.839 -0.3687 -0.0369  0.0727
  223loPI   C3A 3561   5.125  10.564   9.468  0.0541  0.0150  0.2489
  223loPI   C4A 3562   5.113  10.569   8.995 -0.1220 -0.0803 -0.2472
  223loPI   C5A 3563   5.233  10.503   8.594  0.1533  0.0059 -0.2744
  223loPI   C6A 3564   5.445  10.598   8.259 -0.0539 -0.1116 -0.1096
  223loPI   C1B 3565   5.730  10.600  10.107  0.1139 -0.1894  0.2209
  223loPI   C2B 3566   5.645  10.575   9.629  0.1708 -0.1883  0.2045
  223loPI   C3B 3567   5.587  10.553   9.084  0.1179  0.2680 -0.1493
  223loPI   C4B 3568   5.723  10.650   8.692  0.1617 -0.0281 -0.0154
  224loPI    C1 3569  14.343   8.848  10.944  0.1499 -0.2192  0.0625
  224loPI    C2 3570  14.113   8.590  11.145 -0.1642  0.2617  0.3402
  224loPI    C3 3571  14.380   8.815  11.341  0.3265 -0.0592  0.0605
  224loPI   PO4 3572  14.500   8.739  10.788  0.2485  0.2445 -0.1665
  224loPI   GL1 3573  14.650   8.565  10.477  0.2565  0.1140 -0.1256
  224loPI   GL2 3574  14.411   8.299  10.314  0.0154  0.0972 -0.1806
  224loPI   C1A 3575  14.695   8.704  10.081 -0.2626  0.1445 -0.2771
  224loPI   C2A 3576  14.656   8.773   9.650  0.4848  0.2621 -0.1641
  224loPI   C3A 3577  14.701   8.876   9.254 -0.0533  0.1754 -0.1154
  224loPI   C4A 3578  14.714   8.842   8.870  0.0827  0.0936  0.1662
  224loPI   C5A 3579  14.544   8.757   8.455  0.1230 -0.2894 -0.1491
  224loPI   C6A 3580  14.638   8.967   8.067 -0.0587 -0.1829  0.2241
  224loPI   C1B 3581  14.481   8.249   9.817 -0.1976 -0.2608 -0.4031
  224loPI   C2B 3582  14.543   8.347   9.429  0.0251 -0.3230 -0.0795
  224loPI   C3B 3583  14.410   8.294   8.977  0.2243  0.1400 -0.1078
  224loPI   C4B 3584  14.378   8.310   8.513 -0.0152 -0.2374  0.1557
  225loPI    C1 3585   1.495   0.060  11.147 -0.0022 -0.1007  0.1292
  225loPI    C2 3586   1.722  -0.159  11.393  0.0726  0.0052  0.1557
  225loPI    C3 3587   1.501   0.141  11.539 -0.1318 -0.1345  0.1388
  225loPI   PO4 3588   1.662   0.097  10.923 -0.3159 -0.1401  0.0001
  225loPI   GL1 3589   1.717  -0.002  10.545  0.1294 -0.0286  0.0473
  225loPI   GL2 3590   2.024  -0.120  10.439 -0.0056  0.0846  0.0638
  225loPI   C1A 3591   1.398  -0.128  10.236 -0.3016  0.2829 -0.1711
  225loPI   C2A 3592   1.309  -0.144   9.828 -0.1474 -0.3354 -0.0955
  225loPI   C3A 3593   1.271  -0.124   9.455 -0.3107 -0.0686 -0.2213
  225loPI   C4A 3594   1.265  -0.160   9.118 -0.0755  0.0557 -0.0392
  225loPI   C5A 3595   1.339  -0.139   8.763  0.4081 -0.0751  0.3476
  225loPI   C6A 3596   1.290   0.000   8.413 -0.0765 -0.1220 -0.1245
  225loPI   C1B 3597   1.862  -0.132  10.044  0.0582  0.1287 -0.1068
  225loPI   C2B 3598   1.799  -0.099   9.473  0.0346  0.0240 -0.0207
  225loPI   C3B 3599   1.857  -0.102   9.023 -0.1761  0.1218  0.4115
  225loPI   C4B 3600   1.772  -0.168   8.598  0.1250  0.2639 -0.4617
  226loPI    C1 3601   3.969   7.256  11.338  0.2266  0.1067  0.0277
  226loPI    C2 3602   3.963   7.375  11.720  0.2993 -0.2361  0.1398
  226loPI    C3 3603   3.793   7.029  11.616 -0.0793  0.0443 -0.2109
  226loPI   PO4 3604   3.851   7.445  11.172  0.1282  0.0148  0.2155
  226loPI   GL1 3605   3.887   7.552  10.797  0.2533  0.0307  0.1255
  226loPI   GL2 3606   3.661   7.691  10.628 -0.1525 -0.0565 -0.0091
  226loPI   C1A 3607   3.975   7.345  10.388  0.0093 -0.1912  0.1351
  226loPI   C2A 3608   4.011   7.259   9.925 -0.1730 -0.0629 -0.0505
  226loPI   C3A 3609   4.024   7.388   9.494 -0.0152  0.0834  0.3720
  226loPI   C4A 3610   3.935   7.348   9.093 -0.1419  0.0060  0.2337
  226loPI   C5A 3611   3.806   7.420   8.691 -0.1467 -0.0252 -0.1869
  226loPI   C6A 3612   3.408   7.433   8.479  0.0199  0.0627  0.1287
  226loPI   C1B 3613   3.657   7.736  10.210  0.2040 -0.0865 -0.0608
  226loPI   C2B 3614   3.766   7.764   9.784  0.0860  0.0658 -0.2537
  226loPI   C3B 3615   3.710   7.847   9.344 -0.2146  0.1300  0.2067
  226loPI   C4B 3616   3.599   7.822   8.930  0.2114 -0.2449 -0.1222
  227loPI    C1 3617   8.317   7.265  11.188  0.0547  0.1431  0.1235
  227loPI    C2 3618   8.539   7.484  11.438 -0.0997  0.0467  0.3485
  227loPI    C3 3619   8.173   7.366  11.547 -0.0733 -0.2035  0.1735
  227loPI   PO4 3620   8.364   7.436  10.890  0.0866  0.0452 -0.2916
  227loPI   GL1 3621   8.528   7.639  10.474  0.1428  0.1358 -0.0033
  227loPI   GL2 3622   8.648   7.955  10.444 -0.3463  0.0490 -0.0730
  227loPI   C1A 3623   8.553   7.482  10.040  0.0305 -0.0861 -0.1930
  227loPI   C2A 3624   8.608   7.475   9.557 -0.2061  0.3695 -0.0287
  227loPI   C3A 3625   8.644   7.600   9.148  0.0697  0.1112 -0.0149
  227loPI   C4A 3626   8.553   7.475   8.761 -0.0913 -0.1297  0.1732
  227loPI   C5A 3627   8.354   7.619   8.431  0.0971 -0.1314 -0.2070
  227loPI   C6A 3628   7.907   7.581   8.236 -0.0968  0.1600 -0.3291
  227loPI   C1B 3629   8.820   7.983   9.974 -0.0011 -0.0632 -0.2187
  227loPI   C2B 3630   8.821   8.003   9.544 -0.2753 -0.2787 -0.3472
  227loPI   C3B 3631   8.835   8.016   9.129  0.0982  0.2374  0.0601
  227loPI   C4B 3632   8.818   8.028   8.713  0.3275 -0.2971  0.1424
  228loPI    C1 3633   2.241  16.576  10.979 -0.0876 -0.0790 -0.0106
  228loPI    C2 3634   2.500  16.438  11.250 -0.0107  0.2632  0.0948
  228loPI    C3 3635   2.181  16.649  11.368 -0.2874 -0.0700 -0.0417
  228loPI   PO4 3636   2.344  16.564  10.717  0.1596  0.0672 -0.1771
  228loPI   GL1 3637   2.236  16.271  10.344  0.2154 -0.1729  0.4520
  228loPI   GL2 3638   1.915  16.238  10.293 -0.1422 -0.4273 -0.0043
  228loPI   C1A 3639   2.456  16.208   9.986 -0.1150  0.0630 -0.0802
  228loPI   C2A 3640   2.371  16.229   9.461 -0.0354 -0.2414  0.1304
  228loPI   C3A 3641   2.430  16.166   9.115  0.3599  0.0603  0.4399
  228loPI   C4A 3642   2.388  16.268   8.799 -0.0561 -0.2924  0.0910
  228loPI   C5A 3643   2.421  16.240   8.274 -0.0838  0.3698 -0.0641
  228loPI   C6A 3644   2.571  16.029   7.920 -0.0019  0.0315  0.1095
  228loPI   C1B 3645   1.935  16.199   9.894 -0.2853 -0.1389 -0.1243
  228loPI   C2B 3646   1.869  16.258   9.490  0.2383  0.1035  0.1301
  228loPI   C3B 3647   1.932  16.241   9.089  0.2570  0.0417  0.2197
  228loPI   C4B 3648   1.902  16.245   8.661 -0.0295 -0.1940  0.1138
  229loPI    C1 3649  13.087   6.580  11.101  0.2465 -0.0966 -0.1588
  229loPI    C2 3650  13.115   6.273  11.357 -0.1285 -0.2021 -0.2383
  229loPI    C3 3651  13.027   6.640  11.492  0.1368 -0.1635 -0.1650
  229loPI   PO4 3652  13.153   6.439  10.813 -0.2249  0.0679  0.0958
  229loPI   GL1 3653  12.955   6.239  10.471  0.2315  0.2617 -0.1217
  229loPI   GL2 3654  13.247   6.358  10.188 -0.1000 -0.3385 -0.1029
  229loPI   C1A 3655  12.574   6.479  10.188 -0.2414 -0.1622  0.0587
  229loPI   C2A 3656  12.582   6.479   9.815 -0.2717 -0.0545  0.0915
  229loPI   C3A 3657  12.622   6.420   9.400  0.2091 -0.0451  0.1518
  229loPI   C4A 3658  12.596   6.304   9.048  0.0009 -0.3763 -0.1187
  229loPI   C5A 3659  12.518   6.363   8.628 -0.1934  0.2394 -0.2923
  229loPI   C6A 3660  12.581   6.458   8.176  0.0468  0.2924  0.0578
  229loPI   C1B 3661  13.096   6.456   9.667  0.2563 -0.2369 -0.2942
  229loPI   C2B 3662  13.140   6.429   9.180  0.0676 -0.0928 -0.1402
  229loPI   C3B 3663  13.006   6.462   8.804  0.1980 -0.2988 -0.1697
  229loPI   C4B 3664  13.082   6.637   8.354 -0.0403 -0.1954 -0.3570
  230loPI    C1 3665   1.292   7.135  11.000  0.0735 -0.0595 -0.0393
  230loPI    C2 3666   1.520   6.962  11.279  0.2063  0.0884 -0.0545
  230loPI    C3 3667   1.218   7.201  11.388 -0.0733 -0.2668 -0.0305
  230loPI   PO4 3668   1.202   6.878  10.823  0.1880  0.1134 -0.1154
  230loPI   GL1 3669   1.032   6.837  10.423  0.0530 -0.1217  0.0754
  230loPI   GL2 3670   0.925   7.101  10.179 -0.2182 -0.0167  0.0485
  230loPI   C1A 3671   1.174   6.724  10.070 -0.1338  0.1440 -0.1456
  230loPI   C2A 3672   1.179   6.815   9.720  0.0228  0.0031 -0.0743
  230loPI   C3A 3673   1.132   6.807   9.327 -0.1586 -0.0119 -0.0364
  230loPI   C4A 3674   1.049   6.827   8.830  0.1536  0.0325  0.0711
  230loPI   C5A 3675   1.077   6.768   8.365 -0.0311  0.1526  0.1174
  230loPI   C6A 3676   0.891   6.532   8.051  0.1725  0.1832  0.1427
  230loPI   C1B 3677   0.916   7.258   9.788 -0.1105  0.0905 -0.4669
  230loPI   C2B 3678   0.844   7.224   9.358  0.0434  0.0253  0.0795
  230loPI   C3B 3679   0.723   7.261   8.965  0.1022  0.2424 -0.1714
  230loPI   C4B 3680   0.900   7.232   8.500  0.4100 -0.3242 -0.1713
  231loPI    C1 3681  15.736  13.020  11.119  0.0854  0.0099  0.0081
  231loPI    C2 3682  15.355  13.030  10.999  0.1154 -0.0267 -0.0916
  231loPI    C3 3683  15.481  12.736  11.239  0.1489 -0.1803 -0.2942
  231loPI   PO4 3684  15.876  13.097  10.939  0.0432 -0.0864 -0.2385
  231loPI   GL1 3685  15.892  13.080  10.434  0.3343  0.0205  0.1608
  231loPI   GL2 3686  15.901  13.415  10.381 -0.1296 -0.2008 -0.1118
  231loPI   C1A 3687  15.813  12.850   9.962 -0.2667  0.0288  0.1625
  231loPI   C2A 3688  15.755  12.848   9.602  0.1328  0.3143  0.3633
  231loPI   C3A 3689  15.779  12.842   9.190  0.1652 -0.2221 -0.1415
  231loPI   C4A 3690  15.710  12.871   8.770  0.1414 -0.1935 -0.0782
  231loPI   C5A 3691  15.665  12.896   8.303 -0.3826  0.3932 -0.1569
  231loPI   C6A 3692  15.894  12.839   7.940 -0.1890  0.1097  0.2941
  231loPI   C1B 3693  15.965  13.323   9.905 -0.1084  0.1734  0.0053
  231loPI   C2B 3694  15.976  13.300   9.472  0.0096  0.0258 -0.0369
  231loPI   C3B 3695  15.881  13.327   9.048  0.0069 -0.0748  0.1927
  231loPI   C4B 3696  15.966  13.291   8.578 -0.1394  0.0452  0.0034
  232loPI    C1 3697   0.489  11.332  11.106 -0.1784 -0.1386  0.1002
  232loPI    C2 3698   0.222  11.582  11.268 -0.0325  0.1323 -0.0691
  232loPI    C3 3699   0.525  11.442  11.489 -0.1543  0.0483  0.0457
  232loPI   PO4 3700   0.335  11.389  10.822 -0.1366 -0.0307  0.2493
  232loPI   GL1 3701   0.425  11.636  10.465  0.2977 -0.0435 -0.0339
  232loPI   GL2 3702   0.088  11.622  10.423 -0.0737 -0.1458  0.0405
  232loPI   C1A 3703   0.631  11.604  10.011  0.1558 -0.0048  0.1834
  232loPI   C2A 3704   0.663  11.627   9.616  0.1868 -0.1888  0.2253
  232loPI   C3A 3705   0.580  11.564   9.137 -0.0342  0.3015  0.0488
  232loPI   C4A 3706   0.621  11.787   8.743  0.0108 -0.0400  0.0673
  232loPI   C5A 3707   0.788  12.172   8.527 -0.2658 -0.1564 -0.0844
  232loPI   C6A 3708   0.712  12.463   8.221 -0.0469 -0.0207 -0.1538
  232loPI   C1B 3709   0.136  11.601   9.909 -0.1407 -0.2819  0.1102
  232loPI   C2B 3710   0.115  11.632   9.438 -0.0608  0.2626  0.2088
  232loPI   C3B 3711   0.070  11.618   8.963 -0.2938 -0.1052  0.0072
  232loPI   C4B 3712   0.164  11.738   8.566 -0.1816 -0.1171 -0.0220
  233loPI    C1 3713  13.139   1.420  10.434 -0.0599 -0.0285 -0.0555
  233loPI    C2 3714  12.916   1.265  10.728  0.1712 -0.2500  0.0067
  233loPI    C3 3715  13.153   1.579  10.801  0.1482 -0.2381  0.0299
  233loPI   PO4 3716  12.902   1.536  10.284 -0.2328 -0.3133  0.2991
  233loPI   GL1 3717  12.690   1.453   9.940 -0.0471 -0.2912 -0.0152
  233loPI   GL2 3718  12.443   1.655  10.115 -0.1056 -0.0373 -0.1803
  233loPI   C1A 3719  12.666   1.549   9.557  0.2970 -0.2061 -0.0953
  233loPI   C2A 3720  12.537   1.507   9.132 -0.3891 -0.0324  0.0069
  233loPI   C3A 3721  12.553   1.441   8.711  0.2495 -0.0895  0.2414
  233loPI   C4A 3722  12.539   1.442   8.284  0.0388 -0.1137 -0.0139
  233loPI   C5A 3723  12.409   1.635   7.991  0.1987  0.2562 -0.1778
  233loPI   C6A 3724  12.094   1.961   7.873  0.2270 -0.0303 -0.4473
  233loPI   C1B 3725  12.285   1.901   9.723  0.1492  0.2694 -0.1315
  233loPI   C2B 3726  12.310   1.943   9.303  0.2592 -0.1057 -0.0303
  233loPI   C3B 3727  12.232   1.847   8.895 -0.0763  0.2508 -0.0962
  233loPI   C4B 3728  12.273   1.844   8.468 -0.2656  0.1139  0.3142
  234loPI    C1 3729   7.663  10.562  11.109  0.1947  0.1238 -0.0648
  234loPI    C2 3730   8.003  10.663  11.295  0.0128  0.0028  0.3449
  234loPI    C3 3731   7.653  10.804  11.428 -0.1120  0.0184  0.0090
  234loPI   PO4 3732   7.651  10.594  10.940  0.1278 -0.0633  0.0710
  234loPI   GL1 3733   7.703  10.695  10.509  0.3767 -0.3104 -0.2114
  234loPI   GL2 3734   7.426  10.644  10.519 -0.1508  0.1674  0.1320
  234loPI   C1A 3735   7.710  10.687  10.044 -0.0231  0.3033  0.0833
  234loPI   C2A 3736   7.701  10.635   9.658 -0.1548  0.0777 -0.1669
  234loPI   C3A 3737   7.726  10.707   9.236  0.0208 -0.0965  0.0546
  234loPI   C4A 3738   7.670  10.703   8.822 -0.1912 -0.0061 -0.0016
  234loPI   C5A 3739   7.351  10.717   8.582  0.0461  0.1519  0.1054
  234loPI   C6A 3740   6.973  10.694   8.630  0.0502 -0.3859 -0.2707
  234loPI   C1B 3741   7.139  10.590  10.210 -0.0011  0.0628 -0.2382
  234loPI   C2B 3742   7.221  10.765   9.901 -0.1019  0.1224 -0.0773
  234loPI   C3B 3743   7.212  10.666   9.526 -0.0614  0.0745 -0.3942
  234loPI   C4B 3744   7.265  10.655   9.064  0.2034 -0.3996 -0.1241
  235loPI    C1 3745  15.635   3.179  10.812  0.0042 -0.1246  0.1068
  235loPI    C2 3746  15.903   3.037  11.073  0.0984 -0.0805  0.0348
  235loPI    C3 3747  15.611   3.281  11.198 -0.1172 -0.4028  0.1756
  235loPI   PO4 3748  15.712   3.087  10.574  0.0919  0.4618  0.1730
  235loPI   GL1 3749  15.697   2.779  10.203 -0.0241  0.2212 -0.1853
  235loPI   GL2 3750  15.438   2.930  10.065 -0.0508 -0.4748 -0.2357
  235loPI   C1A 3751  15.721   2.502   9.865  0.0221 -0.1720 -0.1623
  235loPI   C2A 3752  15.665   2.509   9.444 -0.0788  0.0748  0.1928
  235loPI   C3A 3753  15.682   2.447   8.969  0.1729 -0.0908  0.0113
  235loPI   C4A 3754  15.639   2.605   8.569 -0.0402 -0.0001 -0.1620
  235loPI   C5A 3755  15.744   2.762   8.195 -0.0317 -0.2845 -0.0825
  235loPI   C6A 3756  15.754   2.661   7.771  0.1815  0.1880  0.2370
  235loPI   C1B 3757  15.353   3.019   9.640  0.1356  0.0088  0.1179
  235loPI   C2B 3758  15.332   3.036   9.171  0.0323  0.1431  0.2230
  235loPI   C3B 3759  15.366   3.077   8.662 -0.1497  0.1065 -0.1322
  235loPI   C4B 3760  15.344   3.093   8.283 -0.0223 -0.0559 -0.0138
  236loPI    C1 3761  12.349  11.330  11.116 -0.0505 -0.2262  0.0417
  236loPI    C2 3762  12.046  11.087  11.209  0.2794 -0.5427  0.3227
  236loPI    C3 3763  12.250  11.271  11.499 -0.0000  0.1294  0.1129
  236loPI   PO4 3764  12.527  11.244  10.888 -0.0233  0.4098 -0.1023
  236loPI   GL1 3765  12.458  11.084  10.417  0.1065 -0.0983 -0.0089
  236loPI   GL2 3766  12.804  11.141  10.424 -0.0775  0.1721  0.0221
  236loPI   C1A 3767  12.367  10.986  10.002  0.1079 -0.0022  0.1734
  236loPI   C2A 3768  12.316  10.873   9.607 -0.2189  0.1071 -0.1730
  236loPI   C3A 3769  12.293  10.922   9.207  0.1628  0.1934  0.0667
  236loPI   C4A 3770  12.262  10.795   8.799 -0.1018 -0.1846  0.0920
  236loPI   C5A 3771  12.250  10.851   8.418  0.0719 -0.0886  0.2743
  236loPI   C6A 3772  12.579  11.012   8.114 -0.1533 -0.1007 -0.1384
  236loPI   C1B 3773  12.851  10.888  10.020 -0.1506  0.0429  0.2493
  236loPI   C2B 3774  12.790  10.923   9.604  0.0758 -0.1483 -0.2472
  236loPI   C3B 3775  12.785  10.897   9.146  0.3348  0.1937 -0.0739
  236loPI   C4B 3776  12.858  10.861   8.700  0.1446 -0.3690 -0.2311
  237loPI    C1 3777  17.557  13.218  11.051 -0.0322  0.1620  0.0543
  237loPI    C2 3778  17.741  12.933  11.263 -0.2480 -0.0232 -0.0022
  237loPI    C3 3779  17.517  13.208  11.449 -0.0049  0.1381  0.0565
  237loPI   PO4 3780  17.587  13.164  10.858  0.1741  0.2586  0.0418
  237loPI   GL1 3781  17.515  13.048  10.386 -0.3160 -0.3552 -0.0758
  237loPI   GL2 3782  17.774  12.958  10.397  0.2029 -0.1649 -0.2076
  237loPI   C1A 3783  17.504  13.298   9.964  0.1830 -0.0672 -0.2175
  237loPI   C2A 3784  17.499  13.326   9.502  0.2089  0.1147 -0.3937
  237loPI   C3A 3785  17.441  13.301   9.099  0.0399 -0.0563 -0.0606
  237loPI   C4A 3786  17.364  13.385   8.652 -0.3096 -0.1437 -0.3189
  237loPI   C5A 3787  17.637  13.315   8.374 -0.2571  0.1404 -0.1955
  237loPI   C6A 3788  17.769  12.965   8.007 -0.2503  0.1209  0.0568
  237loPI   C1B 3789  17.785  12.884   9.987  0.0185 -0.2324 -0.1901
  237loPI   C2B 3790  17.817  12.930   9.538 -0.0806  0.3274 -0.3467
  237loPI   C3B 3791  17.798  12.891   9.155 -0.0323 -0.0588  0.3273
  237loPI   C4B 3792  17.682  12.925   8.649  0.2473  0.3124 -0.3416
  238loPI    C1 3793   7.957   0.594  10.948  0.2286  0.0439  0.2949
  238loPI    C2 3794   7.644   0.797  11.093  0.1527  0.2420 -0.1319
  238loPI    C3 3795   7.673   0.403  11.154 -0.1028  0.2477  0.0371
  238loPI   PO4 3796   8.017   0.717  10.738 -0.2741  0.0084 -0.4115
  238loPI   GL1 3797   8.150   0.768  10.396 -0.0724 -0.0638  0.2299
  238loPI   GL2 3798   8.432   0.841  10.292 -0.0779  0.0331  0.0813
  238loPI   C1A 3799   8.230   0.724   9.873  0.0207  0.3580 -0.1558
  238loPI   C2A 3800   8.235   0.730   9.420  0.0479 -0.1087  0.0916
  238loPI   C3A 3801   8.233   0.782   8.973  0.2298 -0.2817  0.0701
  238loPI   C4A 3802   8.388   0.848   8.617 -0.0062  0.1296 -0.1912
  238loPI   C5A 3803   8.280   0.966   8.187  0.3346  0.3070  0.1807
  238loPI   C6A 3804   8.292   1.412   8.150 -0.1910  0.0694 -0.1361
  238loPI   C1B 3805   8.542   1.131  10.062 -0.0030  0.2036  0.0140
  238loPI   C2B 3806   8.507   1.186   9.667 -0.0927 -0.0376  0.2577
  238loPI   C3B 3807   8.459   1.192   9.281  0.1003 -0.0450  0.0883
  238loPI   C4B 3808   8.427   1.295   8.885 -0.0276  0.0305  0.1294
  239loPI    C1 3809  14.044  15.094  10.203  0.2102 -0.1328  0.1602
  239loPI    C2 3810  14.249  15.431  10.137 -0.2215  0.1222  0.0844
  239loPI    C3 3811  14.092  15.359  10.498 -0.0085 -0.0695  0.1409
  239loPI   PO4 3812  14.082  14.932  10.062 -0.0911  0.3913  0.0246
  239loPI   GL1 3813  14.212  14.923   9.714  0.0224  0.1143  0.0719
  239loPI   GL2 3814  14.393  15.110   9.644 -0.0085  0.2267  0.0259
  239loPI   C1A 3815  14.021  14.844   9.321  0.0773 -0.2420  0.0540
  239loPI   C2A 3816  13.846  14.852   8.958  0.1407  0.2433  0.1500
  239loPI   C3A 3817  13.823  15.050   8.508  0.0497 -0.2681  0.1267
  239loPI   C4A 3818  13.737  15.111   8.114 -0.0807 -0.1735  0.0143
  239loPI   C5A 3819  13.828  14.904   7.722  0.3478 -0.0967  0.0582
  239loPI   C6A 3820  13.953  14.670   7.360 -0.1171  0.2811 -0.2402
  239loPI   C1B 3821  14.419  15.183   9.194 -0.0880  0.1317  0.0117
  239loPI   C2B 3822  14.289  15.038   8.789  0.2266  0.2829  0.0819
  239loPI   C3B 3823  14.376  15.112   8.271 -0.0479 -0.0174 -0.1969
  239loPI   C4B 3824  14.334  15.249   7.901 -0.3255 -0.0530 -0.1411
  240loPI    C1 3825  12.473   5.080  10.913  0.1390  0.1150  0.2397
  240loPI    C2 3826  12.268   4.738  10.877 -0.0375  0.2557 -0.1434
  240loPI    C3 3827  12.080   5.073  10.990  0.0401  0.3237 -0.2141
  240loPI   PO4 3828  12.546   5.120  10.693 -0.1491  0.1390  0.3661
  240loPI   GL1 3829  12.432   5.050  10.289 -0.0712 -0.0464 -0.1475
  240loPI   GL2 3830  12.185   4.756  10.325  0.2391 -0.0625 -0.2499
  240loPI   C1A 3831  12.368   5.072   9.856 -0.0323 -0.1030 -0.0262
  240loPI   C2A 3832  12.463   5.090   9.451 -0.1349 -0.1521  0.1674
  240loPI   C3A 3833  12.345   5.033   9.038 -0.3167  0.0665 -0.1028
  240loPI   C4A 3834  12.412   5.053   8.578  0.1356  0.0229 -0.2040
  240loPI   C5A 3835  12.530   5.155   8.126 -0.0215 -0.0409  0.2455
  240loPI   C6A 3836  12.498   4.890   7.724 -0.0298  0.0597  0.1657
  240loPI   C1B 3837  11.934   5.053  10.162  0.0649  0.0718  0.3256
  240loPI   C2B 3838  11.835   5.117   9.729  0.2074  0.3248 -0.3151
  240loPI   C3B 3839  11.905   4.981   9.162 -0.0586  0.1079 -0.0102
  240loPI   C4B 3840  11.928   4.991   8.769 -0.2704  0.1372 -0.1329
  241loPI    C1 3841   1.733   6.476  11.120  0.0685 -0.2523 -0.0190
  241loPI    C2 3842   1.400   6.279  11.221 -0.0025 -0.0922  0.0629
  241loPI    C3 3843   1.748   6.084  11.195 -0.0504 -0.2067  0.2578
  241loPI   PO4 3844   1.684   6.644  10.869  0.0498  0.0088  0.0027
  241loPI   GL1 3845   1.806   6.613  10.494  0.0627  0.0301 -0.0051
  241loPI   GL2 3846   1.695   6.974  10.375 -0.2074 -0.0335 -0.1931
  241loPI   C1A 3847   1.926   6.418  10.053 -0.1061 -0.0517 -0.2046
  241loPI   C2A 3848   1.945   6.416   9.633 -0.0711 -0.2165 -0.2569
  241loPI   C3A 3849   1.911   6.440   9.125  0.1119  0.0012  0.0071
  241loPI   C4A 3850   1.937   6.394   8.660 -0.1713  0.0466  0.1622
  241loPI   C5A 3851   1.900   6.118   8.361  0.1704 -0.0099 -0.0030
  241loPI   C6A 3852   1.595   5.855   8.127  0.3400 -0.1051 -0.2183
  241loPI   C1B 3853   1.633   6.842   9.934  0.0662 -0.0548 -0.1157
  241loPI   C2B 3854   1.682   6.836   9.472  0.2041  0.1312  0.0029
  241loPI   C3B 3855   1.596   6.907   9.027 -0.1404 -0.2860 -0.0341
  241loPI   C4B 3856   1.572   6.750   8.590 -0.3516 -0.2150  0.0785
  242loPI    C1 3857  12.012   4.327  10.818 -0.0475 -0.0886  0.0364
  242loPI    C2 3858  11.859   4.475  11.158 -0.0989  0.0711 -0.0548
  242loPI    C3 3859  11.978   4.093  11.141 -0.1758  0.0386  0.1167
  242loPI   PO4 3860  11.908   4.412  10.636 -0.0794  0.0911 -0.1137
  242loPI   GL1 3861  12.039   4.273  10.219 -0.2963 -0.0410  0.0878
  242loPI   GL2 3862  11.962   4.021  10.166  0.4095  0.1498  0.0116
  242loPI   C1A 3863  12.141   4.572   9.884 -0.2224 -0.1749  0.3032
  242loPI   C2A 3864  12.233   4.605   9.402  0.3014 -0.1844  0.0381
  242loPI   C3A 3865  12.183   4.509   9.058 -0.3100 -0.1974 -0.1549
  242loPI   C4A 3866  12.158   4.536   8.649  0.0704  0.2645 -0.1720
  242loPI   C5A 3867  12.086   4.792   8.279 -0.1293 -0.3286  0.2197
  242loPI   C6A 3868  12.019   5.306   8.329 -0.1960  0.1448  0.2452
  242loPI   C1B 3869  11.982   4.153   9.695 -0.1302  0.2656  0.1525
  242loPI   C2B 3870  11.975   4.126   9.252  0.1943  0.0259 -0.0971
  242loPI   C3B 3871  11.920   4.115   8.796  0.3678 -0.0518 -0.0226
  242loPI   C4B 3872  11.831   4.309   8.367  0.1131 -0.0425  0.1658
  243loPI    C1 3873  14.291  10.484  11.255  0.0278  0.1075 -0.0610
  243loPI    C2 3874  13.985  10.608  11.481  0.0662 -0.1965  0.1642
  243loPI    C3 3875  14.150  10.250  11.547  0.0644 -0.3031 -0.3636
  243loPI   PO4 3876  14.321  10.643  11.048  0.1245 -0.1386 -0.1199
  243loPI   GL1 3877  14.261  10.540  10.684 -0.0295  0.1620 -0.0192
  243loPI   GL2 3878  14.107  10.434  10.443 -0.3090  0.0907  0.1022
  243loPI   C1A 3879  14.516  10.517  10.227  0.1733  0.0027  0.0606
  243loPI   C2A 3880  14.572  10.551   9.756 -0.0257 -0.1889 -0.0687
  243loPI   C3A 3881  14.625  10.533   9.331  0.4118  0.1602  0.0910
  243loPI   C4A 3882  14.569  10.571   8.959  0.0943  0.0322  0.2664
  243loPI   C5A 3883  14.488  10.540   8.482 -0.0170  0.1289 -0.1010
  243loPI   C6A 3884  14.353  10.751   8.107 -0.1972  0.1621  0.3820
  243loPI   C1B 3885  14.090  10.524   9.991  0.0632 -0.2720 -0.0220
  243loPI   C2B 3886  14.128  10.576   9.528  0.0237  0.0024 -0.1068
  243loPI   C3B 3887  14.085  10.506   9.132 -0.1925 -0.1778 -0.1627
  243loPI   C4B 3888  14.023  10.588   8.709  0.1674 -0.0877 -0.2172
  244loPI    C1 3889   3.162   6.239  10.957 -0.2146  0.0867  0.0067
  244loPI    C2 3890   3.204   5.907  11.177 -0.1126  0.2134  0.1800
  244loPI    C3 3891   3.269   6.266  11.342  0.0350  0.3067 -0.0758
  244loPI   PO4 3892   3.259   6.179  10.711 -0.0885  0.2299 -0.2612
  244loPI   GL1 3893   3.306   6.398  10.456  0.0755 -0.1458  0.2363
  244loPI   GL2 3894   3.213   6.764  10.387 -0.0152 -0.1460 -0.3558
  244loPI   C1A 3895   3.538   6.434  10.098  0.0558  0.1299  0.0464
  244loPI   C2A 3896   3.546   6.471   9.689 -0.1934 -0.1098  0.3787
  244loPI   C3A 3897   3.439   6.489   9.306 -0.0785  0.2131 -0.1150
  244loPI   C4A 3898   3.445   6.503   8.946 -0.1364 -0.0608 -0.0647
  244loPI   C5A 3899   3.663   6.456   8.535 -0.2802  0.2341  0.1863
  244loPI   C6A 3900   3.885   6.371   8.187  0.0198  0.0565 -0.0596
  244loPI   C1B 3901   3.185   6.863   9.994  0.0114  0.1737 -0.1463
  244loPI   C2B 3902   3.195   6.892   9.593 -0.3266 -0.1052  0.0347
  244loPI   C3B 3903   3.162   6.880   9.134  0.0250  0.1952 -0.1700
  244loPI   C4B 3904   3.206   6.987   8.638 -0.1627 -0.0293 -0.2420
  245loPI    C1 3905  14.742   3.506  11.007 -0.1261  0.0381 -0.1043
  245loPI    C2 3906  14.466   3.216  11.020  0.2002 -0.2768 -0.0143
  245loPI    C3 3907  14.591   3.389  11.359 -0.0520  0.0334 -0.0739
  245loPI   PO4 3908  14.783   3.564  10.813 -0.3759 -0.0546 -0.2785
  245loPI   GL1 3909  14.791   3.607  10.394 -0.2346  0.0951 -0.3538
  245loPI   GL2 3910  14.940   3.414  10.167  0.0321  0.2657  0.1477
  245loPI   C1A 3911  14.601   3.719   9.972  0.0782 -0.0040  0.1516
  245loPI   C2A 3912  14.845   3.845   9.624  0.1412  0.0119  0.0622
  245loPI   C3A 3913  14.789   3.797   9.255  0.1075  0.1700 -0.3836
  245loPI   C4A 3914  14.771   3.782   8.938 -0.1941  0.2382  0.3680
  245loPI   C5A 3915  14.706   3.827   8.561  0.0869 -0.1748 -0.3275
  245loPI   C6A 3916  14.880   3.690   8.119 -0.2208 -0.0373  0.0932
  245loPI   C1B 3917  15.048   3.433   9.812 -0.1981 -0.1549  0.1627
  245loPI   C2B 3918  15.105   3.428   9.339  0.1291 -0.1951  0.1604
  245loPI   C3B 3919  15.053   3.387   8.873 -0.0738 -0.0044  0.1526
  245loPI   C4B 3920  14.943   3.353   8.486 -0.1069 -0.3590 -0.0409
  246loPI    C1 3921   4.308  11.810  11.061 -0.0067  0.0501 -0.1287
  246loPI    C2 3922   4.300  11.592  11.396  0.0416  0.0347 -0.1374
  246loPI    C3 3923   3.958  11.693  11.215  0.0148  0.0564 -0.0750
  246loPI   PO4 3924   4.510  11.659  10.946  0.0002  0.1923 -0.2109
  246loPI   GL1 3925   4.457  11.522  10.598  0.0574 -0.1471 -0.0506
  246loPI   GL2 3926   4.346  11.799  10.534  0.0626 -0.0106  0.0740
  246loPI   C1A 3927   4.494  11.392  10.207  0.0878  0.0709 -0.0340
  246loPI   C2A 3928   4.514  11.383   9.746 -0.1278 -0.0027 -0.0599
  246loPI   C3A 3929   4.472  11.463   9.375 -0.2341  0.4469 -0.0918
  246loPI   C4A 3930   4.567  11.467   8.926  0.0133  0.0292  0.1311
  246loPI   C5A 3931   4.603  11.567   8.501  0.1137  0.0616 -0.1738
  246loPI   C6A 3932   4.704  11.918   8.353 -0.0858  0.0082  0.2844
  246loPI   C1B 3933   4.301  11.835  10.112  0.1423 -0.0752 -0.0646
  246loPI   C2B 3934   4.230  11.825   9.627 -0.1597 -0.0963  0.0060
  246loPI   C3B 3935   4.207  11.791   9.174  0.5013 -0.2568  0.1946
  246loPI   C4B 3936   4.276  11.835   8.756 -0.0023  0.0053 -0.0423
  247loPI    C1 3937   7.612   3.501  10.769 -0.1332  0.1431  0.1684
  247loPI    C2 3938   7.282   3.538  10.546 -0.0020 -0.0641 -0.0655
  247loPI    C3 3939   7.381   3.182  10.699  0.1462 -0.0166 -0.0493
  247loPI   PO4 3940   7.792   3.574  10.651  0.1227  0.0758 -0.2007
  247loPI   GL1 3941   7.952   3.452  10.236 -0.1611  0.0423 -0.2053
  247loPI   GL2 3942   7.593   3.475  10.150 -0.1293  0.0084  0.1634
  247loPI   C1A 3943   8.156   3.467   9.863 -0.0073 -0.1654  0.1603
  247loPI   C2A 3944   8.143   3.501   9.517  0.4152 -0.0916 -0.0588
  247loPI   C3A 3945   8.100   3.472   9.099 -0.1227 -0.2612 -0.2302
  247loPI   C4A 3946   8.022   3.533   8.679 -0.0579  0.1570  0.0929
  247loPI   C5A 3947   7.950   3.303   8.221  0.1319  0.2189 -0.3080
  247loPI   C6A 3948   7.994   3.434   7.863  0.0403  0.0758 -0.2429
  247loPI   C1B 3949   7.689   3.520   9.713  0.1867  0.0639 -0.1413
  247loPI   C2B 3950   7.630   3.438   9.285 -0.3162  0.1543  0.4297
  247loPI   C3B 3951   7.463   3.494   8.972 -0.0502 -0.1620  0.0618
  247loPI   C4B 3952   7.579   3.430   8.571 -0.0716  0.2972 -0.1166
  248loPI    C1 3953  13.591  14.206  10.744  0.1468  0.0356 -0.0027
  248loPI    C2 3954  13.495  14.594  10.754  0.0765  0.0180  0.0172
  248loPI    C3 3955  13.455  14.369  11.083 -0.1224 -0.0626 -0.0611
  248loPI   PO4 3956  13.547  14.137  10.514 -0.1851 -0.2758 -0.0133
  248loPI   GL1 3957  13.391  13.978  10.175  0.2482 -0.0587 -0.1018
  248loPI   GL2 3958  13.228  13.835  10.047 -0.0020  0.0622  0.0422
  248loPI   C1A 3959  13.625  14.042   9.726  0.0370 -0.3862  0.0437
  248loPI   C2A 3960  13.537  14.062   9.342 -0.0705  0.2223  0.0481
  248loPI   C3A 3961  13.404  13.998   8.940 -0.1876 -0.1418 -0.0775
  248loPI   C4A 3962  13.348  14.142   8.514  0.0070  0.1465  0.2056
  248loPI   C5A 3963  13.290  14.019   8.081  0.1051 -0.1742 -0.2568
  248loPI   C6A 3964  13.156  13.632   7.935 -0.2277  0.0248  0.2955
  248loPI   C1B 3965  13.186  13.555   9.764  0.1320  0.1166  0.0180
  248loPI   C2B 3966  13.103  13.580   9.292  0.1377 -0.1595 -0.1307
  248loPI   C3B 3967  13.163  13.581   8.914 -0.1536 -0.2358  0.1926
  248loPI   C4B 3968  13.123  13.634   8.456 -0.1069 -0.7329 -0.1624
  249loPI    C1 3969  11.804  17.325  10.399  0.0135  0.2311 -0.0232
  249loPI    C2 3970  12.196  17.250  10.430  0.0057  0.2303  0.0754
  249loPI    C3 3971  11.982  17.337  10.757 -0.1621 -0.1925  0.0838
  249loPI   PO4 3972  11.776  17.098  10.196  0.1368 -0.3958  0.4414
  249loPI   GL1 3973  11.729  17.225   9.788  0.2569  0.1677 -0.4744
  249loPI   GL2 3974  11.879  17.457   9.606  0.0713 -0.1507 -0.0648
  249loPI   C1A 3975  11.510  17.151   9.429  0.0508 -0.3183  0.1409
  249loPI   C2A 3976  11.509  17.118   9.087  0.2612  0.2256  0.1332
  249loPI   C3A 3977  11.390  17.111   8.775 -0.0908 -0.3090 -0.2236
  249loPI   C4A 3978  11.392  17.069   8.411 -0.0654 -0.0620 -0.1916
  249loPI   C5A 3979  11.366  17.253   8.049  0.0936  0.0285  0.1657
  249loPI   C6A 3980  11.180  17.413   7.678 -0.0208 -0.0531  0.0211
  249loPI   C1B 3981  11.814  17.486   9.270 -0.0035  0.0889  0.2176
  249loPI   C2B 3982  11.682  17.589   8.885  0.1042  0.0773  0.0429
  249loPI   C3B 3983  11.622  17.583   8.444  0.0719  0.1775 -0.1330
  249loPI   C4B 3984  11.728  17.632   8.021 -0.3065  0.0022  0.0604
  250loPI    C1 3985   2.743   7.584  11.245 -0.0077 -0.1767 -0.1212
  250loPI    C2 3986   3.037   7.337  11.357 -0.0634 -0.2819 -0.2052
  250loPI    C3 3987   2.831   7.540  11.633 -0.0652 -0.3843 -0.1302
  250loPI   PO4 3988   2.880   7.586  10.945  0.2901  0.2083 -0.0623
  250loPI   GL1 3989   2.954   7.720  10.562  0.3051 -0.3623 -0.0378
  250loPI   GL2 3990   3.219   7.567  10.516 -0.0175  0.1538  0.1340
  250loPI   C1A 3991   2.652   7.734  10.209  0.3512 -0.1932  0.2668
  250loPI   C2A 3992   2.684   7.725   9.718 -0.1870 -0.2561 -0.3626
  250loPI   C3A 3993   2.698   7.704   9.383 -0.0474 -0.0575 -0.1790
  250loPI   C4A 3994   2.707   7.757   8.983  0.2957 -0.1562  0.3830
  250loPI   C5A 3995   2.623   7.775   8.621 -0.0788  0.1098 -0.0657
  250loPI   C6A 3996   2.895   7.870   8.192 -0.1234 -0.0100  0.0205
  250loPI   C1B 3997   3.126   7.710  10.114 -0.1197 -0.0545 -0.3246
  250loPI   C2B 3998   3.267   7.705   9.727 -0.2130  0.0321 -0.3656
  250loPI   C3B 3999   3.156   7.843   9.190 -0.3391 -0.2139  0.0187
  250loPI   C4B 4000   3.148   7.738   8.692 -0.1895  0.1783  0.0995
  251loPI    C1 4001  17.154  16.073  10.878 -0.1850 -0.0698 -0.1457
  251loPI    C2 4002  16.977  16.174  11.222 -0.0927  0.0608 -0.1362
  251loPI    C3 4003  16.900  15.819  11.056 -0.1230 -0.0112  0.0290
  251loPI   PO4 4004  17.171  16.368  10.726 -0.0204  0.1132 -0.2300
  251loPI   GL1 4005  17.458  16.473  10.521 -0.5777 -0.2665 -0.0765
  251loPI   GL2 4006  17.488  16.081  10.396 -0.1769  0.0522  0.3924
  251loPI   C1A 4007  17.646  16.544  10.112  0.2341 -0.1198 -0.0694
  251loPI   C2A 4008  17.611  16.485   9.740  0.0856 -0.1274 -0.1157
  251loPI   C3A 4009  17.655  16.552   9.341  0.1786 -0.0197  0.1328
  251loPI   C4A 4010  17.674  16.582   8.932 -0.0537 -0.0158  0.3686
  251loPI   C5A 4011  17.599  16.590   8.415 -0.0571  0.0350  0.0892
  251loPI   C6A 4012  17.510  16.574   8.016 -0.1598  0.0081  0.2099
  251loPI   C1B 4013  17.355  16.102   9.968 -0.1175 -0.1247 -0.2432
  251loPI   C2B 4014  17.367  16.099   9.556  0.1363 -0.4772  0.3844
  251loPI   C3B 4015  17.438  16.164   9.069 -0.0170  0.2085  0.1057
  251loPI   C4B 4016  17.434  16.143   8.623  0.2051  0.4046 -0.1925
  252loPI    C1 4017  16.461   8.444  11.200 -0.2804 -0.1525  0.2997
  252loPI    C2 4018  16.582   8.072  11.284 -0.1878 -0.1974 -0.0214
  252loPI    C3 4019  16.191   8.154  11.256 -0.2186 -0.1995  0.3558
  252loPI   PO4 4020  16.586   8.450  10.931 -0.0684  0.2332  0.1095
  252loPI   GL1 4021  16.571   8.367  10.385  0.0447 -0.1489 -0.0934
  252loPI   GL2 4022  16.830   8.347  10.355  0.2070  0.0099  0.1419
  252loPI   C1A 4023  16.618   8.400   9.865  0.2706 -0.1375  0.0335
  252loPI   C2A 4024  16.512   8.454   9.444  0.0318 -0.0078 -0.2998
  252loPI   C3A 4025  16.587   8.457   9.020  0.1664  0.0156 -0.0155
  252loPI   C4A 4026  16.507   8.362   8.581 -0.1236  0.2754  0.2266
  252loPI   C5A 4027  16.411   8.450   8.213 -0.0872 -0.0557 -0.0127
  252loPI   C6A 4028  16.522   8.339   7.815  0.3880 -0.0860  0.1640
  252loPI   C1B 4029  17.131   8.296  10.003  0.0608  0.1516 -0.2327
  252loPI   C2B 4030  17.122   8.460   9.561  0.0109  0.1811 -0.3000
  252loPI   C3B 4031  17.103   8.428   9.192  0.0282  0.2988  0.1993
  252loPI   C4B 4032  17.027   8.458   8.794 -0.1499 -0.0311  0.1838
  253loPI    C1 4033   1.777  12.748  11.086  0.0857 -0.1269  0.2995
  253loPI    C2 4034   1.861  13.111  10.940 -0.1386 -0.1317  0.1527
  253loPI    C3 4035   1.533  13.056  11.163 -0.1706 -0.2688  0.0725
  253loPI   PO4 4036   1.735  12.561  10.869  0.0698 -0.0176 -0.2947
  253loPI   GL1 4037   2.023  12.644  10.501  0.0210 -0.0275 -0.0664
  253loPI   GL2 4038   1.734  12.896  10.495 -0.1047  0.1013  0.2239
  253loPI   C1A 4039   2.093  12.565  10.097  0.2378 -0.3621 -0.1851
  253loPI   C2A 4040   2.105  12.559   9.612  0.2574  0.0963 -0.1528
  253loPI   C3A 4041   2.076  12.504   9.159  0.0290 -0.0842 -0.1365
  253loPI   C4A 4042   1.950  12.622   8.769  0.1265 -0.0277 -0.1000
  253loPI   C5A 4043   1.526  12.656   8.552  0.0900  0.1068  0.0783
  253loPI   C6A 4044   1.286  12.732   8.184  0.5501  0.2600  0.1501
  253loPI   C1B 4045   1.829  13.056  10.058  0.0484  0.0470 -0.0411
  253loPI   C2B 4046   1.734  13.090   9.592  0.0969 -0.0791  0.0260
  253loPI   C3B 4047   1.786  13.005   9.135 -0.1294  0.1002  0.0278
  253loPI   C4B 4048   1.808  13.102   8.698 -0.2035  0.1771  0.0202
  254loPI    C1 4049   0.764   3.243  11.045 -0.2729 -0.0044  0.1288
  254loPI    C2 4050   1.051   3.403  11.273 -0.2830  0.2486 -0.0321
  254loPI    C3 4051   0.833   3.097  11.411  0.2772 -0.1663 -0.0297
  254loPI   PO4 4052   0.813   3.336  10.768 -0.0848  0.4723  0.1617
  254loPI   GL1 4053   0.870   3.229  10.331  0.0468 -0.4616 -0.4187
  254loPI   GL2 4054   0.529   3.146  10.315  0.1238 -0.1333  0.0483
  254loPI   C1A 4055   0.859   3.132   9.895 -0.1642  0.3079  0.0439
  254loPI   C2A 4056   0.799   3.187   9.451  0.3034 -0.1279 -0.0438
  254loPI   C3A 4057   0.929   3.299   9.042  0.1448  0.0188 -0.0528
  254loPI   C4A 4058   0.922   3.054   8.689  0.0860  0.1825 -0.0689
  254loPI   C5A 4059   1.115   3.000   8.373  0.1549  0.3266 -0.0771
  254loPI   C6A 4060   1.050   3.176   7.972  0.1384 -0.1600 -0.1809
  254loPI   C1B 4061   0.354   3.084   9.921  0.1502 -0.2010  0.4433
  254loPI   C2B 4062   0.345   3.130   9.542 -0.0312  0.0636 -0.3461
  254loPI   C3B 4063   0.437   3.301   9.107  0.0749  0.0645  0.0741
  254loPI   C4B 4064   0.445   3.250   8.748  0.0210  0.1079  0.0484
  255loPI    C1 4065   0.516   5.276  10.939 -0.1627  0.2621  0.1456
  255loPI    C2 4066   0.815   5.282  11.204  0.0514 -0.1313 -0.0786
  255loPI    C3 4067   0.456   5.142  11.311  0.0189  0.0957  0.1166
  255loPI   PO4 4068   0.627   5.289  10.713  0.0173 -0.2004 -0.0384
  255loPI   GL1 4069   0.663   5.153  10.379 -0.1205  0.0371  0.2733
  255loPI   GL2 4070   0.424   5.389  10.227  0.0885 -0.0387 -0.2157
  255loPI   C1A 4071   0.690   4.934   9.981 -0.0501 -0.1691  0.4084
  255loPI   C2A 4072   0.825   4.986   9.614  0.4174 -0.0713 -0.3183
  255loPI   C3A 4073   0.645   5.022   9.240 -0.1182 -0.0106 -0.0635
  255loPI   C4A 4074   0.765   4.969   8.825  0.0753  0.3736 -0.0283
  255loPI   C5A 4075   0.783   5.133   8.311 -0.0144 -0.4570 -0.0899
  255loPI   C6A 4076   0.749   5.350   7.986 -0.0455 -0.0996  0.1250
  255loPI   C1B 4077   0.444   5.373   9.811 -0.0879  0.4188  0.2267
  255loPI   C2B 4078   0.439   5.428   9.375 -0.0784 -0.1326 -0.0738
  255loPI   C3B 4079   0.422   5.455   8.939 -0.1376 -0.0933  0.1132
  255loPI   C4B 4080   0.331   5.484   8.442  0.3746  0.0603 -0.0239
  256loPI    C1 4081  14.692  16.479  10.675 -0.2397 -0.0014 -0.4004
  256loPI    C2 4082  14.378  16.568  10.906  0.0001 -0.3845  0.0958
  256loPI    C3 4083  14.462  16.186  10.822  0.3278 -0.2864 -0.0400
  256loPI   PO4 4084  14.652  16.599  10.516 -0.1330  0.0991  0.1811
  256loPI   GL1 4085  14.724  16.341  10.009  0.1080  0.1179 -0.0066
  256loPI   GL2 4086  15.048  16.401   9.871  0.0823 -0.2535 -0.1724
  256loPI   C1A 4087  14.551  16.453   9.554  0.1181  0.0592 -0.1381
  256loPI   C2A 4088  14.563  16.419   9.185  0.0408  0.1656 -0.0572
  256loPI   C3A 4089  14.578  16.474   8.769  0.2775  0.0674  0.1666
  256loPI   C4A 4090  14.579  16.495   8.445  0.2878  0.0290 -0.0238
  256loPI   C5A 4091  14.608  16.468   7.992  0.5315 -0.0026 -0.0800
  256loPI   C6A 4092  14.828  16.280   7.698  0.1205 -0.0693 -0.0557
  256loPI   C1B 4093  15.099  16.477   9.377 -0.2919 -0.1932 -0.3419
  256loPI   C2B 4094  15.130  16.407   8.974 -0.2261  0.2029  0.0276
  256loPI   C3B 4095  15.067  16.476   8.536  0.1658 -0.2431  0.1076
  256loPI   C4B 4096  15.094  16.472   8.085  0.1250 -0.2658 -0.0753
  257loPI    C1 4097  14.821  18.074  10.642 -0.2103 -0.1359  0.1558
  257loPI    C2 4098  14.615  18.229  10.948 -0.2006  0.0650  0.0621
  257loPI    C3 4099  14.813  17.884  10.994 -0.0867  0.1629  0.3229
  257loPI   PO4 4100  14.652  18.100  10.434  0.2166 -0.0172  0.1087
  257loPI   GL1 4101  14.764  18.121  10.031  0.3575 -0.1447  0.1364
  257loPI   GL2 4102  14.569  18.210   9.922  0.3823  0.0214  0.3202
  257loPI   C1A 4103  15.058  18.168   9.728  0.3636 -0.0744  0.2709
  257loPI   C2A 4104  15.130  18.321   9.311 -0.1149  0.0744 -0.0644
  257loPI   C3A 4105  15.081  18.298   8.934  0.2065 -0.0540  0.4697
  257loPI   C4A 4106  14.926  18.319   8.559  0.1302 -0.0507 -0.1600
  257loPI   C5A 4107  14.925  18.246   8.131  0.1342 -0.0012  0.0680
  257loPI   C6A 4108  15.139  18.139   7.757 -0.1306  0.1339 -0.0042
  257loPI   C1B 4109  14.516  18.281   9.470  0.0010  0.2848 -0.0573
  257loPI   C2B 4110  14.454  18.373   9.015 -0.1226  0.1282 -0.2548
  257loPI   C3B 4111  14.414  18.283   8.662 -0.3621 -0.0995 -0.2208
  257loPI   C4B 4112  14.424  18.244   8.151 -0.0418  0.2018  0.1225
  258loPI    C1 4113   7.289   1.098  10.815  0.3836 -0.1961 -0.0723
  258loPI    C2 4114   7.271   1.469  10.963 -0.0015 -0.1050 -0.3336
  258loPI    C3 4115   7.258   1.155  11.210 -0.4913  0.0463 -0.1560
  258loPI   PO4 4116   7.203   1.094  10.657  0.0533  0.0527  0.0223
  258loPI   GL1 4117   7.286   0.916  10.274  0.1728 -0.1250  0.1504
  258loPI   GL2 4118   7.196   0.725  10.136 -0.0759  0.0051 -0.0155
  258loPI   C1A 4119   7.460   1.120   9.906  0.0078 -0.0108  0.0284
  258loPI   C2A 4120   7.501   1.149   9.553  0.0596 -0.0716 -0.1774
  258loPI   C3A 4121   7.457   1.169   9.123  0.0957 -0.0130 -0.1079
  258loPI   C4A 4122   7.434   1.058   8.689 -0.0294  0.3356 -0.1177
  258loPI   C5A 4123   7.281   1.105   8.313  0.2455  0.0733 -0.1016
  258loPI   C6A 4124   6.868   1.351   8.186 -0.0091 -0.0457  0.0820
  258loPI   C1B 4125   7.276   0.687   9.685 -0.0848 -0.1386 -0.0013
  258loPI   C2B 4126   7.273   0.707   9.179 -0.4394  0.5710  0.0512
  258loPI   C3B 4127   7.153   0.675   8.836  0.0615  0.3906  0.1252
  258loPI   C4B 4128   7.166   0.580   8.420 -0.1685  0.0822  0.0268
  259loPI    C1 4129   9.356   8.204  10.932  0.2311 -0.0782 -0.1273
  259loPI    C2 4130   9.470   8.316  11.299 -0.1726  0.2549 -0.0954
  259loPI    C3 4131   9.350   7.941  11.233 -0.2471  0.2339  0.1503
  259loPI   PO4 4132   9.531   8.315  10.783 -0.0728 -0.0512  0.1110
  259loPI   GL1 4133   9.663   8.539  10.397  0.0987  0.4255  0.1752
  259loPI   GL2 4134   9.611   8.810  10.381  0.0444  0.5212  0.0401
  259loPI   C1A 4135   9.576   8.528   9.957 -0.0843 -0.4721  0.3454
  259loPI   C2A 4136   9.583   8.486   9.555 -0.3857 -0.0202  0.3084
  259loPI   C3A 4137   9.519   8.467   9.098 -0.1836 -0.1875  0.1466
  259loPI   C4A 4138   9.497   8.365   8.687 -0.0053  0.1196 -0.2304
  259loPI   C5A 4139   9.703   8.556   8.275  0.1847  0.1196 -0.1727
  259loPI   C6A 4140   9.543   8.803   7.949 -0.1763  0.0211 -0.0427
  259loPI   C1B 4141   9.924   8.979  10.108 -0.0218  0.2785  0.2369
  259loPI   C2B 4142   9.848   9.018   9.643  0.0733 -0.1976 -0.2298
  259loPI   C3B 4143   9.790   8.967   9.161 -0.3217 -0.1809 -0.1109
  259loPI   C4B 4144   9.791   8.816   8.739  0.1072 -0.2302 -0.3384
  260loPI    C1 4145   8.346  16.654  11.050 -0.0797  0.1747 -0.0512
  260loPI    C2 4146   8.664  16.864  11.172  0.3118 -0.3552 -0.1248
  260loPI    C3 4147   8.453  16.649  11.435  0.0302 -0.0357 -0.0829
  260loPI   PO4 4148   8.247  16.811  10.818  0.3209  0.1507 -0.0236
  260loPI   GL1 4149   8.381  16.959  10.501 -0.3435  0.0795  0.0619
  260loPI   GL2 4150   8.678  16.983  10.464  0.2115  0.2208  0.0284
  260loPI   C1A 4151   8.328  16.997  10.053 -0.3360 -0.2020  0.2099
  260loPI   C2A 4152   8.352  16.949   9.640  0.0930  0.0704 -0.1581
  260loPI   C3A 4153   8.348  17.114   9.253 -0.1068 -0.2202  0.0325
  260loPI   C4A 4154   8.383  17.099   8.844 -0.3074 -0.2180  0.2151
  260loPI   C5A 4155   8.457  17.026   8.404 -0.0094  0.0689 -0.0321
  260loPI   C6A 4156   8.451  16.863   8.105  0.1564 -0.0613 -0.1225
  260loPI   C1B 4157   8.831  16.991  10.011 -0.1324  0.0890 -0.0621
  260loPI   C2B 4158   8.845  17.103   9.584  0.1399  0.2055 -0.3127
  260loPI   C3B 4159   8.835  17.035   9.160  0.0334 -0.2728 -0.0979
  260loPI   C4B 4160   8.859  17.096   8.682  0.3292 -0.5690  0.0954
  261loPI    C1 4161  14.554  17.104  10.369  0.0858  0.2691 -0.0036
  261loPI    C2 4162  14.263  17.284  10.576 -0.2915 -0.3198  0.0012
  261loPI    C3 4163  14.545  17.075  10.767 -0.0250  0.0091 -0.0229
  261loPI   PO4 4164  14.583  17.224  10.201 -0.0274  0.1732  0.3083
  261loPI   GL1 4165  14.810  17.175   9.863  0.0095  0.2040  0.2346
  261loPI   GL2 4166  14.724  16.937   9.658 -0.0143  0.0492  0.1647
  261loPI   C1A 4167  15.036  17.321   9.474 -0.1324 -0.2163 -0.1308
  261loPI   C2A 4168  15.100  17.380   9.042 -0.1040 -0.2049 -0.2034
  261loPI   C3A 4169  15.017  17.435   8.635 -0.0432 -0.0916  0.0083
  261loPI   C4A 4170  14.914  17.426   8.235 -0.2839  0.0116  0.1553
  261loPI   C5A 4171  14.761  17.743   7.837  0.1254  0.0238  0.3894
  261loPI   C6A 4172  14.479  18.104   7.713 -0.2833  0.0328  0.0237
  261loPI   C1B 4173  14.896  16.844   9.183 -0.0749  0.2598  0.1189
  261loPI   C2B 4174  14.883  16.888   8.704 -0.0227 -0.0125  0.1722
  261loPI   C3B 4175  14.726  16.964   8.365  0.2225  0.0391 -0.2009
  261loPI   C4B 4176  14.903  16.879   8.028 -0.0762  0.0755 -0.0915
  262loPI    C1 4177   1.110   8.198  11.226  0.2405  0.0072  0.1704
  262loPI    C2 4178   1.391   8.466  11.322  0.3823 -0.1477  0.1928
  262loPI    C3 4179   1.416   8.092  11.461  0.2329 -0.1967  0.0901
  262loPI   PO4 4180   1.110   8.241  10.954 -0.0047  0.2047  0.0535
  262loPI   GL1 4181   1.079   7.844  10.616  0.0157  0.1617  0.1503
  262loPI   GL2 4182   1.069   7.630  10.327  0.0471 -0.2875  0.0244
  262loPI   C1A 4183   0.932   8.072  10.183 -0.3873  0.2593 -0.3009
  262loPI   C2A 4184   0.899   8.128   9.749  0.0708  0.1007  0.0329
  262loPI   C3A 4185   0.772   8.073   9.313  0.1525  0.3621  0.2032
  262loPI   C4A 4186   0.742   8.042   8.916  0.2069  0.1803  0.0314
  262loPI   C5A 4187   0.759   8.074   8.544  0.0255  0.0873 -0.0353
  262loPI   C6A 4188   0.895   8.297   8.205  0.0774 -0.1642  0.0860
  262loPI   C1B 4189   1.172   7.686   9.979  0.1996  0.0360 -0.1353
  262loPI   C2B 4190   1.131   7.652   9.585 -0.0591 -0.2119  0.3001
  262loPI   C3B 4191   1.070   7.640   9.127  0.0042 -0.2934 -0.2814
  262loPI   C4B 4192   1.023   7.632   8.721 -0.0833 -0.1148  0.1466
  263loPI    C1 4193  17.245   1.058  10.955  0.1586  0.0443  0.4305
  263loPI    C2 4194  17.012   1.379  11.007 -0.0175 -0.0367  0.1635
  263loPI    C3 4195  17.226   1.235  11.313 -0.0603  0.2375  0.3259
  263loPI   PO4 4196  17.176   1.052  10.609  0.1448 -0.4607 -0.3714
  263loPI   GL1 4197  16.888   0.929  10.290 -0.1363  0.0152 -0.0923
  263loPI   GL2 4198  16.568   1.030  10.147  0.2630 -0.2873  0.2232
  263loPI   C1A 4199  17.031   1.027   9.882  0.2004 -0.2455  0.0508
  263loPI   C2A 4200  16.957   1.177   9.487 -0.0786  0.0685  0.1623
  263loPI   C3A 4201  17.113   1.192   9.018  0.2573 -0.1940  0.3292
  263loPI   C4A 4202  16.976   1.196   8.546 -0.1116 -0.0251  0.0576
  263loPI   C5A 4203  16.845   1.095   8.140 -0.0428 -0.2077  0.1855
  263loPI   C6A 4204  16.747   0.735   7.922 -0.0388 -0.2239 -0.2274
  263loPI   C1B 4205  16.532   1.089   9.715  0.1807 -0.1167 -0.1262
  263loPI   C2B 4206  16.549   1.126   9.232  0.3542  0.0495 -0.2857
  263loPI   C3B 4207  16.458   1.135   8.811  0.2328  0.1101  0.1412
  263loPI   C4B 4208  16.467   1.224   8.433 -0.0864  0.2092  0.0665
  264loPI    C1 4209   2.960   3.792  10.330  0.2158  0.0821 -0.0139
  264loPI    C2 4210   3.108   3.727  10.696 -0.1030 -0.1220  0.0824
  264loPI    C3 4211   2.813   3.993  10.643  0.1069  0.0846 -0.0663
  264loPI   PO4 4212   3.192   3.714  10.199 -0.0315  0.0652  0.0368
  264loPI   GL1 4213   3.443   3.591   9.841  0.0695  0.1182 -0.3409
  264loPI   GL2 4214   3.307   3.425   9.487 -0.0225 -0.3578 -0.0399
  264loPI   C1A 4215   3.680   3.734   9.521 -0.4454 -0.0159 -0.0644
  264loPI   C2A 4216   3.715   3.736   9.085 -0.1744  0.1538 -0.0831
  264loPI   C3A 4217   3.642   3.775   8.591  0.3081  0.1141  0.3421
  264loPI   C4A 4218   3.734   3.652   8.195 -0.0076  0.3461 -0.0126
  264loPI   C5A 4219   3.776   3.676   7.740 -0.0396  0.1548 -0.0247
  264loPI   C6A 4220   3.448   4.011   7.548 -0.2497 -0.0102 -0.2313
  264loPI   C1B 4221   3.209   3.479   9.067  0.1455 -0.0568 -0.0973
  264loPI   C2B 4222   3.175   3.682   8.689 -0.2142  0.0205  0.0671
  264loPI   C3B 4223   3.147   3.789   8.234 -0.0161 -0.0365 -0.0690
  264loPI   C4B 4224   2.889   3.746   7.779 -0.2379 -0.0849  0.0599
  265loPI    C1 4225  16.704   1.880  10.915 -0.1129  0.1598  0.0322
  265loPI    C2 4226  16.891   2.227  10.986  0.2317  0.0212 -0.1710
  265loPI    C3 4227  17.045   1.884  11.124 -0.1309 -0.0519  0.0677
  265loPI   PO4 4228  16.627   1.922  10.681 -0.1504 -0.0814  0.0891
  265loPI   GL1 4229  17.005   2.139  10.400 -0.3072  0.4027  0.2778
  265loPI   GL2 4230  16.783   2.260  10.229  0.2803  0.1590 -0.0231
  265loPI   C1A 4231  16.949   2.024   9.836 -0.0319  0.2419  0.1460
  265loPI   C2A 4232  17.041   2.103   9.393 -0.3768 -0.1562 -0.1036
  265loPI   C3A 4233  16.878   2.069   8.959  0.2171 -0.0967  0.2158
  265loPI   C4A 4234  16.920   2.268   8.562 -0.0617  0.1954 -0.2054
  265loPI   C5A 4235  16.980   2.521   8.249  0.0460 -0.1404 -0.0585
  265loPI   C6A 4236  16.758   2.760   8.057 -0.0168 -0.0011  0.1391
  265loPI   C1B 4237  16.624   2.471   9.836 -0.1347 -0.1873 -0.0466
  265loPI   C2B 4238  16.708   2.595   9.437 -0.0464 -0.2094 -0.1122
  265loPI   C3B 4239  16.674   2.535   8.994  0.5079 -0.1869 -0.1596
  265loPI   C4B 4240  16.642   2.685   8.607  0.2573 -0.0147  0.0282
  266loPI    C1 4241  14.276  14.817  10.632  0.1457  0.1273 -0.0350
  266loPI    C2 4242  14.355  14.551  10.919  0.1429  0.1981  0.0320
  266loPI    C3 4243  13.989  14.709  10.889  0.1047  0.0872 -0.0973
  266loPI   PO4 4244  14.347  14.630  10.426  0.1411 -0.0923 -0.1246
  266loPI   GL1 4245  14.287  14.366  10.035 -0.0004 -0.1236  0.0814
  266loPI   GL2 4246  14.593  14.168  10.075 -0.0096  0.2088  0.2977
  266loPI   C1A 4247  14.049  14.360   9.709  0.3249  0.2025 -0.0856
  266loPI   C2A 4248  14.001  14.315   9.271 -0.0056 -0.2036 -0.3254
  266loPI   C3A 4249  13.889  14.165   8.899 -0.0049  0.1386  0.0250
  266loPI   C4A 4250  13.822  14.087   8.555 -0.1762  0.0467 -0.1703
  266loPI   C5A 4251  13.810  14.072   8.168  0.2392 -0.1293 -0.1009
  266loPI   C6A 4252  13.630  13.821   7.812 -0.0166  0.1049  0.0188
  266loPI   C1B 4253  14.504  14.145   9.566 -0.1628  0.3556 -0.3060
  266loPI   C2B 4254  14.476  14.113   9.153  0.0026  0.0200  0.3502
  266loPI   C3B 4255  14.408  14.127   8.769  0.0477  0.0234  0.0355
  266loPI   C4B 4256  14.310  14.206   8.389  0.1628  0.0225  0.0022
  267loPI    C1 4257  12.852   5.975  11.121  0.0766  0.0263 -0.1390
  267loPI    C2 4258  12.698   5.633  11.259  0.0804  0.0560 -0.0611
  267loPI    C3 4259  13.084   5.718  11.320  0.0994  0.0360 -0.1533
  267loPI   PO4 4260  12.727   5.964  10.857 -0.0182 -0.1073  0.1180
  267loPI   GL1 4261  12.771   5.771  10.482  0.3234 -0.3504 -0.0894
  267loPI   GL2 4262  12.523   5.627  10.351 -0.0595  0.2496  0.1397
  267loPI   C1A 4263  12.802   5.959  10.094 -0.0069  0.0907 -0.2133
  267loPI   C2A 4264  12.861   6.021   9.627  0.0156  0.1052 -0.1766
  267loPI   C3A 4265  12.923   5.970   9.248 -0.1473 -0.0607 -0.0967
  267loPI   C4A 4266  12.839   5.901   8.843  0.0674 -0.2332  0.1425
  267loPI   C5A 4267  12.808   5.958   8.435  0.2397 -0.1223 -0.1309
  267loPI   C6A 4268  13.068   6.148   8.103  0.0748 -0.3310  0.2273
  267loPI   C1B 4269  12.596   5.480   9.877 -0.0643 -0.0004 -0.1692
  267loPI   C2B 4270  12.686   5.558   9.416 -0.1224 -0.2051  0.2035
  267loPI   C3B 4271  12.601   5.528   8.996 -0.0325 -0.0507 -0.0036
  267loPI   C4B 4272  12.648   5.496   8.561  0.4096  0.2598 -0.3847
  268loPI    C1 4273   4.383   7.033  11.329 -0.1118 -0.0625  0.0347
  268loPI    C2 4274   4.422   6.679  11.147  0.1525  0.0124 -0.0588
  268loPI    C3 4275   4.543   6.724  11.526 -0.0901 -0.0555  0.0282
  268loPI   PO4 4276   4.407   7.245  11.090  0.1502  0.2790 -0.0007
  268loPI   GL1 4277   4.440   7.413  10.683  0.2332  0.0067 -0.0348
  268loPI   GL2 4278   4.371   7.088  10.666 -0.3893  0.0198 -0.0835
  268loPI   C1A 4279   4.449   7.383  10.184 -0.3595  0.1345  0.1952
  268loPI   C2A 4280   4.499   7.329   9.808 -0.3709  0.0743  0.0392
  268loPI   C3A 4281   4.499   7.388   9.364  0.0089  0.0829 -0.1789
  268loPI   C4A 4282   4.451   7.367   9.008  0.1367 -0.0137 -0.4145
  268loPI   C5A 4283   4.488   7.439   8.569 -0.1863  0.0858  0.0447
  268loPI   C6A 4284   4.714   7.348   8.093  0.2019  0.0962  0.2235
  268loPI   C1B 4285   4.244   6.921  10.212 -0.3649  0.0650 -0.0079
  268loPI   C2B 4286   4.277   6.876   9.708 -0.0467  0.1991  0.2340
  268loPI   C3B 4287   4.281   6.964   9.211 -0.2930  0.0223  0.1629
  268loPI   C4B 4288   4.173   7.035   8.760 -0.2424 -0.0099 -0.1412
  269loPI    C1 4289   1.535   9.956  10.913 -0.2765  0.1078  0.1932
  269loPI    C2 4290   1.765  10.274  10.989 -0.2606  0.1097  0.1380
  269loPI    C3 4291   1.417  10.229  11.181 -0.1259  0.0086  0.3633
  269loPI   PO4 4292   1.536   9.924  10.634 -0.3906 -0.0502  0.0482
  269loPI   GL1 4293   1.607  10.149  10.299 -0.0795 -0.1255 -0.2422
  269loPI   GL2 4294   1.866   9.889  10.178  0.1703 -0.0300 -0.0649
  269loPI   C1A 4295   1.481  10.263  10.087 -0.0075  0.0520 -0.0015
  269loPI   C2A 4296   1.410  10.231   9.680  0.2420  0.1766  0.1685
  269loPI   C3A 4297   1.541  10.361   9.188 -0.2092 -0.1969 -0.0195
  269loPI   C4A 4298   1.513  10.365   8.704  0.1636  0.1014  0.1262
  269loPI   C5A 4299   1.518  10.251   8.329 -0.1131 -0.0084  0.4769
  269loPI   C6A 4300   1.448  10.011   7.971  0.2881  0.0768  0.3094
  269loPI   C1B 4301   1.764   9.844   9.740 -0.0660  0.3035  0.0678
  269loPI   C2B 4302   1.738   9.838   9.282 -0.0681  0.2446 -0.3387
  269loPI   C3B 4303   1.701   9.870   8.823 -0.0117  0.0340 -0.5346
  269loPI   C4B 4304   1.851   9.942   8.430  0.2524  0.0929  0.1131
  270loPI    C1 4305   8.849  13.533  11.095  0.0074  0.0777 -0.0496
  270loPI    C2 4306   9.180  13.757  11.115  0.1555 -0.1392 -0.0404
  270loPI    C3 4307   8.980  13.665  11.449 -0.0979  0.2572 -0.0760
  270loPI   PO4 4308   8.750  13.626  10.850 -0.2426 -0.1313  0.1921
  270loPI   GL1 4309   8.718  13.686  10.429  0.2966 -0.0886 -0.4844
  270loPI   GL2 4310   8.826  14.036  10.303 -0.2034  0.1069  0.0988
  270loPI   C1A 4311   8.555  13.541  10.129  0.0953  0.1857  0.1076
  270loPI   C2A 4312   8.562  13.392   9.665  0.0526 -0.1413  0.1160
  270loPI   C3A 4313   8.656  13.383   9.283  0.2001  0.1433  0.3845
  270loPI   C4A 4314   8.551  13.340   8.896  0.1904  0.2227  0.0118
  270loPI   C5A 4315   8.710  13.386   8.489  0.4356 -0.0106  0.3529
  270loPI   C6A 4316   9.080  13.532   8.341  0.2672 -0.0097  0.0395
  270loPI   C1B 4317   8.752  13.965   9.949  0.3520  0.0685  0.3600
  270loPI   C2B 4318   8.793  13.821   9.595  0.3611 -0.1205  0.0874
  270loPI   C3B 4319   8.787  13.860   9.150 -0.0402 -0.0959 -0.1836
  270loPI   C4B 4320   8.833  13.816   8.724  0.2210  0.0032 -0.2740
  271loPI    C1 4321   0.330   7.228  10.964  0.0036 -0.4422 -0.0518
  271loPI    C2 4322   0.380   7.198  11.360  0.0697 -0.3166 -0.0502
  271loPI    C3 4323   0.056   7.040  11.187 -0.0601 -0.1971  0.0810
  271loPI   PO4 4324   0.440   7.472  10.925  0.0794  0.0337  0.3603
  271loPI   GL1 4325   0.523   7.643  10.510 -0.1407 -0.1630 -0.2349
  271loPI   GL2 4326   0.522   7.967  10.498 -0.0820 -0.1349 -0.1599
  271loPI   C1A 4327   0.648   7.577  10.046 -0.3050  0.4789 -0.0749
  271loPI   C2A 4328   0.590   7.619   9.551 -0.2492  0.2209 -0.2359
  271loPI   C3A 4329   0.506   7.690   9.188 -0.0346 -0.0703 -0.0125
  271loPI   C4A 4330   0.497   7.615   8.736 -0.1495 -0.1426 -0.0974
  271loPI   C5A 4331   0.624   7.637   8.354 -0.1244 -0.0793 -0.2012
  271loPI   C6A 4332   0.706   7.586   7.926  0.2295 -0.0349 -0.2266
  271loPI   C1B 4333   0.390   8.013  10.066 -0.0396 -0.0901  0.0237
  271loPI   C2B 4334   0.264   8.049   9.578  0.0834  0.2628  0.0034
  271loPI   C3B 4335   0.204   8.079   9.182 -0.2396 -0.3159  0.0160
  271loPI   C4B 4336   0.246   8.053   8.825  0.0291  0.1915 -0.0920
  272loPI    C1 4337   8.108   9.096  10.681 -0.0807 -0.0094 -0.1131
  272loPI    C2 4338   8.101   9.477  10.802 -0.1649 -0.0074 -0.1240
  272loPI    C3 4339   7.931   9.193  11.027  0.0469 -0.0628 -0.0320
  272loPI   PO4 4340   8.279   9.059  10.620 -0.2428 -0.3352  0.0703
  272loPI   GL1 4341   8.371   8.942  10.253 -0.1064 -0.2971 -0.0863
  272loPI   GL2 4342   8.451   8.581  10.225 -0.0410  0.2178 -0.2601
  272loPI   C1A 4343   8.353   8.834   9.811  0.3123  0.1380 -0.1204
  272loPI   C2A 4344   8.403   8.881   9.336 -0.1242 -0.3769 -0.2713
  272loPI   C3A 4345   8.302   9.030   8.895  0.1168  0.0830  0.1168
  272loPI   C4A 4346   8.162   9.096   8.500 -0.1061  0.0364 -0.1151
  272loPI   C5A 4347   8.091   8.651   8.244  0.1032  0.0363 -0.0019
  272loPI   C6A 4348   7.717   8.490   8.081  0.0302  0.0563 -0.1533
  272loPI   C1B 4349   8.574   8.398   9.848  0.2088 -0.2686  0.1103
  272loPI   C2B 4350   8.607   8.426   9.411 -0.2672 -0.0236  0.0853
  272loPI   C3B 4351   8.522   8.424   8.949 -0.1719 -0.0390 -0.0567
  272loPI   C4B 4352   8.403   8.615   8.680 -0.2488  0.0273  0.0055
  273loPI    C1 4353  14.956   4.714  10.650 -0.4045  0.0304  0.0397
  273loPI    C2 4354  15.056   4.862  11.008  0.0338  0.1099 -0.1092
  273loPI    C3 4355  15.211   4.515  10.886 -0.2186  0.0166 -0.1698
  273loPI   PO4 4356  14.994   4.957  10.491  0.2415 -0.1578 -0.0798
  273loPI   GL1 4357  15.087   5.273  10.320 -0.2936 -0.1630  0.1140
  273loPI   GL2 4358  15.042   5.568  10.141 -0.0381 -0.1878 -0.0082
  273loPI   C1A 4359  14.903   5.178   9.908 -0.1677 -0.0292 -0.1113
  273loPI   C2A 4360  14.936   5.228   9.424  0.2319  0.0667 -0.2421
  273loPI   C3A 4361  14.896   5.169   8.930  0.1793  0.2301  0.0114
  273loPI   C4A 4362  14.857   5.155   8.541 -0.0975  0.0401  0.1135
  273loPI   C5A 4363  14.809   5.228   8.135 -0.0879 -0.2251  0.1146
  273loPI   C6A 4364  14.677   5.461   7.904 -0.2418  0.0675 -0.3046
  273loPI   C1B 4365  15.153   5.636   9.660 -0.0870  0.2072  0.2132
  273loPI   C2B 4366  15.125   5.690   9.191  0.1800  0.3660 -0.0531
  273loPI   C3B 4367  15.144   5.625   8.734 -0.0608  0.0230 -0.2781
  273loPI   C4B 4368  15.214   5.734   8.313  0.0711 -0.1833 -0.1801
  274loPI    C1 4369   3.684   9.089  11.196  0.0435 -0.0012  0.0031
  274loPI    C2 4370   3.489   9.015  11.537  0.0015  0.5928  0.1178
  274loPI    C3 4371   3.882   9.089  11.544  0.1257  0.0004 -0.0435
  274loPI   PO4 4372   3.660   8.923  11.023 -0.2731  0.0670  0.0512
  274loPI   GL1 4373   3.407   8.775  10.809  0.1648 -0.3834 -0.0922
  274loPI   GL2 4374   3.500   8.985  10.502  0.1822  0.4240 -0.0561
  274loPI   C1A 4375   2.959   8.916  10.498  0.0453 -0.1683 -0.1329
  274loPI   C2A 4376   2.879   9.008  10.183 -0.0060 -0.1846 -0.1270
  274loPI   C3A 4377   2.858   9.090   9.694  0.1345 -0.3586  0.1160
  274loPI   C4A 4378   2.850   9.111   9.219  0.1457  0.1986  0.1628
  274loPI   C5A 4379   2.830   9.049   8.825 -0.3424 -0.0332 -0.2450
  274loPI   C6A 4380   2.715   9.157   8.422  0.0413  0.1209  0.0557
  274loPI   C1B 4381   3.395   9.065  10.124 -0.1571  0.1617  0.2194
  274loPI   C2B 4382   3.391   9.047   9.741  0.1402  0.0313  0.1175
  274loPI   C3B 4383   3.326   9.071   9.316  0.0974  0.0306 -0.0973
  274loPI   C4B 4384   3.345   9.135   8.893  0.2501  0.2548  0.0220
  275loPI    C1 4385  11.784   9.118  10.870  0.1800 -0.1180 -0.1009
  275loPI    C2 4386  11.800   8.900  11.205  0.0352  0.3613  0.2280
  275loPI    C3 4387  11.489   8.862  10.956  0.1635 -0.0268  0.1205
  275loPI   PO4 4388  12.000   9.125  10.791  0.1366 -0.0582  0.0636
  275loPI   GL1 4389  12.314   9.140  10.457  0.0168  0.0378 -0.0410
  275loPI   GL2 4390  12.583   9.106  10.604  0.0908  0.1716  0.1703
  275loPI   C1A 4391  12.384   9.139   9.952  0.0756 -0.1803  0.1447
  275loPI   C2A 4392  12.339   9.117   9.573  0.1388  0.1009  0.0170
  275loPI   C3A 4393  12.366   9.126   9.121  0.0131 -0.0024 -0.1362
  275loPI   C4A 4394  12.301   9.065   8.716  0.1857 -0.0135 -0.1368
  275loPI   C5A 4395  12.368   8.844   8.344  0.0791 -0.0921  0.2713
  275loPI   C6A 4396  12.544   8.494   8.187 -0.0216 -0.0025  0.0089
  275loPI   C1B 4397  12.815   9.121  10.247 -0.1666 -0.1486 -0.0646
  275loPI   C2B 4398  12.925   9.177   9.833 -0.0871  0.1206  0.2564
  275loPI   C3B 4399  12.823   9.151   9.395 -0.1003 -0.1500 -0.1570
  275loPI   C4B 4400  12.852   9.001   8.973  0.2083 -0.2310  0.2366
  276loPI    C1 4401  11.793   0.972  10.627 -0.0236 -0.1036 -0.1701
  276loPI    C2 4402  11.880   0.736  10.938  0.0283  0.0072 -0.1000
  276loPI    C3 4403  11.619   1.036  10.981  0.1667  0.1308 -0.1162
  276loPI   PO4 4404  11.724   0.842  10.466 -0.0543  0.2463  0.0075
  276loPI   GL1 4405  11.482   0.626  10.205 -0.1263 -0.2574 -0.0184
  276loPI   GL2 4406  11.257   0.520  10.042 -0.1333  0.1769 -0.1791
  276loPI   C1A 4407  11.481   0.873   9.756 -0.4232  0.1028  0.3696
  276loPI   C2A 4408  11.279   0.926   9.315 -0.0394  0.0196  0.1306
  276loPI   C3A 4409  11.345   0.868   8.817  0.0467 -0.0867  0.0336
  276loPI   C4A 4410  11.277   0.953   8.369 -0.1093 -0.1320  0.2329
  276loPI   C5A 4411  11.077   0.687   7.915  0.3009  0.3093 -0.3690
  276loPI   C6A 4412  11.048   0.786   7.550 -0.3125 -0.1811 -0.2562
  276loPI   C1B 4413  11.045   0.529   9.681  0.0991 -0.3064 -0.0648
  276loPI   C2B 4414  11.036   0.498   9.264 -0.0387  0.0397 -0.0530
  276loPI   C3B 4415  11.052   0.414   8.842  0.1505 -0.2956 -0.3461
  276loPI   C4B 4416  11.161   0.490   8.391  0.2407  0.2076 -0.1342
  277loPI    C1 4417   0.170  15.634  10.962  0.0862  0.0550 -0.0318
  277loPI    C2 4418   0.068  15.344  11.217  0.1024 -0.0612 -0.1561
  277loPI    C3 4419   0.296  15.649  11.341 -0.2828  0.1346  0.0919
  277loPI   PO4 4420  -0.006  15.750  10.857  0.1486 -0.0548  0.1978
  277loPI   GL1 4421  -0.129  15.779  10.408 -0.2657 -0.1016 -0.0403
  277loPI   GL2 4422  -0.344  15.523  10.400  0.0471 -0.2061 -0.0322
  277loPI   C1A 4423   0.310  16.073  10.239 -0.1441 -0.1650  0.1737
  277loPI   C2A 4424   0.313  16.132   9.758  0.0386 -0.0965 -0.0030
  277loPI   C3A 4425   0.338  16.260   9.362 -0.0991  0.0833  0.0873
  277loPI   C4A 4426   0.367  16.113   8.918  0.0134  0.0479 -0.2760
  277loPI   C5A 4427   0.387  16.199   8.483  0.0067  0.0453  0.1452
  277loPI   C6A 4428   0.184  16.399   8.170  0.3317 -0.1952  0.0699
  277loPI   C1B 4429  -0.394  15.666   9.988 -0.2386 -0.1094  0.0367
  277loPI   C2B 4430  -0.360  15.578   9.573 -0.0348 -0.2016 -0.0331
  277loPI   C3B 4431  -0.402  15.741   9.238 -0.1506  0.1864 -0.0958
  277loPI   C4B 4432  -0.378  15.660   8.829 -0.0028 -0.0733 -0.1037
  278loPI    C1 4433  17.305   8.298  10.496  0.0108  0.0208  0.0695
  278loPI    C2 4434  17.105   8.549  10.735  0.2616  0.0147  0.2896
  278loPI    C3 4435  17.485   8.627  10.636  0.2302 -0.0992  0.0741
  278loPI   PO4 4436  17.320   8.074  10.603  0.1224 -0.0260 -0.1401
  278loPI   GL1 4437  17.575   7.806  10.391 -0.3203 -0.1367 -0.3968
  278loPI   GL2 4438  17.675   7.465  10.373  0.0067 -0.0816  0.0733
  278loPI   C1A 4439  17.443   7.928  10.005  0.1456  0.0280  0.0950
  278loPI   C2A 4440  17.379   8.011   9.605  0.2172  0.1416 -0.1719
  278loPI   C3A 4441  17.346   8.029   9.115  0.2456  0.1654  0.1466
  278loPI   C4A 4442  17.249   8.016   8.737 -0.2052 -0.2023 -0.0368
  278loPI   C5A 4443  17.447   7.952   8.365 -0.2959  0.1235  0.1204
  278loPI   C6A 4444  17.600   7.569   8.203 -0.0049 -0.0550 -0.2381
  278loPI   C1B 4445  17.760   7.494   9.948  0.0351  0.1367  0.0050
  278loPI   C2B 4446  17.693   7.552   9.573  0.0965 -0.1138  0.2818
  278loPI   C3B 4447  17.581   7.539   9.174  0.1445 -0.0259  0.0075
  278loPI   C4B 4448  17.514   7.608   8.748 -0.0915 -0.1871  0.3205
  279loPI    C1 4449  11.949  10.609  11.300  0.3008  0.1896 -0.2158
  279loPI    C2 4450  12.076  10.305  11.527  0.0305  0.2833  0.0677
  279loPI    C3 4451  12.197  10.678  11.606 -0.0956  0.3212  0.0843
  279loPI   PO4 4452  11.906  10.438  11.071 -0.2232 -0.1313  0.0180
  279loPI   GL1 4453  12.229  10.376  10.671  0.0891 -0.2395  0.1540
  279loPI   GL2 4454  12.467  10.182  10.658 -0.0302  0.1431 -0.0311
  279loPI   C1A 4455  12.106  10.527  10.228  0.2106  0.1945 -0.0225
  279loPI   C2A 4456  12.092  10.485   9.753  0.2675 -0.3068 -0.0167
  279loPI   C3A 4457  12.089  10.364   9.388 -0.1509  0.1093  0.2071
  279loPI   C4A 4458  12.013  10.417   8.955 -0.1426  0.1359 -0.0058
  279loPI   C5A 4459  12.022  10.438   8.507 -0.2495 -0.0642 -0.2066
  279loPI   C6A 4460  11.786  10.429   8.111 -0.0074 -0.1821 -0.0138
  279loPI   C1B 4461  12.442  10.089  10.261  0.0098 -0.1539 -0.0264
  279loPI   C2B 4462  12.338  10.052   9.842 -0.0054 -0.0085 -0.0681
  279loPI   C3B 4463  12.311   9.944   9.378 -0.2487  0.0717 -0.0159
  279loPI   C4B 4464  12.324   9.987   8.913  0.0007  0.1438 -0.0863
  280loPI    C1 4465   4.838  13.247  11.319 -0.1593 -0.0034 -0.0299
  280loPI    C2 4466   5.222  13.151  11.374 -0.1512  0.1153  0.1280
  280loPI    C3 4467   4.940  12.985  11.603 -0.2284 -0.2120 -0.1952
  280loPI   PO4 4468   4.829  13.305  11.011  0.0377  0.2372 -0.1128
  280loPI   GL1 4469   4.882  13.340  10.580  0.2439  0.1502 -0.0142
  280loPI   GL2 4470   5.051  13.084  10.301  0.1586  0.1754  0.2526
  280loPI   C1A 4471   4.697  13.437  10.223  0.3704  0.0657  0.0315
  280loPI   C2A 4472   4.642  13.623   9.797  0.2699 -0.1307 -0.0245
  280loPI   C3A 4473   4.641  13.601   9.368  0.2426  0.4802  0.1362
  280loPI   C4A 4474   4.590  13.624   8.948 -0.3267 -0.1987 -0.2052
  280loPI   C5A 4475   4.424  13.743   8.562  0.0037 -0.3510 -0.4402
  280loPI   C6A 4476   4.675  13.812   8.184  0.0346  0.0276  0.0595
  280loPI   C1B 4477   4.932  13.144   9.911 -0.0299  0.1623 -0.1112
  280loPI   C2B 4478   4.950  13.191   9.484 -0.1784 -0.0694  0.2224
  280loPI   C3B 4479   4.849  13.217   9.095 -0.6669 -0.1891 -0.0893
  280loPI   C4B 4480   4.788  13.157   8.770 -0.1977  0.1081  0.2164
  281loPI    C1 4481   8.134  17.339  10.820  0.0166  0.1712  0.0208
  281loPI    C2 4482   8.520  17.249  10.872 -0.0115  0.1286  0.1611
  281loPI    C3 4483   8.261  17.196  11.171 -0.1433  0.0677  0.0372
  281loPI   PO4 4484   8.007  17.242  10.597 -0.0376 -0.2762  0.1299
  281loPI   GL1 4485   7.935  17.212  10.200  0.2136 -0.0852  0.0622
  281loPI   GL2 4486   8.029  17.463  10.089 -0.2343  0.1000 -0.2761
  281loPI   C1A 4487   7.845  16.949   9.808 -0.1802  0.0805  0.4015
  281loPI   C2A 4488   7.894  16.999   9.385 -0.0073  0.2461  0.1818
  281loPI   C3A 4489   7.814  17.003   8.953  0.1268  0.3901 -0.1468
  281loPI   C4A 4490   7.897  17.039   8.428  0.0788  0.2786 -0.1514
  281loPI   C5A 4491   8.004  16.967   7.931 -0.0596 -0.0957  0.0853
  281loPI   C6A 4492   8.134  17.039   7.454  0.3633 -0.0687  0.0125
  281loPI   C1B 4493   8.082  17.368   9.664  0.1702  0.0494  0.0369
  281loPI   C2B 4494   8.062  17.505   9.158 -0.0331 -0.2678 -0.2153
  281loPI   C3B 4495   8.035  17.524   8.749 -0.3991  0.2252 -0.0431
  281loPI   C4B 4496   8.105  17.429   8.330 -0.2452  0.4203  0.0174
  282loPI    C1 4497   5.624   1.961  10.813  0.0566  0.0571  0.0111
  282loPI    C2 4498   5.591   1.709  11.122  0.2459  0.2147  0.1620
  282loPI    C3 4499   5.340   2.019  11.089 -0.0041 -0.0052 -0.0380
  282loPI   PO4 4500   5.609   1.941  10.600  0.1353  0.0940 -0.0959
  282loPI   GL1 4501   5.770   2.056  10.183 -0.1463  0.2476 -0.2324
  282loPI   GL2 4502   5.813   1.808  10.124 -0.3515  0.0343 -0.0738
  282loPI   C1A 4503   5.705   2.250   9.808  0.1891  0.1347  0.0553
  282loPI   C2A 4504   5.608   2.280   9.452  0.1249 -0.2308  0.0159
  282loPI   C3A 4505   5.597   2.412   9.045 -0.0177 -0.0890 -0.1175
  282loPI   C4A 4506   5.528   2.336   8.635 -0.0236 -0.1358  0.2088
  282loPI   C5A 4507   5.362   2.184   8.282  0.0301 -0.0773 -0.1180
  282loPI   C6A 4508   5.309   1.769   8.123 -0.0400  0.2064  0.0542
  282loPI   C1B 4509   5.868   1.827   9.644  0.0360  0.4766 -0.1290
  282loPI   C2B 4510   5.919   2.051   9.192 -0.0936 -0.2670  0.1773
  282loPI   C3B 4511   5.835   1.910   8.850 -0.0788  0.2086 -0.1442
  282loPI   C4B 4512   5.744   1.858   8.411  0.3295 -0.2026  0.1530
  283loPI    C1 4513   7.333  12.938  11.254 -0.0214  0.1544 -0.1700
  283loPI    C2 4514   7.006  13.152  11.341 -0.0933  0.0105 -0.0817
  283loPI    C3 4515   7.301  13.121  11.609 -0.0919 -0.0174 -0.0865
  283loPI   PO4 4516   7.302  12.788  11.069  0.0425 -0.1353 -0.0401
  283loPI   GL1 4517   7.164  12.708  10.690 -0.2065  0.1751  0.1585
  283loPI   GL2 4518   7.505  12.828  10.564 -0.0430  0.1199 -0.1614
  283loPI   C1A 4519   7.124  12.507  10.275 -0.2288 -0.1334  0.1366
  283loPI   C2A 4520   7.089  12.420   9.919  0.2841  0.1970 -0.1476
  283loPI   C3A 4521   7.110  12.425   9.438  0.3095  0.1334  0.3993
  283loPI   C4A 4522   7.101  12.442   8.916 -0.3332 -0.1710  0.2845
  283loPI   C5A 4523   7.042  12.235   8.526 -0.0451 -0.2061  0.0472
  283loPI   C6A 4524   6.950  11.890   8.392 -0.0603 -0.2788  0.1453
  283loPI   C1B 4525   7.308  12.919  10.147 -0.0622 -0.0802 -0.1197
  283loPI   C2B 4526   7.299  12.845   9.725 -0.1092 -0.1605  0.0621
  283loPI   C3B 4527   7.285  12.878   9.277  0.1532  0.3574 -0.1390
  283loPI   C4B 4528   7.246  12.876   8.778 -0.0297  0.0002 -0.3816
  284loPI    C1 4529  14.722   5.546  10.723 -0.0319 -0.0656  0.0729
  284loPI    C2 4530  15.056   5.333  10.779  0.1722  0.2415  0.0510
  284loPI    C3 4531  14.716   5.221  10.957  0.2429 -0.1701 -0.0603
  284loPI   PO4 4532  14.709   5.554  10.530  0.0376  0.0698 -0.1224
  284loPI   GL1 4533  14.489   5.438  10.165 -0.0199  0.0532 -0.0645
  284loPI   GL2 4534  14.394   5.190  10.032 -0.0150 -0.2247 -0.0909
  284loPI   C1A 4535  14.625   5.645   9.816 -0.3169 -0.0433 -0.1024
  284loPI   C2A 4536  14.605   5.640   9.324  0.1211  0.0765 -0.1416
  284loPI   C3A 4537  14.680   5.682   8.898 -0.0447  0.1550 -0.0467
  284loPI   C4A 4538  14.724   5.654   8.407 -0.1069 -0.2308  0.2204
  284loPI   C5A 4539  14.827   5.925   8.061 -0.2695  0.2331  0.0291
  284loPI   C6A 4540  14.730   6.248   7.736  0.2523  0.0071  0.0658
  284loPI   C1B 4541  14.443   5.167   9.642  0.2215  0.2142  0.1713
  284loPI   C2B 4542  14.413   5.127   9.132  0.0451 -0.6243 -0.0331
  284loPI   C3B 4543  14.392   5.219   8.670  0.0090  0.2991  0.0903
  284loPI   C4B 4544  14.300   5.329   8.280 -0.0520  0.1352 -0.0576
  285loPI    C1 4545   7.224   4.441  11.048  0.1753  0.0803  0.1882
  285loPI    C2 4546   7.172   4.079  11.212 -0.0717  0.0267 -0.0032
  285loPI    C3 4547   7.168   4.406  11.443 -0.5738 -0.0347  0.0863
  285loPI   PO4 4548   7.171   4.406  10.799  0.0334  0.0399 -0.0329
  285loPI   GL1 4549   7.231   4.490  10.427  0.5962 -0.1544  0.0851
  285loPI   GL2 4550   7.190   4.880  10.268  0.0108 -0.1491  0.0141
  285loPI   C1A 4551   7.397   4.369  10.135 -0.1297 -0.2671 -0.1848
  285loPI   C2A 4552   7.524   4.317   9.740  0.1569  0.0877  0.2245
  285loPI   C3A 4553   7.532   4.314   9.387  0.0738 -0.2904 -0.0005
  285loPI   C4A 4554   7.483   4.319   8.940 -0.3238  0.5180 -0.0114
  285loPI   C5A 4555   7.535   4.352   8.454 -0.0827  0.0477 -0.2671
  285loPI   C6A 4556   7.711   4.369   8.126  0.1293 -0.2278 -0.2937
  285loPI   C1B 4557   7.228   4.824   9.863  0.0083 -0.0851 -0.3087
  285loPI   C2B 4558   7.179   4.867   9.391 -0.0053 -0.1017 -0.1426
  285loPI   C3B 4559   7.195   4.771   8.942  0.2349  0.0220 -0.1466
  285loPI   C4B 4560   7.216   4.730   8.538 -0.1070  0.0097  0.2417
  286loPI    C1 4561  12.907  14.841  10.431  0.0643  0.0841  0.0155
  286loPI    C2 4562  12.789  14.900  10.809  0.0709  0.0724  0.0193
  286loPI    C3 4563  13.153  15.018  10.692  0.0794  0.0509  0.0238
  286loPI   PO4 4564  12.796  14.611  10.372 -0.1545 -0.0322  0.1253
  286loPI   GL1 4565  12.542  14.550  10.086 -0.2475 -0.2117  0.5136
  286loPI   GL2 4566  12.289  14.613   9.983  0.0509 -0.0342 -0.1877
  286loPI   C1A 4567  12.629  14.378   9.661 -0.0369  0.3522 -0.1692
  286loPI   C2A 4568  12.577  14.377   9.156  0.0497  0.0657 -0.1062
  286loPI   C3A 4569  12.592  14.473   8.717  0.1893  0.1161 -0.2572
  286loPI   C4A 4570  12.559  14.481   8.273  0.1618 -0.0734  0.0924
  286loPI   C5A 4571  12.402  14.397   7.872  0.2036  0.1043  0.0566
  286loPI   C6A 4572  12.050  14.313   7.822  0.2775  0.1810  0.1211
  286loPI   C1B 4573  12.211  14.449   9.488  0.0470 -0.0084  0.0578
  286loPI   C2B 4574  12.087  14.478   9.064 -0.0621  0.2036  0.0072
  286loPI   C3B 4575  12.125  14.391   8.640  0.0200 -0.1270  0.1516
  286loPI   C4B 4576  12.001  14.546   8.249  0.2489 -0.0196 -0.0674
  287loPI    C1 4577  11.511   6.511  11.003  0.0575  0.1920 -0.1473
  287loPI    C2 4578  11.856   6.461  11.201 -0.0384 -0.0151 -0.0293
  287loPI    C3 4579  11.555   6.664  11.370  0.0169  0.1483 -0.1242
  287loPI   PO4 4580  11.495   6.474  10.810 -0.4086  0.0908 -0.0938
  287loPI   GL1 4581  11.526   6.626  10.404  0.0324 -0.3049  0.0167
  287loPI   GL2 4582  11.262   6.801  10.273  0.0331  0.0524 -0.0775
  287loPI   C1A 4583  11.769   6.775  10.020 -0.2564  0.1779  0.1574
  287loPI   C2A 4584  11.835   6.798   9.613  0.2127 -0.2388  0.0012
  287loPI   C3A 4585  11.735   6.780   9.128  0.2472 -0.1599  0.1397
  287loPI   C4A 4586  11.698   6.782   8.612 -0.2412 -0.4608 -0.1979
  287loPI   C5A 4587  11.568   6.682   8.243  0.0414  0.1359  0.0905
  287loPI   C6A 4588  11.159   6.493   8.220  0.3373  0.2491  0.0839
  287loPI   C1B 4589  11.207   6.725   9.933  0.0196  0.1869  0.0437
  287loPI   C2B 4590  11.179   6.765   9.489  0.0622 -0.0057 -0.0684
  287loPI   C3B 4591  11.255   6.791   9.132 -0.1563  0.0986  0.2625
  287loPI   C4B 4592  11.249   6.747   8.698 -0.0181  0.0525 -0.0203
  288loPI    C1 4593   3.288  13.614  11.559  0.0588  0.0654  0.0957
  288loPI    C2 4594   3.675  13.513  11.571  0.0602  0.0557 -0.0172
  288loPI    C3 4595   3.419  13.359  11.837  0.0914 -0.1227 -0.0897
  288loPI   PO4 4596   3.274  13.608  11.241  0.0860  0.2226 -0.3167
  288loPI   GL1 4597   2.982  13.715  10.894  0.3577 -0.1375 -0.1809
  288loPI   GL2 4598   3.286  13.912  10.896  0.0947 -0.4016  0.1117
  288loPI   C1A 4599   3.044  13.580  10.442  0.2720 -0.1097 -0.1819
  288loPI   C2A 4600   3.092  13.413  10.061  0.0986 -0.2838  0.0356
  288loPI   C3A 4601   3.180  13.477   9.685 -0.0930 -0.3702 -0.3243
  288loPI   C4A 4602   3.017  13.557   9.286 -0.2220 -0.0070 -0.0121
  288loPI   C5A 4603   3.009  13.615   8.882 -0.3840 -0.2583 -0.0332
  288loPI   C6A 4604   2.938  13.578   8.476  0.0526 -0.1709 -0.4047
  288loPI   C1B 4605   3.304  13.961  10.408  0.0430 -0.2894  0.1668
  288loPI   C2B 4606   3.355  13.888   9.948  0.0506  0.0657 -0.1423
  288loPI   C3B 4607   3.288  14.051   9.519 -0.3269 -0.0706 -0.0567
  288loPI   C4B 4608   3.313  13.976   9.057 -0.1041 -0.1344  0.0577
  289loPI    C1 4609   6.716  12.792  11.247 -0.0395  0.2313  0.0456
  289loPI    C2 4610   6.330  12.850  11.332 -0.1094 -0.1590  0.0156
  289loPI    C3 4611   6.575  12.701  11.610  0.0737  0.2946  0.1058
  289loPI   PO4 4612   6.700  12.716  11.001 -0.0702 -0.1218  0.0697
  289loPI   GL1 4613   6.717  12.907  10.540 -0.1952  0.2869 -0.2552
  289loPI   GL2 4614   6.687  12.579  10.490  0.4014 -0.0424  0.2960
  289loPI   C1A 4615   6.829  12.934  10.079  0.3043  0.3284 -0.2873
  289loPI   C2A 4616   6.788  12.956   9.586 -0.0982 -0.0130 -0.1128
  289loPI   C3A 4617   6.769  12.808   9.153 -0.0715  0.2558 -0.1487
  289loPI   C4A 4618   6.673  12.911   8.646  0.1582 -0.0347 -0.1310
  289loPI   C5A 4619   6.929  12.756   8.371 -0.2099 -0.1199 -0.4050
  289loPI   C6A 4620   6.917  12.530   7.983  0.3463  0.1890  0.1089
  289loPI   C1B 4621   6.540  12.437  10.090 -0.0446  0.2221 -0.2447
  289loPI   C2B 4622   6.645  12.423   9.702 -0.1381 -0.2612 -0.1251
  289loPI   C3B 4623   6.573  12.374   9.258 -0.2478 -0.0466  0.1889
  289loPI   C4B 4624   6.578  12.467   8.804  0.0052  0.4373  0.0402
  290loPI    C1 4625  10.584   6.802  11.063 -0.3617  0.0981 -0.1870
  290loPI    C2 4626  10.565   6.548  10.754 -0.1470 -0.0788 -0.0575
  290loPI    C3 4627  10.352   6.477  11.085 -0.1155 -0.0703 -0.0355
  290loPI   PO4 4628  10.674   7.017  10.918 -0.2342 -0.0037 -0.1115
  290loPI   GL1 4629  10.794   6.961  10.546  0.1640  0.2488  0.2771
  290loPI   GL2 4630  10.956   7.247  10.509 -0.3124 -0.1817  0.3091
  290loPI   C1A 4631  10.764   6.769  10.185 -0.2850  0.2572 -0.1737
  290loPI   C2A 4632  10.786   6.808   9.730  0.2519 -0.1432 -0.2748
  290loPI   C3A 4633  10.679   6.806   9.364  0.3387 -0.0010  0.0699
  290loPI   C4A 4634  10.716   6.809   8.944 -0.0121  0.0812 -0.0365
  290loPI   C5A 4635  10.711   6.786   8.445 -0.1580 -0.1512 -0.0598
  290loPI   C6A 4636  10.868   6.866   8.018  0.1464  0.2629 -0.0886
  290loPI   C1B 4637  10.954   7.168  10.073 -0.1580 -0.1179  0.2056
  290loPI   C2B 4638  10.991   7.221   9.617  0.3538  0.1249 -0.1596
  290loPI   C3B 4639  10.920   7.265   9.181 -0.0545 -0.1285  0.1705
  290loPI   C4B 4640  10.948   7.169   8.682  0.1092 -0.0980 -0.1783
  291loPI    C1 4641  12.631  16.068  10.172 -0.1391  0.0552  0.2511
  291loPI    C2 4642  12.552  15.776  10.434  0.0458 -0.0385  0.2045
  291loPI    C3 4643  12.918  15.937  10.418  0.0457 -0.0571 -0.0188
  291loPI   PO4 4644  12.528  15.928   9.951 -0.0809 -0.0638  0.1508
  291loPI   GL1 4645  12.174  16.023   9.643 -0.0964 -0.0429 -0.0624
  291loPI   GL2 4646  12.328  15.655   9.610 -0.1279 -0.3240  0.1703
  291loPI   C1A 4647  12.011  16.240   9.267 -0.0276 -0.0617 -0.2763
  291loPI   C2A 4648  11.968  16.239   8.846  0.0404  0.3542 -0.1777
  291loPI   C3A 4649  12.045  16.313   8.436  0.1777  0.2544  0.1100
  291loPI   C4A 4650  11.947  16.374   8.044 -0.0324  0.0625 -0.1591
  291loPI   C5A 4651  11.875  16.127   7.648  0.1104 -0.4307  0.1324
  291loPI   C6A 4652  11.998  16.036   7.260 -0.3395  0.1526 -0.1632
  291loPI   C1B 4653  12.172  15.755   9.133  0.3180 -0.1974  0.1987
  291loPI   C2B 4654  12.200  15.804   8.720 -0.1434  0.0931  0.2094
  291loPI   C3B 4655  12.291  15.951   8.309  0.1961  0.2061  0.2135
  291loPI   C4B 4656  12.263  16.001   7.883 -0.3289 -0.2328  0.0407
  292loPI    C1 4657  12.869   4.123  10.704  0.2228 -0.0629 -0.1741
  292loPI    C2 4658  12.863   3.815  10.960  0.0128  0.0195 -0.0785
  292loPI    C3 4659  12.884   4.190  11.098  0.1567  0.0539 -0.1913
  292loPI   PO4 4660  12.883   4.034  10.515  0.0557  0.0524 -0.1895
  292loPI   GL1 4661  12.854   4.296  10.232  0.1432 -0.4960 -0.1161
  292loPI   GL2 4662  12.583   4.535  10.075 -0.0657  0.3126  0.0420
  292loPI   C1A 4663  12.918   4.248   9.782  0.0037 -0.1352 -0.5137
  292loPI   C2A 4664  12.936   4.237   9.422  0.1627 -0.1295 -0.0058
  292loPI   C3A 4665  12.898   4.138   9.029 -0.1425 -0.1810  0.2178
  292loPI   C4A 4666  12.893   4.158   8.665 -0.0968 -0.3435 -0.0762
  292loPI   C5A 4667  13.148   4.171   8.299  0.1211 -0.0773 -0.0709
  292loPI   C6A 4668  13.029   4.174   7.814 -0.0822  0.1486 -0.0222
  292loPI   C1B 4669  12.686   4.633   9.589  0.1138  0.0969  0.1275
  292loPI   C2B 4670  12.673   4.554   9.122  0.0880  0.2854  0.2141
  292loPI   C3B 4671  12.688   4.586   8.737 -0.1690  0.0083  0.0806
  292loPI   C4B 4672  12.586   4.584   8.351 -0.0122  0.2028  0.1242
  293loPI    C1 4673   8.322  13.328  11.160  0.2370  0.1245 -0.0387
  293loPI    C2 4674   8.582  13.075  11.328 -0.1010 -0.1812  0.0342
  293loPI    C3 4675   8.535  13.442  11.479 -0.0748 -0.2971  0.3331
  293loPI   PO4 4676   8.157  13.209  11.041  0.0515  0.0366  0.0926
  293loPI   GL1 4677   8.013  13.286  10.610 -0.1051  0.0538  0.2215
  293loPI   GL2 4678   8.371  13.357  10.575  0.1607 -0.1699  0.0602
  293loPI   C1A 4679   7.852  12.959  10.265 -0.2779 -0.2603  0.5728
  293loPI   C2A 4680   7.800  12.974   9.834 -0.0098 -0.2088  0.3568
  293loPI   C3A 4681   7.832  12.992   9.360 -0.2220 -0.2139 -0.0134
  293loPI   C4A 4682   7.769  12.935   8.994 -0.0603  0.1842  0.1381
  293loPI   C5A 4683   7.955  12.904   8.605  0.0923  0.1640  0.0989
  293loPI   C6A 4684   8.345  13.059   8.543 -0.1383 -0.0367  0.2181
  293loPI   C1B 4685   8.374  13.050  10.220  0.0626  0.1686 -0.0234
  293loPI   C2B 4686   8.276  12.953   9.846 -0.0826 -0.0249 -0.0887
  293loPI   C3B 4687   8.350  12.976   9.417 -0.1471  0.0442 -0.0029
  293loPI   C4B 4688   8.304  12.907   9.034 -0.2859  0.3407  0.0730
  294loPI    C1 4689  12.484  11.758  10.788 -0.1486 -0.0147 -0.1792
  294loPI    C2 4690  12.269  12.095  10.769  0.0249  0.1191  0.1485
  294loPI    C3 4691  12.184  11.819  11.046 -0.1019 -0.1003 -0.1039
  294loPI   PO4 4692  12.458  11.587  10.465  0.1530 -0.2766 -0.2047
  294loPI   GL1 4693  12.490  11.514  10.016 -0.2004  0.1821 -0.0729
  294loPI   GL2 4694  12.303  11.771  10.040  0.0334 -0.2337 -0.0847
  294loPI   C1A 4695  12.576  11.353   9.740 -0.1455 -0.0136 -0.0670
  294loPI   C2A 4696  12.540  11.385   9.254 -0.2472  0.1816 -0.1619
  294loPI   C3A 4697  12.523  11.228   8.818 -0.0177 -0.1563 -0.1439
  294loPI   C4A 4698  12.408  11.409   8.365 -0.0429 -0.0048 -0.2869
  294loPI   C5A 4699  12.156  11.351   7.913 -0.4148 -0.2875  0.0365
  294loPI   C6A 4700  12.113  11.047   7.627 -0.0077  0.1203  0.0179
  294loPI   C1B 4701  12.212  11.787   9.605  0.1382  0.0394 -0.1810
  294loPI   C2B 4702  12.192  11.730   9.160 -0.0535  0.0871  0.2981
  294loPI   C3B 4703  12.229  11.660   8.772 -0.2671 -0.1506 -0.0114
  294loPI   C4B 4704  12.136  11.797   8.259 -0.1459  0.0144 -0.1490
  295loPI    C1 4705  18.062   4.455  10.854 -0.0562  0.0237  0.0835
  295loPI    C2 4706  18.169   4.591  11.215 -0.1223 -0.0210  0.1202
  295loPI    C3 4707  18.373   4.291  11.045 -0.0355  0.0596  0.0808
  295loPI   PO4 4708  18.029   4.682  10.670 -0.0548  0.0150  0.0500
  295loPI   GL1 4709  17.923   4.925  10.272 -0.2305  0.0348  0.0712
  295loPI   GL2 4710  17.547   4.712  10.425 -0.2742 -0.1525  0.1654
  295loPI   C1A 4711  17.815   4.928   9.862 -0.1648 -0.1754  0.0866
  295loPI   C2A 4712  17.849   4.862   9.437 -0.1083  0.1626 -0.0751
  295loPI   C3A 4713  17.800   4.997   9.016  0.0896  0.3026 -0.1229
  295loPI   C4A 4714  17.790   4.963   8.576  0.1378  0.0188 -0.0473
  295loPI   C5A 4715  17.948   4.906   8.111  0.0220 -0.0612  0.0842
  295loPI   C6A 4716  18.175   5.176   7.846  0.1699  0.0842 -0.1623
  295loPI   C1B 4717  17.383   4.742  10.013  0.0672  0.1234  0.3175
  295loPI   C2B 4718  17.379   4.869   9.589 -0.0340 -0.0148 -0.0577
  295loPI   C3B 4719  17.360   4.922   9.135 -0.1971 -0.1465  0.1322
  295loPI   C4B 4720  17.231   4.933   8.663 -0.3659 -0.1127  0.0439
  296loPI    C1 4721  16.709  15.295  10.988  0.1438 -0.2410  0.0545
  296loPI    C2 4722  17.010  15.371  11.240 -0.0004 -0.0920  0.1848
  296loPI    C3 4723  16.672  15.207  11.377 -0.0370 -0.1148  0.0672
  296loPI   PO4 4724  16.900  15.262  10.714 -0.1075  0.2801  0.1531
  296loPI   GL1 4725  17.276  15.279  10.452 -0.2335 -0.0932  0.1715
  296loPI   GL2 4726  17.330  15.071  10.330 -0.0098 -0.0696  0.0468
  296loPI   C1A 4727  16.988  15.287  10.021 -0.1134  0.1934  0.0671
  296loPI   C2A 4728  17.037  15.160   9.677 -0.1223  0.1699  0.2452
  296loPI   C3A 4729  16.980  15.199   9.189  0.1242  0.1893 -0.2963
  296loPI   C4A 4730  16.899  15.282   8.712 -0.1709 -0.1412 -0.2146
  296loPI   C5A 4731  17.086  15.267   8.265 -0.0188  0.0916  0.2457
  296loPI   C6A 4732  16.951  15.582   8.074  0.2124  0.1188  0.2431
  296loPI   C1B 4733  17.495  15.164   9.830 -0.2268 -0.0276 -0.2372
  296loPI   C2B 4734  17.523  15.222   9.330  0.2000 -0.3038 -0.1381
  296loPI   C3B 4735  17.475  15.156   8.902  0.0881 -0.1344 -0.2181
  296loPI   C4B 4736  17.546  15.170   8.430 -0.0133  0.0236 -0.1115
  297loPI    C1 4737   8.177  16.343  10.667 -0.0790  0.1280 -0.1010
  297loPI    C2 4738   7.803  16.219  10.596  0.0635 -0.2344 -0.2473
  297loPI    C3 4739   7.877  16.475  10.895 -0.2244 -0.6266  0.1720
  297loPI   PO4 4740   8.255  16.331  10.414 -0.0299 -0.1150 -0.0677
  297loPI   GL1 4741   8.166  16.565  10.019  0.1613 -0.0391  0.0678
  297loPI   GL2 4742   8.579  16.542  10.048  0.0279 -0.1796  0.1088
  297loPI   C1A 4743   8.128  16.507   9.579  0.3711 -0.1708 -0.2550
  297loPI   C2A 4744   8.128  16.552   9.139  0.0955  0.2354  0.1351
  297loPI   C3A 4745   8.137  16.647   8.741  0.1320 -0.0754  0.2416
  297loPI   C4A 4746   8.190  16.511   8.393  0.0825  0.2016 -0.3158
  297loPI   C5A 4747   8.124  16.462   8.029  0.0128 -0.0823  0.0645
  297loPI   C6A 4748   7.975  16.119   7.646  0.0565  0.0957 -0.2741
  297loPI   C1B 4749   8.697  16.605   9.632 -0.1012 -0.2352 -0.2006
  297loPI   C2B 4750   8.678  16.548   9.264  0.1356  0.0399 -0.0076
  297loPI   C3B 4751   8.653  16.684   8.842  0.2962  0.2792  0.0387
  297loPI   C4B 4752   8.720  16.548   8.542 -0.0830 -0.1518 -0.2490
  298loPI    C1 4753   2.583   0.577  11.134  0.2583  0.1635  0.1329
  298loPI    C2 4754   2.962   0.587  11.262  0.2619 -0.2037  0.1617
  298loPI    C3 4755   2.709   0.313  11.407 -0.0460  0.1053  0.2213
  298loPI   PO4 4756   2.545   0.429  10.905  0.0019 -0.5720 -0.1919
  298loPI   GL1 4757   2.453   0.391  10.387 -0.2791  0.0720 -0.0987
  298loPI   GL2 4758   2.136   0.310  10.194 -0.0340  0.2418 -0.2509
  298loPI   C1A 4759   2.554   0.374   9.946 -0.0035  0.2000 -0.0859
  298loPI   C2A 4760   2.543   0.358   9.436 -0.0200 -0.2216 -0.0236
  298loPI   C3A 4761   2.505   0.380   9.031 -0.0882  0.1301 -0.2825
  298loPI   C4A 4762   2.540   0.316   8.543 -0.0780  0.3555  0.0876
  298loPI   C5A 4763   2.543   0.232   8.154 -0.4639  0.1714  0.1108
  298loPI   C6A 4764   2.669   0.493   7.792  0.0639 -0.0117  0.0099
  298loPI   C1B 4765   2.084   0.319   9.757  0.1748  0.4209  0.2545
  298loPI   C2B 4766   2.000   0.364   9.352  0.0362 -0.3021 -0.1826
  298loPI   C3B 4767   1.987   0.359   8.966  0.0928 -0.1180 -0.1864
  298loPI   C4B 4768   2.014   0.298   8.540  0.6043  0.0851  0.0777
  299loPI    C1 4769   0.235   1.530  10.852  0.0888  0.0012  0.0998
  299loPI    C2 4770   0.070   1.690  11.179 -0.1272 -0.0262  0.0060
  299loPI    C3 4771   0.467   1.700  11.130 -0.1116  0.1795  0.1606
  299loPI   PO4 4772   0.113   1.521  10.696  0.1109  0.1197 -0.1376
  299loPI   GL1 4773  -0.063   1.754  10.418 -0.5687  0.3549 -0.4898
  299loPI   GL2 4774  -0.307   1.599  10.445  0.0415  0.0409  0.1379
  299loPI   C1A 4775   0.220   1.602  10.040  0.1922  0.1712  0.1433
  299loPI   C2A 4776   0.269   1.665   9.648 -0.2442  0.0841  0.2270
  299loPI   C3A 4777   0.280   1.667   9.171  0.0741  0.2431 -0.3070
  299loPI   C4A 4778   0.298   1.817   8.858  0.0787 -0.1011  0.5096
  299loPI   C5A 4779   0.072   1.957   8.512  0.1163  0.0194  0.0155
  299loPI   C6A 4780   0.046   2.293   8.362 -0.0349 -0.1134  0.0166
  299loPI   C1B 4781  -0.319   1.557   9.946  0.0096 -0.0271 -0.2558
  299loPI   C2B 4782  -0.271   1.590   9.517  0.0924 -0.2404 -0.2573
  299loPI   C3B 4783  -0.229   1.705   9.097  0.2087 -0.3490  0.1616
  299loPI   C4B 4784  -0.282   1.629   8.700 -0.3701  0.0384 -0.0794
  300loPI    C1 4785   3.565  10.547  10.961 -0.0684  0.1788  0.0699
  300loPI    C2 4786   3.739  10.870  10.802 -0.0922  0.1799  0.0462
  300loPI    C3 4787   3.806  10.776  11.184  0.1480  0.0479 -0.0265
  300loPI   PO4 4788   3.370  10.487  10.794  0.0770  0.0715 -0.1941
  300loPI   GL1 4789   3.386  10.425  10.370 -0.0327 -0.2943 -0.0141
  300loPI   GL2 4790   3.059  10.401  10.318  0.2977  0.0584  0.1108
  300loPI   C1A 4791   3.538  10.382   9.974 -0.0803 -0.1656  0.1158
  300loPI   C2A 4792   3.487  10.491   9.572 -0.1024  0.1799  0.0740
  300loPI   C3A 4793   3.580  10.513   9.093 -0.0416  0.2340 -0.1186
  300loPI   C4A 4794   3.513  10.481   8.729  0.3620 -0.0116 -0.0996
  300loPI   C5A 4795   3.342  10.329   8.245  0.5016 -0.1522  0.3616
  300loPI   C6A 4796   3.191  10.012   8.110 -0.1373  0.2337 -0.0375
  300loPI   C1B 4797   3.047  10.398   9.854 -0.1165  0.0347 -0.0644
  300loPI   C2B 4798   2.961  10.414   9.485  0.2949 -0.0357  0.0708
  300loPI   C3B 4799   3.054  10.469   9.054  0.0042  0.2398  0.1600
  300loPI   C4B 4800   3.012  10.503   8.675  0.1207  0.1565 -0.1467
  301loPI    C1 4801  17.666  11.863  10.872 -0.0399  0.0403  0.1477
  301loPI    C2 4802  18.057  11.884  10.952 -0.0361  0.1665  0.0978
  301loPI    C3 4803  17.826  11.626  11.152  0.1200 -0.1002 -0.0595
  301loPI   PO4 4804  17.703  11.850  10.613 -0.1037 -0.0483  0.0852
  301loPI   GL1 4805  17.702  11.608  10.212  0.0582  0.0818  0.0494
  301loPI   GL2 4806  17.841  11.923  10.181 -0.2589 -0.1144  0.0218
  301loPI   C1A 4807  17.722  11.560   9.747  0.0609  0.2086 -0.0329
  301loPI   C2A 4808  17.660  11.604   9.288 -0.0658 -0.0159  0.0576
  301loPI   C3A 4809  17.625  11.566   8.905  0.2403  0.3607  0.1070
  301loPI   C4A 4810  17.631  11.644   8.476 -0.0044  0.1337  0.2007
  301loPI   C5A 4811  17.465  12.128   8.232  0.1142  0.0615 -0.1172
  301loPI   C6A 4812  17.186  12.516   8.090 -0.1712 -0.0155  0.2021
  301loPI   C1B 4813  17.893  12.060   9.702 -0.0878  0.1690  0.1840
  301loPI   C2B 4814  17.893  12.009   9.271  0.0530  0.0748 -0.1775
  301loPI   C3B 4815  17.841  12.006   8.832 -0.3198  0.1148  0.0996
  301loPI   C4B 4816  17.890  12.068   8.388 -0.0475  0.0604 -0.1845
  302loPI    C1 4817  10.045  13.914  10.797 -0.0912 -0.2084 -0.2737
  302loPI    C2 4818  10.429  13.940  10.686 -0.0092  0.0279  0.0521
  302loPI    C3 4819  10.331  13.948  11.074 -0.3430 -0.0620 -0.0267
  302loPI   PO4 4820   9.964  13.992  10.691  0.3646 -0.0792 -0.3577
  302loPI   GL1 4821   9.923  14.017  10.220  0.0506  0.1390 -0.0329
  302loPI   GL2 4822   9.723  13.722  10.336 -0.2154  0.1201 -0.3024
  302loPI   C1A 4823   9.770  13.933   9.751  0.0785 -0.0613 -0.0911
  302loPI   C2A 4824   9.803  13.927   9.292  0.0444 -0.1307  0.3202
  302loPI   C3A 4825   9.781  13.967   8.908 -0.0001  0.0129 -0.1206
  302loPI   C4A 4826   9.924  13.904   8.544  0.1049  0.3739 -0.0587
  302loPI   C5A 4827  10.205  14.060   8.145  0.0840 -0.1802 -0.1432
  302loPI   C6A 4828  10.629  13.955   8.004  0.0407  0.1342 -0.3934
  302loPI   C1B 4829   9.564  13.525   9.984 -0.1564 -0.3049 -0.3811
  302loPI   C2B 4830   9.622  13.503   9.491  0.3333 -0.3241 -0.1855
  302loPI   C3B 4831   9.623  13.517   9.039 -0.0218 -0.0819  0.0926
  302loPI   C4B 4832   9.592  13.485   8.607 -0.2286 -0.1222  0.1505
  303loPI    C1 4833  13.660   1.719  10.583  0.2573 -0.0887 -0.0110
  303loPI    C2 4834  13.928   1.602  10.856  0.2037  0.2209  0.1791
  303loPI    C3 4835  13.625   1.840  10.962 -0.1796 -0.1620 -0.0232
  303loPI   PO4 4836  13.624   1.659  10.305  0.0571 -0.2813 -0.0255
  303loPI   GL1 4837  13.354   1.862   9.996 -0.0665  0.2599 -0.0249
  303loPI   GL2 4838  13.177   1.543   9.835  0.2112 -0.0664  0.1265
  303loPI   C1A 4839  13.362   2.015   9.576  0.1413 -0.0209  0.1865
  303loPI   C2A 4840  13.310   1.984   9.139 -0.0023 -0.0342  0.3914
  303loPI   C3A 4841  13.207   1.920   8.768  0.1111  0.0457 -0.0623
  303loPI   C4A 4842  13.284   1.931   8.331 -0.0927 -0.0564  0.1739
  303loPI   C5A 4843  13.475   1.940   7.954  0.1550 -0.4927  0.1792
  303loPI   C6A 4844  13.876   2.074   7.826  0.0055  0.2055  0.1465
  303loPI   C1B 4845  13.159   1.561   9.406 -0.0995  0.0342  0.0350
  303loPI   C2B 4846  13.028   1.469   8.945  0.0293  0.1851 -0.1733
  303loPI   C3B 4847  13.035   1.470   8.474 -0.2742 -0.3039  0.0463
  303loPI   C4B 4848  13.085   1.525   8.142 -0.4404 -0.0231  0.1545
  304loPI    C1 4849  13.048   8.991  11.186 -0.0451 -0.1226  0.0352
  304loPI    C2 4850  12.775   9.009  11.478  0.0930  0.0589  0.1555
  304loPI    C3 4851  13.111   8.798  11.530 -0.0213 -0.1639  0.0078
  304loPI   PO4 4852  12.911   8.897  10.929  0.2768 -0.0019  0.2063
  304loPI   GL1 4853  12.940   8.728  10.464  0.2122 -0.2466 -0.0631
  304loPI   GL2 4854  12.598   8.640  10.436  0.3276 -0.0446 -0.1378
  304loPI   C1A 4855  13.095   8.654  10.100 -0.0219 -0.1464  0.2163
  304loPI   C2A 4856  13.093   8.763   9.645  0.0603  0.3747 -0.2317
  304loPI   C3A 4857  13.150   8.715   9.238  0.0606  0.1935  0.0261
  304loPI   C4A 4858  13.201   8.709   8.814  0.1710  0.0918  0.0410
  304loPI   C5A 4859  13.432   8.686   8.419  0.0158  0.2225 -0.1169
  304loPI   C6A 4860  13.261   8.437   8.106 -0.1288  0.1085  0.3520
  304loPI   C1B 4861  12.604   8.722  10.048  0.0784 -0.2515  0.2505
  304loPI   C2B 4862  12.586   8.667   9.627  0.1614 -0.0151 -0.0479
  304loPI   C3B 4863  12.597   8.685   9.237  0.0926  0.0505  0.1960
  304loPI   C4B 4864  12.550   8.644   8.756  0.0714 -0.1858 -0.3307
  305loPI    C1 4865  11.248  12.832  11.012 -0.1038 -0.1609 -0.0793
  305loPI    C2 4866  11.299  12.987  11.377  0.0921  0.0301 -0.1858
  305loPI    C3 4867  11.495  12.654  11.272 -0.1819 -0.1873 -0.0225
  305loPI   PO4 4868  11.264  12.955  10.891  0.2252 -0.1328  0.0008
  305loPI   GL1 4869  11.113  12.947  10.429 -0.0280 -0.0726 -0.1427
  305loPI   GL2 4870  10.917  13.199  10.295  0.0163 -0.1021 -0.0644
  305loPI   C1A 4871  11.423  13.100  10.018 -0.1559 -0.2812  0.0659
  305loPI   C2A 4872  11.395  13.177   9.603 -0.1604 -0.0389 -0.2478
  305loPI   C3A 4873  11.396  13.143   9.230 -0.2316  0.2011 -0.2104
  305loPI   C4A 4874  11.379  13.143   8.844 -0.2108  0.1233  0.2501
  305loPI   C5A 4875  11.376  13.144   8.430 -0.2444 -0.0702 -0.1002
  305loPI   C6A 4876  11.060  13.020   8.227  0.2507 -0.1815  0.2363
  305loPI   C1B 4877  10.929  13.069   9.808 -0.0682 -0.3776  0.2292
  305loPI   C2B 4878  10.914  13.097   9.262 -0.2390 -0.2577  0.0553
  305loPI   C3B 4879  10.854  13.053   8.770 -0.0169  0.2654  0.0188
  305loPI   C4B 4880  10.601  13.083   8.436 -0.0805  0.0972 -0.3089
  306loPI    C1 4881   3.607   5.601  10.809 -0.0534  0.0306  0.0021
  306loPI    C2 4882   3.432   5.476  11.146  0.0276  0.2132  0.1134
  306loPI    C3 4883   3.780   5.672  11.162  0.1419  0.0313 -0.0923
  306loPI   PO4 4884   3.426   5.752  10.696  0.1437 -0.3593  0.2544
  306loPI   GL1 4885   3.385   5.924  10.255  0.2349 -0.0486 -0.2947
  306loPI   GL2 4886   3.105   5.809  10.294 -0.0411  0.0141  0.0511
  306loPI   C1A 4887   3.284   6.045   9.843 -0.0333 -0.4363 -0.0263
  306loPI   C2A 4888   3.241   6.059   9.397  0.1301  0.0846 -0.0442
  306loPI   C3A 4889   3.182   5.970   8.969 -0.4075 -0.0773  0.1463
  306loPI   C4A 4890   3.365   5.994   8.569 -0.1795 -0.2356  0.0813
  306loPI   C5A 4891   3.817   5.885   8.393 -0.0805 -0.1248 -0.0811
  306loPI   C6A 4892   3.990   5.873   7.962 -0.0660 -0.0454  0.0900
  306loPI   C1B 4893   2.777   5.969   9.948  0.0406 -0.0562 -0.3112
  306loPI   C2B 4894   2.638   5.991   9.602  0.0295  0.2105 -0.0763
  306loPI   C3B 4895   2.693   6.025   9.150 -0.1342  0.0936 -0.4325
  306loPI   C4B 4896   2.817   5.991   8.593  0.1177  0.2073 -0.0049
  307loPI    C1 4897  15.186  12.407  11.047  0.0560  0.1447  0.0781
  307loPI    C2 4898  14.961  12.712  11.176  0.0821  0.0455  0.3659
  307loPI    C3 4899  15.001  12.383  11.401  0.4792  0.0440  0.3001
  307loPI   PO4 4900  15.236  12.478  10.760  0.2466  0.1698 -0.1794
  307loPI   GL1 4901  15.316  12.335  10.357  0.1326 -0.3618 -0.0651
  307loPI   GL2 4902  15.552  12.487  10.205 -0.3120 -0.0108 -0.3840
  307loPI   C1A 4903  15.043  12.330   9.953 -0.0286 -0.1571 -0.0331
  307loPI   C2A 4904  15.024  12.359   9.529  0.1252 -0.1958  0.0836
  307loPI   C3A 4905  15.043  12.373   9.085  0.1350  0.2239 -0.2530
  307loPI   C4A 4906  15.016  12.350   8.629  0.0581 -0.3521  0.0128
  307loPI   C5A 4907  15.025  12.592   8.262  0.2902  0.1509 -0.2079
  307loPI   C6A 4908  15.416  12.542   8.006 -0.0158  0.1495  0.0817
  307loPI   C1B 4909  15.563  12.319   9.844  0.0569  0.0882 -0.3806
  307loPI   C2B 4910  15.539  12.423   9.426  0.0310  0.0946 -0.1363
  307loPI   C3B 4911  15.571  12.354   9.067  0.0260  0.2932 -0.1975
  307loPI   C4B 4912  15.504  12.441   8.587 -0.0521 -0.1866  0.0397
  308loPI    C1 4913   6.074  14.105  10.979  0.0679  0.1592 -0.1622
  308loPI    C2 4914   6.220  14.028  10.615  0.1526 -0.0669 -0.0825
  308loPI    C3 4915   6.172  13.731  10.878 -0.0370  0.0738  0.0452
  308loPI   PO4 4916   5.875  14.290  10.850 -0.1198 -0.0389 -0.2095
  308loPI   GL1 4917   5.872  14.404  10.458 -0.1250  0.2560 -0.2036
  308loPI   GL2 4918   5.635  14.532  10.300 -0.0006 -0.2637 -0.0408
  308loPI   C1A 4919   5.961  14.206  10.064 -0.0202 -0.0267  0.1156
  308loPI   C2A 4920   5.889  14.058   9.641  0.1969 -0.1038 -0.0989
  308loPI   C3A 4921   5.947  14.071   9.236 -0.1413 -0.0683  0.0490
  308loPI   C4A 4922   5.839  14.147   8.817  0.2058  0.0019  0.0421
  308loPI   C5A 4923   5.759  14.168   8.406  0.2007  0.1721  0.2167
  308loPI   C6A 4924   5.471  14.176   7.997 -0.1003  0.2017 -0.1446
  308loPI   C1B 4925   5.594  14.592   9.862 -0.0175  0.0170 -0.3055
  308loPI   C2B 4926   5.586  14.470   9.487 -0.2245  0.3304 -0.0347
  308loPI   C3B 4927   5.624  14.542   9.020 -0.0164  0.0546  0.0504
  308loPI   C4B 4928   5.621  14.658   8.533  0.1693  0.1520  0.2523
  309loPI    C1 4929  17.717   5.007  10.870 -0.1426  0.1080 -0.0314
  309loPI    C2 4930  18.061   5.079  11.060 -0.0627  0.1951 -0.2065
  309loPI    C3 4931  17.724   5.030  11.269  0.0795 -0.0326 -0.0252
  309loPI   PO4 4932  17.704   5.170  10.630 -0.1028 -0.1530  0.0166
  309loPI   GL1 4933  17.538   5.237  10.200 -0.0826 -0.3749 -0.1130
  309loPI   GL2 4934  17.154   5.356  10.170 -0.1897  0.3169  0.1689
  309loPI   C1A 4935  17.558   5.344   9.803  0.1910  0.0132 -0.0377
  309loPI   C2A 4936  17.564   5.338   9.319 -0.3175  0.0379  0.0616
  309loPI   C3A 4937  17.440   5.333   8.882 -0.2350 -0.1259 -0.2050
  309loPI   C4A 4938  17.272   5.380   8.419  0.3274  0.1170  0.2881
  309loPI   C5A 4939  17.458   5.600   8.094 -0.4247 -0.3474  0.0714
  309loPI   C6A 4940  17.531   5.920   7.906 -0.1545 -0.1719 -0.1777
  309loPI   C1B 4941  17.003   5.229   9.750 -0.0160  0.1798 -0.0175
  309loPI   C2B 4942  16.948   5.316   9.258  0.3934  0.0025 -0.1438
  309loPI   C3B 4943  16.899   5.384   8.815  0.0766  0.1711  0.2224
  309loPI   C4B 4944  16.771   5.529   8.377  0.0838 -0.0221  0.2213
  310loPI    C1 4945   2.589  10.006  11.165  0.0363  0.0137  0.2125
  310loPI    C2 4946   2.759   9.664  11.283 -0.0420 -0.0790  0.0593
  310loPI    C3 4947   2.461   9.823  11.497  0.1366  0.0066  0.2478
  310loPI   PO4 4948   2.562   9.914  10.856 -0.0480  0.0238  0.3245
  310loPI   GL1 4949   2.500   9.905  10.465 -0.1019  0.2158 -0.2024
  310loPI   GL2 4950   2.609  10.185  10.420 -0.0576 -0.2137  0.0616
  310loPI   C1A 4951   2.346   9.918  10.077  0.3670  0.0829 -0.1765
  310loPI   C2A 4952   2.256   9.884   9.656  0.0002 -0.0570  0.1193
  310loPI   C3A 4953   2.339   9.913   9.259  0.2966 -0.0326 -0.0080
  310loPI   C4A 4954   2.275   9.927   8.803 -0.3196 -0.2362 -0.1109
  310loPI   C5A 4955   2.321  10.033   8.362  0.1284  0.1669 -0.1298
  310loPI   C6A 4956   2.187   9.908   8.016  0.0833 -0.1647 -0.1308
  310loPI   C1B 4957   2.530  10.360  10.019  0.0574  0.0602  0.0209
  310loPI   C2B 4958   2.431  10.342   9.471  0.0111  0.0686 -0.5063
  310loPI   C3B 4959   2.540  10.321   9.056 -0.0319 -0.1810 -0.2341
  310loPI   C4B 4960   2.511  10.396   8.661 -0.0042 -0.2184 -0.2646
  311loPI    C1 4961  15.424  13.384  10.665  0.0012  0.1709 -0.0354
  311loPI    C2 4962  15.197  13.501  10.973  0.0511 -0.0687  0.0944
  311loPI    C3 4963  15.596  13.502  11.006  0.0643  0.1385 -0.0558
  311loPI   PO4 4964  15.260  13.245  10.535  0.1441 -0.0976 -0.2569
  311loPI   GL1 4965  15.391  13.077  10.202  0.0277 -0.2850 -0.0389
  311loPI   GL2 4966  15.219  12.813  10.235  0.0362  0.1066  0.1273
  311loPI   C1A 4967  15.474  13.243   9.819  0.1410  0.0598 -0.3672
  311loPI   C2A 4968  15.433  13.344   9.356 -0.0891 -0.1463 -0.2156
  311loPI   C3A 4969  15.417  13.329   8.885  0.0945  0.4372  0.1440
  311loPI   C4A 4970  15.380  13.351   8.463  0.1162  0.0039  0.0838
  311loPI   C5A 4971  15.526  13.380   8.051 -0.1117  0.0603 -0.0196
  311loPI   C6A 4972  15.488  13.445   7.530 -0.5221  0.1042  0.0562
  311loPI   C1B 4973  15.297  12.761   9.804  0.4083 -0.4309  0.1705
  311loPI   C2B 4974  15.279  12.827   9.360 -0.1430  0.1254 -0.1311
  311loPI   C3B 4975  15.280  12.847   8.976 -0.0512  0.0372  0.1794
  311loPI   C4B 4976  15.236  12.874   8.662  0.0125 -0.1488  0.0686
  312loPI    C1 4977   4.143  17.063  10.840 -0.0473 -0.1271  0.0239
  312loPI    C2 4978   4.402  17.234  11.092  0.1477 -0.3135 -0.0471
  312loPI    C3 4979   4.151  16.953  11.224 -0.0790 -0.0745  0.0398
  312loPI   PO4 4980   4.331  17.062  10.589 -0.4621 -0.0673  0.0438
  312loPI   GL1 4981   4.204  16.693  10.342 -0.2263  0.1445  0.0368
  312loPI   GL2 4982   3.963  16.893  10.269  0.0472  0.0860 -0.0601
  312loPI   C1A 4983   4.172  16.667   9.886  0.0963 -0.0181 -0.0279
  312loPI   C2A 4984   4.156  16.663   9.515 -0.1522 -0.1898 -0.2763
  312loPI   C3A 4985   4.083  16.780   9.174 -0.0468  0.2416  0.0169
  312loPI   C4A 4986   4.174  16.784   8.787  0.2735 -0.1910  0.0916
  312loPI   C5A 4987   4.200  16.801   8.384  0.0110  0.2576 -0.1843
  312loPI   C6A 4988   3.963  16.874   8.036  0.0574 -0.1094  0.0619
  312loPI   C1B 4989   3.951  17.127   9.876 -0.1587  0.0495 -0.1077
  312loPI   C2B 4990   3.917  17.180   9.431 -0.0922 -0.0834 -0.0187
  312loPI   C3B 4991   3.981  17.232   8.910  0.0293 -0.0101 -0.0652
  312loPI   C4B 4992   3.929  17.275   8.466  0.2362 -0.1020 -0.2837
  313loPI    C1 4993   2.850  10.994  11.319 -0.1759 -0.0227  0.1773
  313loPI    C2 4994   2.959  10.758  11.623 -0.0789 -0.0984  0.0843
  313loPI    C3 4995   2.873  11.142  11.689  0.1969 -0.0485  0.1684
  313loPI   PO4 4996   2.947  10.817  11.096  0.1049  0.1490 -0.0321
  313loPI   GL1 4997   2.904  10.938  10.689 -0.2070  0.2586 -0.0514
  313loPI   GL2 4998   3.236  10.921  10.644 -0.0195 -0.0750  0.1263
  313loPI   C1A 4999   2.972  11.261  10.377  0.1107 -0.1732  0.0304
  313loPI   C2A 5000   3.015  11.269   9.982  0.3480 -0.0228  0.2372
  313loPI   C3A 5001   2.926  11.299   9.523 -0.0722 -0.2033  0.0450
  313loPI   C4A 5002   3.024  11.307   9.038 -0.0227 -0.1405  0.2426
  313loPI   C5A 5003   2.928  11.287   8.582  0.2695  0.0623 -0.2347
  313loPI   C6A 5004   2.766  11.306   8.218 -0.3838  0.3338  0.0814
  313loPI   C1B 5005   3.300  10.847  10.176 -0.0998  0.1732 -0.0594
  313loPI   C2B 5006   3.259  10.860   9.789 -0.0737  0.1763  0.1073
  313loPI   C3B 5007   3.204  10.893   9.365 -0.0675 -0.0530 -0.2123
  313loPI   C4B 5008   3.278  10.879   8.898 -0.1705  0.2605  0.3185
  314loPI    C1 5009   9.871  10.212  11.150  0.0499 -0.1294  0.0480
  314loPI    C2 5010   9.903  10.611  11.165  0.1366 -0.1342 -0.0016
  314loPI    C3 5011  10.197  10.381  11.309  0.1182 -0.1802 -0.0370
  314loPI   PO4 5012   9.822  10.094  10.903  0.1105  0.1324 -0.0973
  314loPI   GL1 5013   9.750  10.221  10.494  0.0150  0.0100 -0.1049
  314loPI   GL2 5014   9.576  10.394  10.370 -0.1287  0.0487 -0.0183
  314loPI   C1A 5015   9.847   9.998  10.074 -0.0922  0.0047  0.1737
  314loPI   C2A 5016   9.770   9.860   9.611  0.0064  0.1444  0.0492
  314loPI   C3A 5017   9.836   9.870   9.241  0.1604 -0.1784  0.1312
  314loPI   C4A 5018   9.706   9.869   8.830  0.0310  0.0176  0.0268
  314loPI   C5A 5019   9.772   9.959   8.376  0.3690 -0.0729  0.1343
  314loPI   C6A 5020   9.987   9.871   8.004  0.2926 -0.0626  0.0135
  314loPI   C1B 5021   9.555  10.373   9.932 -0.0822  0.1723  0.0273
  314loPI   C2B 5022   9.477  10.301   9.483 -0.1955 -0.1520  0.1779
  314loPI   C3B 5023   9.516  10.304   9.040  0.2345 -0.0922 -0.0967
  314loPI   C4B 5024   9.469  10.307   8.630 -0.1361  0.2646  0.1614
  315loPI    C1 5025  10.607  10.067  10.720 -0.0142 -0.1859  0.0348
  315loPI    C2 5026  10.676  10.211  11.087 -0.4374  0.1096  0.0051
  315loPI    C3 5027  10.729   9.822  11.012 -0.1536  0.0821  0.3238
  315loPI   PO4 5028  10.630  10.167  10.560 -0.1390 -0.0325  0.1688
  315loPI   GL1 5029  10.440  10.488  10.390 -0.0967 -0.2310  0.3678
  315loPI   GL2 5030  10.339  10.810  10.261  0.4638  0.0229  0.0228
  315loPI   C1A 5031  10.528  10.385   9.919  0.3310  0.0575 -0.0084
  315loPI   C2A 5032  10.485  10.339   9.490  0.2801 -0.0414  0.2208
  315loPI   C3A 5033  10.444  10.333   9.020 -0.0164 -0.1122 -0.0351
  315loPI   C4A 5034  10.545  10.292   8.563 -0.0225 -0.2504 -0.0444
  315loPI   C5A 5035  10.603  10.309   8.115 -0.0492  0.0890 -0.0447
  315loPI   C6A 5036  10.759  10.250   7.691 -0.0612  0.2070  0.1372
  315loPI   C1B 5037  10.245  10.884   9.824  0.0586 -0.0187 -0.0268
  315loPI   C2B 5038  10.202  10.830   9.398  0.1732 -0.1781 -0.1098
  315loPI   C3B 5039  10.203  10.790   8.930 -0.1097  0.0780 -0.1928
  315loPI   C4B 5040  10.257  10.693   8.508  0.1218 -0.2596 -0.1784
  316loPI    C1 5041   8.365  14.137  10.973  0.0900  0.0184 -0.1473
  316loPI    C2 5042   8.503  13.837  11.199  0.0715 -0.0169 -0.1827
  316loPI    C3 5043   8.206  14.069  11.334  0.1850  0.0776 -0.0943
  316loPI   PO4 5044   8.431  14.005  10.715 -0.0204  0.1827 -0.0571
  316loPI   GL1 5045   8.263  13.993  10.274  0.1286  0.1982 -0.2892
  316loPI   GL2 5046   8.107  13.729  10.342  0.0309 -0.0514  0.1527
  316loPI   C1A 5047   8.248  13.816   9.853 -0.2169 -0.0944  0.2074
  316loPI   C2A 5048   8.324  13.724   9.384  0.1182  0.0883 -0.2164
  316loPI   C3A 5049   8.331  13.822   8.983  0.3932  0.0500  0.1097
  316loPI   C4A 5050   8.352  13.723   8.575  0.1529  0.1775 -0.0895
  316loPI   C5A 5051   8.180  13.472   8.230 -0.0325 -0.2177  0.1624
  316loPI   C6A 5052   7.815  13.198   8.207  0.3004 -0.3129  0.2262
  316loPI   C1B 5053   8.083  13.356  10.065  0.0015 -0.2631  0.3003
  316loPI   C2B 5054   8.042  13.367   9.602 -0.0167 -0.0881 -0.2138
  316loPI   C3B 5055   8.132  13.335   9.144  0.1209  0.1639 -0.0424
  316loPI   C4B 5056   7.985  13.404   8.757 -0.2994 -0.0936 -0.1606
  317loPI    C1 5057   0.797   5.775  10.830 -0.0368  0.0122  0.1172
  317loPI    C2 5058   0.469   5.840  11.051 -0.0997  0.0679  0.0083
  317loPI    C3 5059   0.821   5.772  11.229 -0.2028 -0.1644  0.1274
  317loPI   PO4 5060   0.741   5.960  10.606 -0.0771 -0.0811  0.1366
  317loPI   GL1 5061   0.627   5.884  10.212  0.0038 -0.2330 -0.0151
  317loPI   GL2 5062   0.356   6.209  10.278 -0.2064 -0.4545 -0.0767
  317loPI   C1A 5063   0.683   5.896   9.824 -0.0344 -0.0959  0.0156
  317loPI   C2A 5064   0.667   5.907   9.427  0.0948  0.0514 -0.0968
  317loPI   C3A 5065   0.763   5.910   9.032 -0.0529  0.1709 -0.1616
  317loPI   C4A 5066   0.592   5.865   8.666 -0.0411 -0.2115 -0.0488
  317loPI   C5A 5067   0.595   5.972   8.241 -0.2780 -0.0843 -0.1637
  317loPI   C6A 5068   0.416   6.315   8.014  0.2172 -0.2225 -0.2766
  317loPI   C1B 5069   0.391   6.376   9.844 -0.1460 -0.2715  0.1582
  317loPI   C2B 5070   0.358   6.307   9.397 -0.1250  0.1572 -0.3302
  317loPI   C3B 5071   0.354   6.303   8.960 -0.1572 -0.2600 -0.2560
  317loPI   C4B 5072   0.331   6.311   8.524  0.0480  0.2856 -0.0808
  318loPI    C1 5073   7.548  12.349  11.165  0.3006 -0.2277 -0.1947
  318loPI    C2 5074   7.691  12.609  11.432 -0.2327 -0.1051 -0.0167
  318loPI    C3 5075   7.806  12.226  11.445 -0.0788 -0.0531  0.2445
  318loPI   PO4 5076   7.584  12.436  10.982 -0.0402  0.3120  0.2364
  318loPI   GL1 5077   7.425  12.253  10.610 -0.0112  0.0079 -0.0930
  318loPI   GL2 5078   7.504  12.065  10.528 -0.4559  0.2286  0.0350
  318loPI   C1A 5079   7.621  12.391  10.210 -0.2255  0.1451 -0.0572
  318loPI   C2A 5080   7.584  12.420   9.892  0.0483 -0.0871  0.2697
  318loPI   C3A 5081   7.625  12.568   9.424  0.0350 -0.1738 -0.2868
  318loPI   C4A 5082   7.558  12.444   9.010 -0.2353 -0.2062 -0.0016
  318loPI   C5A 5083   7.530  12.496   8.536 -0.1331  0.0259  0.0405
  318loPI   C6A 5084   7.423  12.456   8.085 -0.0347 -0.1183  0.0397
  318loPI   C1B 5085   7.420  11.978  10.112 -0.4499 -0.2079 -0.0753
  318loPI   C2B 5086   7.379  11.917   9.743 -0.0766 -0.2085 -0.2420
  318loPI   C3B 5087   7.363  12.046   9.284  0.0086 -0.0231  0.1579
  318loPI   C4B 5088   7.352  11.998   8.801 -0.3483  0.1825 -0.2277
  319loPI    C1 5089   3.677   7.940  11.174 -0.0295  0.2362  0.0402
  319loPI    C2 5090   3.943   7.848  11.459 -0.0472 -0.0187 -0.0231
  319loPI    C3 5091   3.649   8.107  11.537  0.1734  0.2079  0.0703
  319loPI   PO4 5092   3.762   8.022  10.989  0.2680 -0.2372 -0.0629
  319loPI   GL1 5093   3.578   8.206  10.529 -0.0279  0.1501 -0.1029
  319loPI   GL2 5094   3.598   8.506  10.455  0.0671  0.2079 -0.0454
  319loPI   C1A 5095   3.460   8.191  10.115  0.2136 -0.1347  0.1962
  319loPI   C2A 5096   3.459   8.165   9.672  0.2995  0.3041  0.2010
  319loPI   C3A 5097   3.315   8.296   9.257 -0.0407  0.2035  0.0156
  319loPI   C4A 5098   3.429   8.246   8.782 -0.1431 -0.1863 -0.0455
  319loPI   C5A 5099   3.266   8.205   8.297 -0.1658  0.1441 -0.0579
  319loPI   C6A 5100   2.932   8.294   7.886 -0.1628 -0.0036 -0.1012
  319loPI   C1B 5101   3.699   8.612  10.022 -0.0196 -0.0514 -0.2307
  319loPI   C2B 5102   3.592   8.604   9.521  0.1107  0.1253  0.1097
  319loPI   C3B 5103   3.622   8.726   9.033  0.0228  0.0472  0.0670
  319loPI   C4B 5104   3.673   8.908   8.585  0.0770  0.1421 -0.1421
  320loPI    C1 5105   1.827   5.162  11.107  0.1066  0.1188  0.1056
  320loPI    C2 5106   1.850   4.941  11.440 -0.1390  0.1438  0.1409
  320loPI    C3 5107   1.673   5.300  11.449 -0.4087  0.0201 -0.0778
  320loPI   PO4 5108   2.080   5.130  10.883 -0.0308  0.0019 -0.0170
  320loPI   GL1 5109   2.239   5.368  10.545 -0.0455 -0.0962 -0.1352
  320loPI   GL2 5110   1.956   5.349  10.348  0.0433  0.0660  0.0387
  320loPI   C1A 5111   2.475   5.477  10.172  0.0706 -0.1402  0.4922
  320loPI   C2A 5112   2.537   5.588   9.820  0.1020  0.2215  0.0267
  320loPI   C3A 5113   2.539   5.534   9.377  0.0065 -0.0504 -0.2525
  320loPI   C4A 5114   2.474   5.610   8.913 -0.0413 -0.5277 -0.1327
  320loPI   C5A 5115   2.599   5.467   8.533 -0.2086  0.2847  0.1321
  320loPI   C6A 5116   2.621   5.496   8.162 -0.1210 -0.0767  0.1053
  320loPI   C1B 5117   1.993   5.466   9.934 -0.3160 -0.1313 -0.1946
  320loPI   C2B 5118   2.074   5.596   9.520 -0.0926 -0.1061 -0.0162
  320loPI   C3B 5119   1.936   5.506   9.125  0.2135 -0.0691 -0.1052
  320loPI   C4B 5120   1.983   5.637   8.700  0.2348  0.1214 -0.2817
  321loPI    C1 5121  12.309   3.404  10.509  0.2018 -0.0558  0.0234
  321loPI    C2 5122  12.150   3.426  10.875 -0.0438  0.0486 -0.0869
  321loPI    C3 5123  12.547   3.438  10.828  0.0012 -0.2125  0.1928
  321loPI   PO4 5124  12.138   3.520  10.351  0.0752 -0.3167  0.2304
  321loPI   GL1 5125  12.204   3.584   9.887 -0.0495  0.0663 -0.0841
  321loPI   GL2 5126  11.999   3.329   9.856  0.2974  0.4913  0.0080
  321loPI   C1A 5127  12.229   3.735   9.416 -0.3516 -0.0433  0.3111
  321loPI   C2A 5128  12.140   3.676   9.047 -0.0426 -0.1977  0.0137
  321loPI   C3A 5129  12.172   3.719   8.635  0.2004  0.1632  0.1321
  321loPI   C4A 5130  12.207   3.666   8.248  0.1821  0.4065  0.2242
  321loPI   C5A 5131  12.640   3.597   7.974  0.1367 -0.1255  0.0144
  321loPI   C6A 5132  13.006   3.676   8.094 -0.0405 -0.1827  0.0211
  321loPI   C1B 5133  11.948   3.285   9.441 -0.1467 -0.1508  0.2428
  321loPI   C2B 5134  11.986   3.168   9.017  0.2706  0.0476  0.1295
  321loPI   C3B 5135  11.888   3.309   8.767 -0.0592  0.0676 -0.0517
  321loPI   C4B 5136  11.895   3.354   8.314  0.1390  0.3594  0.0417
  322loPI    C1 5137   8.843   0.259  11.072  0.0434 -0.0604 -0.0313
  322loPI    C2 5138   8.700   0.583  11.258  0.1833  0.0470 -0.1081
  322loPI    C3 5139   8.843   0.276  11.472  0.1973  0.1030 -0.0369
  322loPI   PO4 5140   8.976   0.307  10.937  0.1191  0.0864  0.0495
  322loPI   GL1 5141   8.730   0.283  10.521  0.1625  0.0305 -0.0015
  322loPI   GL2 5142   8.610  -0.076  10.501 -0.0062 -0.0472  0.0523
  322loPI   C1A 5143   8.484   0.270  10.065 -0.5351  0.1645  0.0347
  322loPI   C2A 5144   8.536   0.368   9.574 -0.0682  0.0293 -0.2851
  322loPI   C3A 5145   8.508   0.404   9.099  0.0208  0.1340 -0.0937
  322loPI   C4A 5146   8.645   0.378   8.661 -0.1395 -0.2010  0.1047
  322loPI   C5A 5147   8.933   0.282   8.486 -0.1135 -0.0348  0.1628
  322loPI   C6A 5148   9.036  -0.043   8.213 -0.1919 -0.0316  0.0224
  322loPI   C1B 5149   8.786  -0.146  10.107  0.1517 -0.1139  0.0301
  322loPI   C2B 5150   8.840  -0.068   9.633 -0.2451  0.0399 -0.1739
  322loPI   C3B 5151   8.816  -0.127   9.210 -0.0059  0.0036  0.2809
  322loPI   C4B 5152   8.840  -0.113   8.784 -0.0036  0.1065 -0.1852
  323loPI    C1 5153   4.661  12.253  11.583  0.0399 -0.4362 -0.0837
  323loPI    C2 5154   5.056  12.277  11.644  0.0301  0.1248 -0.1864
  323loPI    C3 5155   4.813  12.561  11.789 -0.3334 -0.1861 -0.1714
  323loPI   PO4 5156   4.564  12.220  11.272 -0.2693  0.0820 -0.1471
  323loPI   GL1 5157   4.667  12.121  10.755 -0.0359 -0.1188 -0.0057
  323loPI   GL2 5158   4.859  11.799  10.628  0.2908 -0.5856  0.0232
  323loPI   C1A 5159   4.581  12.223  10.264 -0.3212  0.0492 -0.2461
  323loPI   C2A 5160   4.532  12.278   9.827  0.2663  0.0394  0.1464
  323loPI   C3A 5161   4.375  12.345   9.420 -0.0606  0.1671 -0.0199
  323loPI   C4A 5162   4.358  12.296   9.025 -0.2125  0.2250  0.0195
  323loPI   C5A 5163   4.353  12.283   8.525 -0.0608 -0.2872  0.2496
  323loPI   C6A 5164   4.425  12.224   8.094 -0.0328 -0.1549 -0.2906
  323loPI   C1B 5165   4.822  11.795  10.323 -0.1857 -0.2245 -0.2780
  323loPI   C2B 5166   4.768  11.840   9.862 -0.1568  0.0296  0.0287
  323loPI   C3B 5167   4.766  11.863   9.408  0.1046 -0.2655 -0.1569
  323loPI   C4B 5168   4.713  11.960   8.902  0.1236  0.1051  0.1874
  324loPI    C1 5169  10.324   4.258  11.106 -0.1473 -0.2877  0.1720
  324loPI    C2 5170  10.531   4.412  11.412  0.0010  0.0480 -0.0903
  324loPI    C3 5171  10.159   4.539  11.337 -0.0890 -0.1375  0.0331
  324loPI   PO4 5172  10.537   4.292  10.847 -0.1657 -0.2642  0.0319
  324loPI   GL1 5173  10.574   4.471  10.494  0.2077 -0.0553  0.1080
  324loPI   GL2 5174  10.250   4.442  10.398 -0.0153  0.5078 -0.0289
  324loPI   C1A 5175  10.695   4.466  10.019  0.4132 -0.3625  0.0011
  324loPI   C2A 5176  10.643   4.540   9.589  0.3384  0.2855  0.0366
  324loPI   C3A 5177  10.660   4.531   9.115 -0.1196  0.1148  0.0609
  324loPI   C4A 5178  10.575   4.547   8.692  0.3142  0.0019 -0.0546
  324loPI   C5A 5179  10.862   4.315   8.343  0.1535  0.0198  0.1923
  324loPI   C6A 5180  11.250   4.451   8.161 -0.0892  0.0567 -0.1323
  324loPI   C1B 5181  10.150   4.444   9.916  0.2779 -0.1037 -0.1485
  324loPI   C2B 5182  10.032   4.512   9.497  0.0293  0.2412 -0.1114
  324loPI   C3B 5183  10.171   4.454   9.094 -0.0111 -0.0600 -0.1603
  324loPI   C4B 5184  10.131   4.522   8.645 -0.2838 -0.3161  0.0041
  325loPI    C1 5185   6.295  14.988  10.918 -0.0213  0.1647  0.1069
  325loPI    C2 5186   5.979  14.809  10.752  0.1456 -0.0484  0.0145
  325loPI    C3 5187   6.064  14.747  11.138  0.0442  0.0526  0.0536
  325loPI   PO4 5188   6.460  14.922  10.692 -0.0977  0.0103 -0.1373
  325loPI   GL1 5189   6.314  14.745  10.376 -0.3485  0.2271  0.0895
  325loPI   GL2 5190   6.440  15.103  10.202 -0.1638  0.0541  0.5318
  325loPI   C1A 5191   6.156  14.634   9.976 -0.1505 -0.3005  0.1016
  325loPI   C2A 5192   6.194  14.601   9.515  0.2446  0.2153  0.1712
  325loPI   C3A 5193   6.151  14.643   9.081 -0.0083 -0.0041  0.0113
  325loPI   C4A 5194   6.040  14.585   8.730  0.0341 -0.1823 -0.3306
  325loPI   C5A 5195   6.169  14.490   8.343  0.2146  0.1021 -0.2577
  325loPI   C6A 5196   5.949  14.334   7.916 -0.0635  0.0737 -0.2763
  325loPI   C1B 5197   6.374  15.010   9.703  0.1609  0.0580  0.0705
  325loPI   C2B 5198   6.388  15.081   9.254  0.0151 -0.2811 -0.2915
  325loPI   C3B 5199   6.385  15.011   8.784  0.2415  0.0113  0.1719
  325loPI   C4B 5200   6.453  15.049   8.263  0.0272 -0.0827  0.0494
  326loPI    C1 5201   4.627   1.541  10.712 -0.0442  0.0393 -0.1231
  326loPI    C2 5202   4.338   1.317  10.873  0.2290 -0.1925  0.0558
  326loPI    C3 5203   4.582   1.529  11.109  0.2015  0.0091 -0.0941
  326loPI   PO4 5204   4.833   1.385  10.539  0.0048 -0.1703  0.0354
  326loPI   GL1 5205   4.895   1.154  10.239  0.2087  0.0692  0.3231
  326loPI   GL2 5206   5.013   1.429  10.081  0.3142  0.1168  0.1327
  326loPI   C1A 5207   4.843   1.009   9.848 -0.3461 -0.0400  0.0344
  326loPI   C2A 5208   4.878   0.871   9.482 -0.0282  0.0960  0.5234
  326loPI   C3A 5209   4.813   0.891   9.065 -0.3073 -0.0551  0.1326
  326loPI   C4A 5210   4.843   1.022   8.632  0.1447  0.1180 -0.0107
  326loPI   C5A 5211   4.915   1.088   8.347 -0.4270 -0.1918  0.0510
  326loPI   C6A 5212   4.873   1.435   8.004  0.0366  0.0626  0.2972
  326loPI   C1B 5213   5.181   1.290   9.662  0.1062 -0.1463 -0.0129
  326loPI   C2B 5214   5.039   1.336   9.220  0.1271 -0.1648  0.2226
  326loPI   C3B 5215   5.120   1.408   8.838 -0.0498  0.2458 -0.2175
  326loPI   C4B 5216   5.176   1.470   8.484  0.2905 -0.0112  0.1854
  327loPI    C1 5217  14.442   0.449  10.506  0.1606  0.2326  0.0669
  327loPI    C2 5218  14.160   0.674  10.679 -0.2090 -0.0827 -0.1094
  327loPI    C3 5219  14.161   0.278  10.734 -0.0162 -0.1255 -0.4036
  327loPI   PO4 5220  14.448   0.488  10.232  0.0041  0.0375 -0.0998
  327loPI   GL1 5221  14.494   0.719   9.826 -0.1958  0.0277  0.1203
  327loPI   GL2 5222  14.773   0.536   9.808  0.0198 -0.2203  0.2789
  327loPI   C1A 5223  14.275   0.632   9.428  0.2142 -0.1503  0.1920
  327loPI   C2A 5224  14.180   0.718   8.957  0.0006  0.0509  0.4592
  327loPI   C3A 5225  14.130   0.745   8.522  0.0662 -0.1652 -0.0829
  327loPI   C4A 5226  14.181   0.639   8.101 -0.1738  0.1470  0.0941
  327loPI   C5A 5227  14.249   0.498   7.664 -0.0300  0.2343  0.2892
  327loPI   C6A 5228  14.270   0.807   7.313 -0.1417 -0.2760  0.4360
  327loPI   C1B 5229  14.746   0.609   9.294  0.0976 -0.0533 -0.2030
  327loPI   C2B 5230  14.698   0.767   8.864  0.0553  0.2754  0.0050
  327loPI   C3B 5231  14.628   0.672   8.456 -0.3690 -0.1836 -0.1984
  327loPI   C4B 5232  14.678   0.567   8.011 -0.0672 -0.1328  0.0698
  328loPI    C1 5233   5.643   5.421  11.032 -0.2109 -0.0219 -0.1019
  328loPI    C2 5234   5.327   5.658  11.095 -0.0087  0.1946  0.1184
  328loPI    C3 5235   5.487   5.453  11.399 -0.0961 -0.1201 -0.0438
  328loPI   PO4 5236   5.710   5.497  10.797  0.3303 -0.2141 -0.1056
  328loPI   GL1 5237   5.607   5.375  10.418 -0.0441 -0.2176 -0.1194
  328loPI   GL2 5238   5.739   5.105  10.221  0.0449 -0.2348 -0.0363
  328loPI   C1A 5239   5.501   5.469  10.003  0.1099  0.0794 -0.0539
  328loPI   C2A 5240   5.515   5.645   9.544  0.0452  0.1435  0.0488
  328loPI   C3A 5241   5.626   5.700   9.139  0.1674 -0.0032  0.1890
  328loPI   C4A 5242   5.660   5.659   8.663  0.0247 -0.0115  0.0088
  328loPI   C5A 5243   5.571   5.401   8.251  0.0980 -0.2122  0.3532
  328loPI   C6A 5244   5.778   5.215   7.857  0.3559 -0.3596 -0.2187
  328loPI   C1B 5245   5.890   5.105   9.761 -0.4195 -0.1026  0.1084
  328loPI   C2B 5246   5.898   5.226   9.346  0.0133 -0.1570 -0.4083
  328loPI   C3B 5247   5.899   5.149   8.970 -0.2482 -0.4457  0.3027
  328loPI   C4B 5248   5.949   5.141   8.537 -0.1848  0.1316 -0.1705
  329loPI    C1 5249   6.044   6.894  11.106 -0.2237 -0.0135 -0.0647
  329loPI    C2 5250   5.730   6.679  11.231 -0.1184 -0.1270  0.0064
  329loPI    C3 5251   6.038   6.747  11.478 -0.2071  0.2159  0.0275
  329loPI   PO4 5252   5.878   6.976  10.889 -0.0041  0.0145  0.4089
  329loPI   GL1 5253   5.942   7.143  10.546 -0.0576 -0.1247 -0.0484
  329loPI   GL2 5254   5.976   6.824  10.403 -0.2315  0.1073  0.1985
  329loPI   C1A 5255   6.066   7.365  10.118 -0.3044 -0.1495 -0.2431
  329loPI   C2A 5256   6.011   7.435   9.717 -0.1983  0.1047  0.0534
  329loPI   C3A 5257   6.037   7.469   9.330  0.1179 -0.1193  0.1053
  329loPI   C4A 5258   6.064   7.549   8.912  0.0447 -0.2379  0.4578
  329loPI   C5A 5259   5.889   7.705   8.479 -0.0667  0.0926  0.1065
  329loPI   C6A 5260   6.138   8.040   8.258 -0.0056 -0.0003  0.0343
  329loPI   C1B 5261   5.809   6.907   9.957  0.2386  0.1311  0.1759
  329loPI   C2B 5262   5.813   7.027   9.553 -0.1424  0.0238  0.2794
  329loPI   C3B 5263   5.747   7.023   9.185 -0.1920 -0.2501 -0.0324
  329loPI   C4B 5264   5.778   7.067   8.797 -0.2836 -0.0824 -0.0032
  330loPI    C1 5265  10.137   9.561  10.778  0.1621  0.0533 -0.1083
  330loPI    C2 5266  10.243   9.846  11.039  0.0018 -0.1442  0.1776
  330loPI    C3 5267   9.950   9.589  11.130 -0.1321 -0.1495 -0.2444
  330loPI   PO4 5268  10.435   9.559  10.596 -0.4603  0.0311 -0.0187
  330loPI   GL1 5269  10.538   9.812  10.182  0.0701  0.0935 -0.1078
  330loPI   GL2 5270  10.853   9.879  10.088  0.0080  0.3332 -0.1639
  330loPI   C1A 5271  10.264   9.894   9.880  0.2515 -0.2141 -0.4894
  330loPI   C2A 5272  10.271   9.891   9.504 -0.1567  0.2404  0.0791
  330loPI   C3A 5273  10.279   9.901   9.039  0.1680 -0.0468  0.4372
  330loPI   C4A 5274  10.213   9.889   8.698  0.2159 -0.0181  0.3911
  330loPI   C5A 5275  10.311   9.856   8.359 -0.0306 -0.2981 -0.2091
  330loPI   C6A 5276  10.667   9.503   8.247 -0.2504  0.0123 -0.1154
  330loPI   C1B 5277  10.769   9.932   9.630 -0.2127 -0.1136 -0.1488
  330loPI   C2B 5278  10.738   9.961   9.214  0.1201 -0.0048 -0.2437
  330loPI   C3B 5279  10.788   9.908   8.796 -0.1289  0.2203 -0.1670
  330loPI   C4B 5280  10.900   9.935   8.316  0.0409 -0.0660 -0.2363
  331loPI    C1 5281   3.402  14.392  11.165  0.1143  0.1874 -0.2325
  331loPI    C2 5282   3.707  14.621  11.286  0.0275  0.0440  0.2792
  331loPI    C3 5283   3.391  14.564  11.526 -0.1908 -0.1890 -0.0552
  331loPI   PO4 5284   3.340  14.456  10.883  0.1771  0.1534  0.1388
  331loPI   GL1 5285   3.533  14.370  10.553  0.0985 -0.0731  0.0719
  331loPI   GL2 5286   3.701  14.666  10.379  0.1634 -0.2080 -0.0289
  331loPI   C1A 5287   3.469  14.419  10.027 -0.0961 -0.1278  0.3838
  331loPI   C2A 5288   3.613  14.445   9.663  0.0469 -0.0171 -0.0879
  331loPI   C3A 5289   3.548  14.398   9.215  0.0393  0.0905 -0.1123
  331loPI   C4A 5290   3.580  14.456   8.793 -0.0754 -0.2084 -0.0465
  331loPI   C5A 5291   3.337  14.571   8.503 -0.2259  0.0623  0.2249
  331loPI   C6A 5292   3.129  14.937   8.297 -0.0186  0.3509  0.3499
  331loPI   C1B 5293   3.836  14.891   9.971  0.1574  0.1500 -0.0949
  331loPI   C2B 5294   3.792  14.925   9.453  0.1775  0.3213 -0.1940
  331loPI   C3B 5295   3.803  14.910   8.985 -0.0099 -0.3523 -0.1809
  331loPI   C4B 5296   3.685  14.932   8.550  0.2171  0.1210  0.0718
  332loPI    C1 5297   6.971   5.411  11.067 -0.0384 -0.1287 -0.1777
  332loPI    C2 5298   6.605   5.557  11.138  0.0845  0.0653  0.0718
  332loPI    C3 5299   6.677   5.166  11.182 -0.1220  0.0067 -0.1003
  332loPI   PO4 5300   7.051   5.510  10.877  0.0512  0.2814  0.2392
  332loPI   GL1 5301   7.124   5.289  10.521  0.2166 -0.1225 -0.1724
  332loPI   GL2 5302   7.066   5.583  10.415 -0.2211  0.0647  0.2595
  332loPI   C1A 5303   6.917   5.256  10.066 -0.0975  0.1692 -0.0996
  332loPI   C2A 5304   6.929   5.188   9.676 -0.0349  0.0991  0.3226
  332loPI   C3A 5305   6.922   5.267   9.254  0.1158  0.2099  0.3371
  332loPI   C4A 5306   6.891   5.183   8.869  0.3132 -0.1493 -0.0089
  332loPI   C5A 5307   6.901   5.105   8.513 -0.0411  0.1229 -0.0895
  332loPI   C6A 5308   6.633   5.318   8.182 -0.1682 -0.0737 -0.1426
  332loPI   C1B 5309   7.179   5.690  10.032  0.1294  0.0583  0.0906
  332loPI   C2B 5310   7.220   5.679   9.590 -0.0876  0.2388  0.0277
  332loPI   C3B 5311   7.195   5.734   9.242 -0.2582  0.0358  0.1371
  332loPI   C4B 5312   7.114   5.790   8.817 -0.1646 -0.0534 -0.0222
  333loPI    C1 5313   4.792  17.532  11.065  0.0077 -0.0890  0.3990
  333loPI    C2 5314   4.782  17.847  11.311  0.0288  0.2619 -0.0369
  333loPI    C3 5315   4.451  17.734  11.118  0.0274  0.0279  0.0984
  333loPI   PO4 5316   5.063  17.638  10.813 -0.0048 -0.0705 -0.1028
  333loPI   GL1 5317   4.972  17.657  10.419 -0.1381  0.2928  0.0847
  333loPI   GL2 5318   4.779  17.434  10.446 -0.0908  0.3021 -0.1634
  333loPI   C1A 5319   5.219  17.714   9.974 -0.0743  0.1195  0.1635
  333loPI   C2A 5320   5.120  17.703   9.474 -0.0819  0.0649 -0.0845
  333loPI   C3A 5321   5.172  17.691   9.085  0.3185 -0.1426  0.1538
  333loPI   C4A 5322   5.129  17.740   8.704 -0.0340 -0.1615 -0.1511
  333loPI   C5A 5323   5.127  17.772   8.238 -0.2120 -0.1483  0.1714
  333loPI   C6A 5324   5.265  17.652   7.850  0.2506 -0.1618  0.0871
  333loPI   C1B 5325   4.672  17.537  10.003 -0.0725 -0.0039  0.1766
  333loPI   C2B 5326   4.619  17.625   9.559 -0.3125  0.0924  0.0643
  333loPI   C3B 5327   4.709  17.636   9.129 -0.3500 -0.2796  0.2095
  333loPI   C4B 5328   4.614  17.718   8.640 -0.0268  0.0989 -0.2845
  334loPI    C1 5329  15.933  14.073  10.879 -0.0060 -0.1811  0.0216
  334loPI    C2 5330  16.010  13.813  11.173  0.2559 -0.1303  0.0011
  334loPI    C3 5331  16.203  14.162  11.160  0.1372 -0.0691 -0.1493
  334loPI   PO4 5332  15.965  13.953  10.666 -0.1576  0.1785 -0.1338
  334loPI   GL1 5333  16.129  13.848  10.285  0.1604  0.1848  0.0026
  334loPI   GL2 5334  16.072  14.155  10.180 -0.1158 -0.3018  0.0798
  334loPI   C1A 5335  16.299  13.747   9.940  0.1088  0.3430  0.0236
  334loPI   C2A 5336  16.246  13.734   9.461 -0.0640 -0.0408 -0.0056
  334loPI   C3A 5337  16.103  13.784   9.039  0.1289  0.0073  0.2962
  334loPI   C4A 5338  16.191  13.775   8.576 -0.0372  0.0949  0.1766
  334loPI   C5A 5339  16.379  13.842   8.285  0.3348 -0.0309  0.2575
  334loPI   C6A 5340  16.579  13.722   8.055  0.2014  0.1820  0.1354
  334loPI   C1B 5341  15.990  14.188   9.662  0.3180 -0.0209  0.3868
  334loPI   C2B 5342  15.980  14.257   9.257 -0.1105 -0.1634  0.1659
  334loPI   C3B 5343  15.845  14.224   8.821 -0.0795 -0.3913 -0.2512
  334loPI   C4B 5344  15.900  14.238   8.405 -0.4423 -0.1979  0.0537
  335loPI    C1 5345   9.220   4.899  10.913 -0.0283 -0.0700  0.0424
  335loPI    C2 5346   9.256   4.586  11.159  0.0933 -0.0166  0.0932
  335loPI    C3 5347   9.214   4.955  11.309  0.0349  0.0008  0.0337
  335loPI   PO4 5348   9.231   4.832  10.696  0.0713 -0.0737  0.1097
  335loPI   GL1 5349   9.429   4.983  10.319  0.1594 -0.2381 -0.1225
  335loPI   GL2 5350   9.517   5.163  10.189  0.0662 -0.1393  0.1050
  335loPI   C1A 5351   9.263   4.784   9.972 -0.0851  0.0652 -0.0666
  335loPI   C2A 5352   9.245   4.896   9.554 -0.0344  0.2510  0.0058
  335loPI   C3A 5353   9.279   4.913   9.155 -0.0758 -0.1321  0.0028
  335loPI   C4A 5354   9.298   4.852   8.712 -0.0475 -0.3673 -0.0807
  335loPI   C5A 5355   9.361   4.860   8.239  0.1595 -0.1364 -0.1889
  335loPI   C6A 5356   9.465   4.540   7.929 -0.1872  0.0050 -0.1504
  335loPI   C1B 5357   9.554   5.410   9.941 -0.2144 -0.0053 -0.0046
  335loPI   C2B 5358   9.511   5.345   9.435 -0.1490  0.1384  0.0635
  335loPI   C3B 5359   9.547   5.383   8.935  0.1453  0.0802 -0.0800
  335loPI   C4B 5360   9.624   5.303   8.441 -0.0696  0.1532  0.2008
  336loPI    C1 5361  16.567   5.249  11.090 -0.1387  0.3690  0.0510
  336loPI    C2 5362  16.365   5.088  11.396 -0.1333 -0.1683 -0.2152
  336loPI    C3 5363  16.765   5.083  11.396 -0.1323 -0.1110 -0.2030
  336loPI   PO4 5364  16.499   5.184  10.869 -0.2860  0.1611  0.1106
  336loPI   GL1 5365  16.632   4.987  10.558  0.2353 -0.0695 -0.1035
  336loPI   GL2 5366  16.330   4.901  10.407  0.0247  0.1302 -0.0618
  336loPI   C1A 5367  16.634   5.138  10.074  0.1426  0.0363 -0.0455
  336loPI   C2A 5368  16.400   5.261   9.695 -0.1375 -0.0339  0.0136
  336loPI   C3A 5369  16.423   5.289   9.361 -0.1166 -0.3239 -0.0702
  336loPI   C4A 5370  16.344   5.319   8.980 -0.2178  0.0300  0.0640
  336loPI   C5A 5371  16.333   5.268   8.517  0.0094 -0.1605  0.0447
  336loPI   C6A 5372  16.233   5.347   8.111 -0.0701  0.0045  0.3377
  336loPI   C1B 5373  16.191   4.844  10.008 -0.2548 -0.3400 -0.0478
  336loPI   C2B 5374  16.206   4.857   9.518  0.1626 -0.1173  0.3730
  336loPI   C3B 5375  16.292   4.850   9.145 -0.2624  0.0686  0.0379
  336loPI   C4B 5376  16.139   4.857   8.742 -0.0402  0.0986  0.3357
  337loPI    C1 5377   2.139  12.353  11.256  0.1445  0.2335  0.0839
  337loPI    C2 5378   1.998  12.133  11.559 -0.1930  0.1563 -0.1249
  337loPI    C3 5379   1.836  12.490  11.478 -0.0599  0.2063 -0.1738
  337loPI   PO4 5380   2.133  12.161  11.053  0.3709  0.0326  0.2728
  337loPI   GL1 5381   2.042  12.115  10.659 -0.0164 -0.2692  0.2473
  337loPI   GL2 5382   2.326  12.079  10.602  0.0280 -0.0472 -0.1479
  337loPI   C1A 5383   1.841  12.120  10.303  0.0757 -0.1692  0.0264
  337loPI   C2A 5384   1.814  12.169   9.910 -0.3924 -0.3347  0.0362
  337loPI   C3A 5385   1.864  12.102   9.467 -0.3845 -0.0369 -0.1100
  337loPI   C4A 5386   1.818  12.063   9.022 -0.0812  0.0135 -0.0158
  337loPI   C5A 5387   1.718  12.044   8.638 -0.2356 -0.1339  0.3886
  337loPI   C6A 5388   1.590  11.877   8.254  0.0260  0.2116 -0.0789
  337loPI   C1B 5389   2.464  12.107  10.214 -0.0725  0.1479  0.2103
  337loPI   C2B 5390   2.334  12.161   9.840 -0.1981  0.1152 -0.3414
  337loPI   C3B 5391   2.389  12.160   9.398 -0.0378  0.3119  0.0589
  337loPI   C4B 5392   2.343  12.128   8.969  0.3158 -0.0226  0.2191
  338loPI    C1 5393   9.511   6.253  10.890  0.1604 -0.5592  0.1032
  338loPI    C2 5394   9.842   6.476  10.913 -0.0945 -0.1617  0.0182
  338loPI    C3 5395   9.721   6.264  11.230  0.2888 -0.3866  0.0196
  338loPI   PO4 5396   9.375   6.367  10.716 -0.0093  0.1883  0.1243
  338loPI   GL1 5397   9.280   6.452  10.355  0.1255 -0.2088 -0.2289
  338loPI   GL2 5398   9.169   6.635  10.215 -0.0675 -0.2626  0.1392
  338loPI   C1A 5399   9.468   6.293   9.901 -0.1862  0.2242 -0.2886
  338loPI   C2A 5400   9.423   6.309   9.561 -0.1166 -0.1779 -0.1184
  338loPI   C3A 5401   9.304   6.248   9.073  0.3355  0.0957 -0.2557
  338loPI   C4A 5402   9.475   6.326   8.707  0.1713 -0.1317  0.3098
  338loPI   C5A 5403   9.277   6.101   8.381 -0.0652 -0.0478 -0.2288
  338loPI   C6A 5404   9.499   5.754   8.187 -0.0874 -0.2924 -0.3101
  338loPI   C1B 5405   9.210   6.700   9.747  0.0054 -0.1103 -0.0774
  338loPI   C2B 5406   9.213   6.668   9.355  0.1798 -0.1632 -0.0590
  338loPI   C3B 5407   9.174   6.690   8.885 -0.0116  0.2978  0.1134
  338loPI   C4B 5408   9.006   6.526   8.488 -0.1792 -0.2760 -0.1694
  339loPI    C1 5409   1.181  12.083  11.330 -0.1632  0.1089 -0.0567
  339loPI    C2 5410   1.337  12.437  11.434  0.0258 -0.0298  0.1386
  339loPI    C3 5411   1.109  12.234  11.693 -0.2221  0.0249 -0.0332
  339loPI   PO4 5412   1.096  12.202  11.036  0.0762 -0.0305 -0.1501
  339loPI   GL1 5413   1.185  12.099  10.621 -0.0120  0.0881 -0.2593
  339loPI   GL2 5414   1.427  12.274  10.609 -0.0710  0.2368  0.2578
  339loPI   C1A 5415   1.322  12.048  10.166  0.2952 -0.1325  0.0408
  339loPI   C2A 5416   1.379  12.074   9.711  0.0327  0.0525 -0.1810
  339loPI   C3A 5417   1.377  12.069   9.246 -0.0043  0.0211  0.2046
  339loPI   C4A 5418   1.188  12.097   8.902 -0.1154 -0.1630 -0.2336
  339loPI   C5A 5419   1.287  12.204   8.525 -0.0427  0.0304  0.3658
  339loPI   C6A 5420   1.103  12.115   8.159  0.1946  0.0576 -0.0835
  339loPI   C1B 5421   1.567  12.530  10.178 -0.0249 -0.0429  0.4724
  339loPI   C2B 5422   1.620  12.673   9.826  0.0580 -0.0069  0.0464
  339loPI   C3B 5423   1.579  12.617   9.414  0.0894  0.1362 -0.0330
  339loPI   C4B 5424   1.562  12.466   9.008  0.0937 -0.0314 -0.1317
  340loPI    C1 5425   6.350   0.549  10.691 -0.1190  0.1944 -0.0405
  340loPI    C2 5426   6.605   0.494  10.994  0.2453  0.1992 -0.3391
  340loPI    C3 5427   6.284   0.727  11.043 -0.1346 -0.4135  0.2782
  340loPI   PO4 5428   6.378   0.558  10.446  0.3322  0.0900 -0.1973
  340loPI   GL1 5429   6.598   0.378  10.163 -0.2162  0.0968 -0.1979
  340loPI   GL2 5430   6.743   0.619  10.006  0.0573 -0.0394  0.1391
  340loPI   C1A 5431   6.457   0.165   9.875  0.0719 -0.1393  0.1764
  340loPI   C2A 5432   6.528   0.202   9.434 -0.0418  0.0189  0.0334
  340loPI   C3A 5433   6.449   0.087   8.988 -0.1215  0.1428 -0.4851
  340loPI   C4A 5434   6.422   0.179   8.538  0.2234  0.1442  0.2215
  340loPI   C5A 5435   6.236   0.308   8.182  0.0569 -0.2412  0.2264
  340loPI   C6A 5436   5.929   0.685   8.108 -0.0643  0.0196 -0.0927
  340loPI   C1B 5437   6.783   0.602   9.528  0.2435 -0.1697 -0.0694
  340loPI   C2B 5438   6.723   0.673   9.076 -0.0538 -0.1789 -0.3877
  340loPI   C3B 5439   6.679   0.521   8.745 -0.0432 -0.2334 -0.0788
  340loPI   C4B 5440   6.680   0.697   8.326  0.2050  0.2086  0.3531
  341loPI    C1 5441   0.998  17.720  10.953  0.1635  0.0505 -0.1940
  341loPI    C2 5442   1.361  17.759  10.792  0.3310  0.2044  0.2070
  341loPI    C3 5443   1.323  17.652  11.175 -0.0508  0.1217  0.1501
  341loPI   PO4 5444   0.825  17.852  10.760 -0.0396  0.0446  0.3112
  341loPI   GL1 5445   0.663  17.976  10.535  0.0038 -0.0395  0.0798
  341loPI   GL2 5446   0.410  18.024  10.358  0.0295 -0.2236  0.2360
  341loPI   C1A 5447   0.809  17.917  10.082 -0.0551  0.3239  0.3112
  341loPI   C2A 5448   0.751  17.945   9.683  0.2165  0.2216  0.1355
  341loPI   C3A 5449   0.743  17.966   9.307 -0.4314  0.1964  0.0287
  341loPI   C4A 5450   0.780  17.994   8.828 -0.0115  0.0693 -0.0312
  341loPI   C5A 5451   0.742  18.127   8.410 -0.0370  0.0526  0.0124
  341loPI   C6A 5452   0.870  18.429   8.118  0.2526 -0.1934 -0.1509
  341loPI   C1B 5453   0.312  17.857   9.983 -0.0756 -0.2503 -0.1387
  341loPI   C2B 5454   0.291  17.941   9.510  0.1799  0.1558 -0.2095
  341loPI   C3B 5455   0.269  17.853   9.079  0.0104 -0.2134 -0.0212
  341loPI   C4B 5456   0.210  18.008   8.750  0.2245  0.0423  0.0639
  342loPI    C1 5457   4.448  16.397  10.656 -0.0277 -0.1735 -0.1110
  342loPI    C2 5458   4.524  16.705  10.899 -0.1106 -0.0815 -0.2009
  342loPI    C3 5459   4.151  16.563  10.867 -0.0986 -0.0976 -0.2691
  342loPI   PO4 5460   4.689  16.289  10.548 -0.0562  0.0832 -0.0140
  342loPI   GL1 5461   4.599  16.249  10.084 -0.0085 -0.1262  0.1883
  342loPI   GL2 5462   4.681  16.552  10.020  0.2939  0.0188 -0.1471
  342loPI   C1A 5463   4.442  16.227   9.587 -0.2288 -0.2586 -0.1263
  342loPI   C2A 5464   4.407  16.380   9.100  0.1864  0.2194  0.1971
  342loPI   C3A 5465   4.481  16.398   8.741 -0.1169 -0.1069  0.1411
  342loPI   C4A 5466   4.562  16.406   8.232  0.0127 -0.1612 -0.0397
  342loPI   C5A 5467   4.400  16.610   7.755  0.2419  0.1359  0.4495
  342loPI   C6A 5468   4.415  17.100   7.824  0.2870 -0.0513 -0.0037
  342loPI   C1B 5469   4.689  16.661   9.513 -0.1126 -0.0404 -0.1737
  342loPI   C2B 5470   4.722  16.773   9.037  0.0718 -0.5136  0.0461
  342loPI   C3B 5471   4.676  16.838   8.664 -0.2059  0.2738 -0.1704
  342loPI   C4B 5472   4.716  16.942   8.291 -0.2642 -0.2089  0.1179
  343loPI    C1 5473   8.589   3.630  11.002  0.1625 -0.1980 -0.2123
  343loPI    C2 5474   8.823   3.780  11.291  0.1157 -0.2972 -0.1220
  343loPI    C3 5475   8.425   3.773  11.338  0.0828 -0.0133 -0.3282
  343loPI   PO4 5476   8.702   3.719  10.783  0.2997  0.0897  0.0958
  343loPI   GL1 5477   8.859   3.519  10.524  0.1440  0.0557 -0.1554
  343loPI   GL2 5478   8.459   3.329  10.423  0.1091 -0.0630 -0.0799
  343loPI   C1A 5479   8.817   3.844  10.191  0.0097  0.0017 -0.2772
  343loPI   C2A 5480   8.825   3.970   9.774 -0.0041  0.2646 -0.1438
  343loPI   C3A 5481   8.848   4.066   9.332  0.0130  0.2356  0.1623
  343loPI   C4A 5482   8.839   3.965   8.936 -0.0187  0.0299  0.2220
  343loPI   C5A 5483   8.809   3.933   8.498 -0.1253 -0.2292  0.2588
  343loPI   C6A 5484   8.720   3.874   8.022  0.0797  0.0406  0.2771
  343loPI   C1B 5485   8.647   3.445   9.961  0.1553 -0.2609 -0.2669
  343loPI   C2B 5486   8.637   3.593   9.568 -0.2887  0.0915  0.0036
  343loPI   C3B 5487   8.681   3.536   9.174 -0.1713  0.0227 -0.3080
  343loPI   C4B 5488   8.584   3.417   8.746  0.1220 -0.2368  0.2012
  344loPI    C1 5489   8.626  15.468  10.838 -0.2389  0.0061  0.1895
  344loPI    C2 5490   8.917  15.383  11.100 -0.1808 -0.1053  0.0899
  344loPI    C3 5491   8.764  15.752  11.083  0.1143  0.0153 -0.0128
  344loPI   PO4 5492   8.664  15.486  10.602 -0.2431 -0.2228  0.1439
  344loPI   GL1 5493   8.602  15.514  10.260 -0.0277 -0.0457  0.2600
  344loPI   GL2 5494   8.305  15.305  10.173  0.2556  0.0973  0.2051
  344loPI   C1A 5495   8.633  15.642   9.835 -0.1206  0.3977  0.2008
  344loPI   C2A 5496   8.678  15.655   9.283 -0.0927  0.2097 -0.0255
  344loPI   C3A 5497   8.550  15.771   8.860 -0.1848  0.1628 -0.1740
  344loPI   C4A 5498   8.659  15.640   8.514 -0.0232  0.1282  0.0102
  344loPI   C5A 5499   8.795  15.487   8.068 -0.3013  0.2140 -0.2495
  344loPI   C6A 5500   8.516  15.196   7.820 -0.1037 -0.0111 -0.2646
  344loPI   C1B 5501   8.420  15.185   9.726  0.2069 -0.0065 -0.1394
  344loPI   C2B 5502   8.458  15.150   9.258 -0.0289 -0.1126  0.1783
  344loPI   C3B 5503   8.422  15.216   8.834  0.4692 -0.1097  0.0858
  344loPI   C4B 5504   8.462  15.192   8.373 -0.0358  0.4175  0.0858
  345loPI    C1 5505  14.889  10.832  11.174 -0.0158  0.3235  0.1290
  345loPI    C2 5506  15.068  10.529  11.363 -0.0614 -0.0020 -0.3325
  345loPI    C3 5507  14.741  10.698  11.520  0.1800  0.0639  0.1153
  345loPI   PO4 5508  14.859  10.726  10.967 -0.0585 -0.1395  0.1176
  345loPI   GL1 5509  14.935  10.823  10.651  0.2200  0.1572 -0.0230
  345loPI   GL2 5510  14.986  10.515  10.432 -0.0562  0.1414  0.0279
  345loPI   C1A 5511  14.750  10.928  10.266  0.1463 -0.1990 -0.0905
  345loPI   C2A 5512  14.820  11.019   9.887 -0.0611 -0.0914 -0.1831
  345loPI   C3A 5513  14.815  11.070   9.386  0.1055 -0.1539  0.2416
  345loPI   C4A 5514  14.842  10.995   8.971 -0.1550 -0.1251 -0.0324
  345loPI   C5A 5515  14.767  11.043   8.503 -0.4418  0.0503 -0.1439
  345loPI   C6A 5516  14.374  11.185   8.286  0.1627  0.1385 -0.2598
  345loPI   C1B 5517  15.041  10.581  10.014  0.2139  0.0561 -0.0094
  345loPI   C2B 5518  15.014  10.647   9.514 -0.1402 -0.1878  0.2516
  345loPI   C3B 5519  15.043  10.580   9.078  0.2024  0.1279 -0.0329
  345loPI   C4B 5520  15.099  10.626   8.633 -0.1852  0.0576  0.0455
  346loPI    C1 5521   2.520  17.944  10.963 -0.1633 -0.0084  0.0938
  346loPI    C2 5522   2.251  18.128  11.195  0.0140  0.1009  0.2148
  346loPI    C3 5523   2.501  17.860  11.354 -0.0223  0.0001  0.1028
  346loPI   PO4 5524   2.462  17.981  10.704 -0.1915 -0.2057 -0.1916
  346loPI   GL1 5525   2.625  18.000  10.404 -0.1928  0.0435  0.1758
  346loPI   GL2 5526   2.856  18.175  10.225  0.3240  0.0423 -0.2955
  346loPI   C1A 5527   2.415  17.990  10.060 -0.0157 -0.0560  0.0827
  346loPI   C2A 5528   2.288  17.938   9.657  0.2656  0.1921 -0.1251
  346loPI   C3A 5529   2.292  18.023   9.204 -0.1262  0.1429  0.1678
  346loPI   C4A 5530   2.368  17.936   8.722  0.3757 -0.1943 -0.0224
  346loPI   C5A 5531   2.178  17.950   8.240  0.0529 -0.1333 -0.0819
  346loPI   C6A 5532   1.980  18.209   7.994  0.0466  0.0140  0.0894
  346loPI   C1B 5533   2.781  17.978   9.741  0.4003  0.0120 -0.0363
  346loPI   C2B 5534   2.899  18.009   9.307  0.0691 -0.0179 -0.1168
  346loPI   C3B 5535   2.823  18.065   8.894 -0.2310 -0.0603 -0.1205
  346loPI   C4B 5536   2.807  17.934   8.425 -0.2492 -0.1307  0.0639
  347loPI    C1 5537   5.029  14.695  11.108 -0.0745  0.0172  0.1281
  347loPI    C2 5538   5.029  14.306  11.200  0.0120 -0.0806 -0.2675
  347loPI    C3 5539   4.821  14.564  11.424 -0.1533 -0.3714 -0.0788
  347loPI   PO4 5540   5.003  14.635  10.857 -0.1731  0.1558 -0.0136
  347loPI   GL1 5541   4.932  14.468  10.408  0.0230 -0.2285  0.1980
  347loPI   GL2 5542   5.166  14.312  10.256  0.2524 -0.0391  0.2029
  347loPI   C1A 5543   4.577  14.466  10.131 -0.1858 -0.1652 -0.0236
  347loPI   C2A 5544   4.618  14.560   9.642  0.1914 -0.0429  0.1736
  347loPI   C3A 5545   4.517  14.496   9.339 -0.2832  0.2890  0.1003
  347loPI   C4A 5546   4.561  14.570   8.880 -0.1538  0.0923  0.1378
  347loPI   C5A 5547   4.614  14.494   8.400 -0.0317 -0.1986 -0.3119
  347loPI   C6A 5548   4.434  14.296   8.092  0.1254 -0.0407  0.1302
  347loPI   C1B 5549   5.063  14.466   9.910  0.1100  0.1089 -0.2434
  347loPI   C2B 5550   5.105  14.519   9.551  0.2689 -0.0297  0.3379
  347loPI   C3B 5551   5.000  14.556   9.222  0.0625 -0.1708  0.1431
  347loPI   C4B 5552   5.053  14.531   8.812  0.0913 -0.3863 -0.0026
  348loPI    C1 5553   6.053   3.548  10.898  0.0069 -0.0137 -0.0378
  348loPI    C2 5554   6.413   3.437  11.034  0.0724  0.1458 -0.0780
  348loPI    C3 5555   6.097   3.435  11.279  0.1120  0.0614 -0.0270
  348loPI   PO4 5556   6.101   3.503  10.631  0.1006 -0.1133  0.1659
  348loPI   GL1 5557   5.907   3.485  10.211  0.1370  0.1723  0.1727
  348loPI   GL2 5558   6.057   3.270   9.916 -0.1015  0.2656  0.0497
  348loPI   C1A 5559   5.738   3.705   9.801  0.1408 -0.1665 -0.2961
  348loPI   C2A 5560   5.690   3.834   9.373 -0.0010 -0.0675  0.0928
  348loPI   C3A 5561   5.694   3.804   8.987  0.2223 -0.0088 -0.0353
  348loPI   C4A 5562   5.768   3.852   8.552  0.0567 -0.0405 -0.1421
  348loPI   C5A 5563   5.920   3.738   8.159 -0.0573 -0.0427 -0.1528
  348loPI   C6A 5564   6.192   3.465   8.187  0.1401 -0.2169  0.0376
  348loPI   C1B 5565   6.011   3.421   9.425  0.0020  0.1701  0.1513
  348loPI   C2B 5566   5.957   3.332   9.020 -0.2763 -0.1565 -0.1862
  348loPI   C3B 5567   5.926   3.402   8.607  0.2980  0.3203  0.0073
  348loPI   C4B 5568   5.764   3.150   8.204 -0.4840  0.0038  0.2778
  349loPI    C1 5569   2.081   0.701  11.093 -0.0834  0.0299  0.1333
  349loPI    C2 5570   2.300   1.025  11.007  0.0716 -0.1237 -0.0631
  349loPI    C3 5571   2.290   0.884  11.381  0.2020 -0.0379 -0.0266
  349loPI   PO4 5572   1.890   0.709  10.894  0.2896 -0.1934 -0.0139
  349loPI   GL1 5573   1.771   0.630  10.457 -0.0044 -0.1776 -0.0868
  349loPI   GL2 5574   1.486   0.445  10.527 -0.2849 -0.3142 -0.0362
  349loPI   C1A 5575   1.901   0.662  10.030  0.0213  0.2880 -0.1735
  349loPI   C2A 5576   1.736   0.750   9.635 -0.0415 -0.0859  0.1056
  349loPI   C3A 5577   1.763   0.771   9.218 -0.1110  0.1569  0.0604
  349loPI   C4A 5578   1.791   0.821   8.782  0.1580 -0.0091 -0.2567
  349loPI   C5A 5579   1.639   0.572   8.410 -0.1500 -0.0803 -0.1080
  349loPI   C6A 5580   1.333   0.502   8.150 -0.0312  0.0257 -0.1372
  349loPI   C1B 5581   1.568   0.305  10.165 -0.1255  0.1217 -0.0613
  349loPI   C2B 5582   1.563   0.316   9.719 -0.3586  0.1498  0.2162
  349loPI   C3B 5583   1.521   0.343   9.233  0.0712  0.0470 -0.0975
  349loPI   C4B 5584   1.551   0.311   8.814 -0.1401  0.3998 -0.0300
  350loPI    C1 5585  10.915  17.221  10.450 -0.0820  0.0826  0.2963
  350loPI    C2 5586  11.126  17.394  10.742  0.1417 -0.0822  0.2350
  350loPI    C3 5587  11.083  16.996  10.735  0.0166 -0.0675  0.1225
  350loPI   PO4 5588  10.625  17.529  10.398  0.0298  0.0739 -0.0237
  350loPI   GL1 5589  10.238  17.576  10.167 -0.2405 -0.1083  0.1246
  350loPI   GL2 5590  10.064  17.771  10.095  0.2014  0.2899 -0.2442
  350loPI   C1A 5591  10.197  17.631   9.679 -0.0124  0.2315  0.1246
  350loPI   C2A 5592  10.062  17.523   9.271  0.1364 -0.0030 -0.0490
  350loPI   C3A 5593  10.069  17.601   8.878 -0.0947 -0.0771 -0.0993
  350loPI   C4A 5594  10.038  17.562   8.413  0.0183  0.0083 -0.2159
  350loPI   C5A 5595  10.071  17.713   8.013  0.1982 -0.0088  0.0611
  350loPI   C6A 5596  10.335  17.696   7.630  0.1483  0.0298 -0.0434
  350loPI   C1B 5597   9.906  18.002   9.810  0.2003  0.0187 -0.0824
  350loPI   C2B 5598   9.734  17.983   9.341 -0.1692 -0.3199  0.1289
  350loPI   C3B 5599   9.819  18.069   8.927  0.0269 -0.0519 -0.0863
  350loPI   C4B 5600   9.851  17.999   8.599  0.1185 -0.3148 -0.0397
  351loPI    C1 5601  11.577  13.701  10.942 -0.0378  0.0030  0.0562
  351loPI    C2 5602  11.683  13.329  10.839 -0.0145  0.0741 -0.1828
  351loPI    C3 5603  11.478  13.393  11.177  0.1062 -0.1390 -0.0670
  351loPI   PO4 5604  11.465  13.800  10.734  0.1455 -0.2004  0.1228
  351loPI   GL1 5605  11.540  13.902  10.291 -0.1790 -0.1305 -0.2820
  351loPI   GL2 5606  11.381  14.139  10.136 -0.2100 -0.2345 -0.1402
  351loPI   C1A 5607  11.660  13.605   9.942 -0.2033  0.1230  0.0446
  351loPI   C2A 5608  11.625  13.604   9.530  0.0357  0.0820  0.0245
  351loPI   C3A 5609  11.656  13.584   9.080 -0.1750 -0.2972 -0.3916
  351loPI   C4A 5610  11.617  13.607   8.692 -0.0372 -0.0120  0.0001
  351loPI   C5A 5611  11.707  13.592   8.274  0.1916  0.0688 -0.2023
  351loPI   C6A 5612  12.001  13.408   7.932 -0.2991 -0.1678  0.0687
  351loPI   C1B 5613  11.392  14.053   9.811 -0.0790  0.0184 -0.3288
  351loPI   C2B 5614  11.296  13.956   9.436  0.2401  0.1712 -0.3133
  351loPI   C3B 5615  11.286  14.089   9.028 -0.2690  0.1056 -0.2697
  351loPI   C4B 5616  11.291  14.024   8.482  0.0600 -0.0392 -0.0369
  352loPI    C1 5617  11.111   1.089  10.872 -0.2180  0.0952 -0.0108
  352loPI    C2 5618  11.197   1.120  11.261  0.0544 -0.0000 -0.0611
  352loPI    C3 5619  10.866   1.292  11.114 -0.0862 -0.0218  0.2232
  352loPI   PO4 5620  11.311   1.120  10.568 -0.0555 -0.1110 -0.0984
  352loPI   GL1 5621  11.304   1.069  10.161  0.1756 -0.1325 -0.2606
  352loPI   GL2 5622  11.667   1.171  10.117  0.0495  0.2426 -0.2644
  352loPI   C1A 5623  11.136   1.289   9.745 -0.0264 -0.0914  0.2332
  352loPI   C2A 5624  11.092   1.409   9.388  0.3128  0.2507 -0.0033
  352loPI   C3A 5625  11.091   1.345   8.985 -0.1656  0.1274 -0.0907
  352loPI   C4A 5626  11.011   1.336   8.584 -0.0521  0.3408  0.0622
  352loPI   C5A 5627  10.953   1.499   8.209  0.1723  0.1083  0.2267
  352loPI   C6A 5628  11.197   1.786   7.945  0.0842  0.0770  0.2296
  352loPI   C1B 5629  11.637   1.333   9.671 -0.0973 -0.0282  0.0972
  352loPI   C2B 5630  11.601   1.376   9.149 -0.2785 -0.0232  0.2395
  352loPI   C3B 5631  11.554   1.305   8.700 -0.1373  0.1449 -0.1480
  352loPI   C4B 5632  11.391   1.471   8.338 -0.0220  0.2123 -0.0834
  353loPI    C1 5633   3.575   1.956  10.630 -0.0962 -0.0341 -0.1101
  353loPI    C2 5634   3.383   1.941  10.981 -0.1316 -0.1186 -0.1327
  353loPI    C3 5635   3.516   1.604  10.811  0.0562 -0.0589 -0.1069
  353loPI   PO4 5636   3.411   2.081  10.490  0.2362 -0.1458  0.0346
  353loPI   GL1 5637   3.092   2.283  10.133  0.0433 -0.0725 -0.1553
  353loPI   GL2 5638   3.087   1.963  10.158  0.0735  0.0480  0.0474
  353loPI   C1A 5639   3.062   2.267   9.711  0.2538  0.0527 -0.2537
  353loPI   C2A 5640   3.214   2.136   9.287  0.0241 -0.1399 -0.1215
  353loPI   C3A 5641   3.442   2.212   8.822 -0.1687  0.0967  0.1494
  353loPI   C4A 5642   3.437   2.350   8.322  0.1228  0.0077  0.0466
  353loPI   C5A 5643   3.668   2.126   8.033  0.0527 -0.2599 -0.0204
  353loPI   C6A 5644   4.023   2.287   7.822  0.1089  0.3390 -0.0473
  353loPI   C1B 5645   3.164   1.787   9.782  0.3045  0.1350  0.0254
  353loPI   C2B 5646   3.216   1.653   9.338 -0.3001  0.0337  0.2764
  353loPI   C3B 5647   3.206   1.747   8.984  0.1430  0.1027 -0.0780
  353loPI   C4B 5648   3.276   1.850   8.585 -0.0229 -0.1647 -0.0805
  354loPI    C1 5649   7.488   1.940  11.034 -0.1187  0.0393  0.0442
  354loPI    C2 5650   7.220   2.197  11.183 -0.1047 -0.0026  0.1424
  354loPI    C3 5651   7.548   2.106  11.392  0.0606  0.1608 -0.0408
  354loPI   PO4 5652   7.559   2.124  10.757  0.1400  0.2681 -0.2986
  354loPI   GL1 5653   7.421   2.277  10.366 -0.1707 -0.0075 -0.0185
  354loPI   GL2 5654   7.643   2.440  10.153 -0.0741 -0.0568 -0.0883
  354loPI   C1A 5655   7.397   2.062   9.946 -0.0517 -0.0043 -0.2765
  354loPI   C2A 5656   7.477   2.070   9.590  0.0402  0.1099 -0.0878
  354loPI   C3A 5657   7.441   2.032   9.174 -0.0895 -0.1367  0.1389
  354loPI   C4A 5658   7.375   2.006   8.756  0.0164 -0.0768  0.3580
  354loPI   C5A 5659   7.386   2.039   8.326  0.0112  0.1077  0.1471
  354loPI   C6A 5660   7.623   2.230   7.966  0.3745 -0.1030  0.0936
  354loPI   C1B 5661   7.662   2.459   9.750  0.4311 -0.1871  0.1415
  354loPI   C2B 5662   7.650   2.539   9.307 -0.0962 -0.1543  0.0121
  354loPI   C3B 5663   7.664   2.540   8.884  0.0783 -0.1170 -0.1745
  354loPI   C4B 5664   7.544   2.511   8.401  0.0335 -0.1212 -0.0613
  355loPI    C1 5665  13.925   1.297  10.463 -0.1068  0.0166 -0.0868
  355loPI    C2 5666  13.575   1.243  10.649 -0.0531  0.0270  0.0176
  355loPI    C3 5667  13.905   1.063  10.787 -0.0149  0.0270 -0.0734
  355loPI   PO4 5668  13.890   1.287  10.206  0.0878 -0.1240  0.0745
  355loPI   GL1 5669  13.743   1.523   9.856 -0.0142  0.3887  0.1658
  355loPI   GL2 5670  13.951   1.726   9.970 -0.2399 -0.2267  0.1515
  355loPI   C1A 5671  13.717   1.587   9.475  0.0315  0.1425  0.2770
  355loPI   C2A 5672  13.572   1.575   9.090  0.1401  0.1852 -0.1656
  355loPI   C3A 5673  13.636   1.590   8.653  0.0902  0.2067 -0.0747
  355loPI   C4A 5674  13.689   1.507   8.200 -0.3077  0.1872  0.0114
  355loPI   C5A 5675  13.874   1.542   7.834  0.1963 -0.1090 -0.1278
  355loPI   C6A 5676  13.924   1.084   7.549  0.0705 -0.0085 -0.4126
  355loPI   C1B 5677  13.926   1.999   9.662  0.1845 -0.0143 -0.0768
  355loPI   C2B 5678  13.819   2.009   9.229 -0.0338 -0.2711 -0.1728
  355loPI   C3B 5679  13.796   1.967   8.870  0.1075 -0.0806  0.1756
  355loPI   C4B 5680  13.824   2.038   8.447 -0.0414 -0.1466  0.0309
  356loPI    C1 5681   7.643   8.627  11.062  0.0399 -0.1794  0.0140
  356loPI    C2 5682   7.862   8.814  11.338 -0.2104  0.2349 -0.0593
  356loPI    C3 5683   7.557   8.581  11.450 -0.0080  0.0064  0.0261
  356loPI   PO4 5684   7.687   8.821  10.839  0.1639 -0.2627  0.3316
  356loPI   GL1 5685   7.546   8.903  10.363 -0.0089 -0.1038 -0.0316
  356loPI   GL2 5686   7.827   9.013  10.163 -0.0724  0.2010 -0.0577
  356loPI   C1A 5687   7.338   8.873  10.051  0.1214 -0.0324  0.3966
  356loPI   C2A 5688   7.255   8.849   9.613  0.1264 -0.0417 -0.0426
  356loPI   C3A 5689   7.177   8.960   9.118  0.1144  0.3096 -0.2029
  356loPI   C4A 5690   7.222   8.975   8.632  0.2729 -0.1406 -0.1207
  356loPI   C5A 5691   7.226   8.944   8.173 -0.0605 -0.2850 -0.0300
  356loPI   C6A 5692   7.178   9.293   7.942  0.0243  0.0751  0.1342
  356loPI   C1B 5693   7.740   8.850   9.752  0.1335 -0.0826 -0.3159
  356loPI   C2B 5694   7.649   8.803   9.375 -0.1214  0.0612 -0.2158
  356loPI   C3B 5695   7.732   8.921   9.040 -0.0361  0.2784  0.0173
  356loPI   C4B 5696   7.682   9.036   8.582 -0.0569 -0.1381  0.1300
  357loPI    C1 5697  13.973   6.372  10.884  0.0284  0.0308 -0.0700
  357loPI    C2 5698  14.348   6.433  11.008  0.1895 -0.3676 -0.3412
  357loPI    C3 5699  14.135   6.130  11.158 -0.0077 -0.1780 -0.2312
  357loPI   PO4 5700  13.977   6.322  10.623 -0.0145 -0.0551 -0.2626
  357loPI   GL1 5701  13.687   6.570  10.300 -0.1433 -0.0541  0.1996
  357loPI   GL2 5702  13.988   6.522  10.127  0.0418  0.0148 -0.1226
  357loPI   C1A 5703  13.613   6.509   9.836 -0.3554 -0.3423  0.1748
  357loPI   C2A 5704  13.617   6.540   9.357 -0.2408 -0.2677  0.3074
  357loPI   C3A 5705  13.620   6.539   8.923 -0.0201  0.0657  0.1051
  357loPI   C4A 5706  13.591   6.469   8.519 -0.0770  0.1815 -0.0571
  357loPI   C5A 5707  13.529   6.411   8.079  0.0425  0.2615  0.1470
  357loPI   C6A 5708  13.187   6.576   7.831 -0.2002 -0.0086  0.0120
  357loPI   C1B 5709  14.073   6.578   9.770 -0.0066  0.0817  0.2568
  357loPI   C2B 5710  14.111   6.620   9.199 -0.0720  0.0697 -0.0523
  357loPI   C3B 5711  14.096   6.409   8.910  0.0951 -0.2497 -0.3542
  357loPI   C4B 5712  14.075   6.541   8.486 -0.1667  0.0082 -0.0066
  358loPI    C1 5713   4.587  15.350  11.073  0.0141 -0.0950 -0.1060
  358loPI    C2 5714   4.195  15.366  11.151  0.0392  0.3424 -0.0445
  358loPI    C3 5715   4.423  15.691  11.202  0.3640  0.1665 -0.3326
  358loPI   PO4 5716   4.572  15.315  10.791  0.0991  0.0866 -0.2769
  358loPI   GL1 5717   4.779  15.396  10.379  0.1811 -0.0343  0.0771
  358loPI   GL2 5718   4.857  15.149  10.323  0.2290  0.2820 -0.2159
  358loPI   C1A 5719   4.579  15.473  10.059  0.0200  0.1907 -0.2429
  358loPI   C2A 5720   4.520  15.463   9.694 -0.1635 -0.0963 -0.4002
  358loPI   C3A 5721   4.457  15.437   9.273  0.3830 -0.4492  0.2017
  358loPI   C4A 5722   4.493  15.453   8.798  0.0838  0.1421 -0.1400
  358loPI   C5A 5723   4.414  15.503   8.427 -0.0367  0.2212  0.2323
  358loPI   C6A 5724   4.388  15.240   8.035  0.3954  0.0647  0.3659
  358loPI   C1B 5725   4.873  14.961   9.997 -0.1264 -0.0227 -0.0564
  358loPI   C2B 5726   4.766  15.037   9.422  0.1907  0.1460 -0.1273
  358loPI   C3B 5727   4.762  15.023   8.980 -0.1517  0.0225  0.0299
  358loPI   C4B 5728   4.742  15.061   8.507  0.2640  0.2794 -0.0715
  359loPI    C1 5729  10.103  13.032  11.181 -0.1088 -0.2039  0.0746
  359loPI    C2 5730  10.108  13.421  11.273 -0.0915 -0.1807 -0.0229
  359loPI    C3 5731   9.894  13.166  11.494 -0.1196 -0.1127  0.0287
  359loPI   PO4 5732  10.328  13.011  10.958 -0.1222  0.0967 -0.2485
  359loPI   GL1 5733  10.182  12.812  10.538  0.2900 -0.0688  0.0610
  359loPI   GL2 5734  10.373  13.072  10.382  0.0774  0.0968 -0.0272
  359loPI   C1A 5735  10.151  12.722  10.119 -0.2758 -0.0712  0.0684
  359loPI   C2A 5736  10.148  12.665   9.790  0.0166  0.2154 -0.1415
  359loPI   C3A 5737  10.097  12.656   9.340  0.1433 -0.1580 -0.0375
  359loPI   C4A 5738  10.082  12.577   8.921  0.3812  0.1959  0.3105
  359loPI   C5A 5739  10.070  12.805   8.525 -0.3132  0.0955 -0.1089
  359loPI   C6A 5740  10.133  13.098   8.221  0.1288 -0.2745  0.3045
  359loPI   C1B 5741  10.375  13.136  10.024  0.0040  0.1124  0.0264
  359loPI   C2B 5742  10.405  13.042   9.606  0.3840 -0.0994 -0.3380
  359loPI   C3B 5743  10.363  13.122   9.244 -0.2118  0.2122 -0.3070
  359loPI   C4B 5744  10.352  13.015   8.862  0.2779  0.1617 -0.0320
  360loPI    C1 5745   6.072  16.334  10.653  0.1280 -0.1148 -0.1745
  360loPI    C2 5746   5.962  16.181  11.006 -0.1217  0.0277 -0.1884
  360loPI    C3 5747   6.288  16.412  10.981  0.0830 -0.2479 -0.1128
  360loPI   PO4 5748   5.981  16.297  10.500 -0.0787  0.0694 -0.1089
  360loPI   GL1 5749   5.622  16.228  10.224  0.0963 -0.2367  0.4149
  360loPI   GL2 5750   5.814  15.962  10.161 -0.3442  0.1246  0.0425
  360loPI   C1A 5751   5.608  16.264   9.779  0.1290 -0.0662  0.0496
  360loPI   C2A 5752   5.583  16.311   9.471 -0.5825 -0.0300 -0.0592
  360loPI   C3A 5753   5.470  16.375   9.081 -0.2187  0.1090 -0.0898
  360loPI   C4A 5754   5.469  16.426   8.619  0.2764  0.1767  0.2516
  360loPI   C5A 5755   5.593  16.366   8.139  0.1337 -0.0026 -0.1831
  360loPI   C6A 5756   5.644  16.156   7.738 -0.3092  0.0152 -0.1752
  360loPI   C1B 5757   5.801  15.852   9.668 -0.1340 -0.1495  0.0392
  360loPI   C2B 5758   5.752  15.829   9.235 -0.1445  0.0527 -0.1642
  360loPI   C3B 5759   5.782  15.884   8.855  0.0216  0.0390  0.1960
  360loPI   C4B 5760   5.712  16.020   8.428 -0.0620 -0.4151  0.2512
  361loPI    C1 5761   9.402  15.208  11.140  0.0299  0.1516  0.0312
  361loPI    C2 5762   9.134  14.968  11.315  0.1242  0.0442  0.0294
  361loPI    C3 5763   9.266  15.294  11.506  0.1703 -0.0317  0.1281
  361loPI   PO4 5764   9.380  15.292  10.908  0.0535  0.3071 -0.1595
  361loPI   GL1 5765   9.308  15.243  10.490  0.4541  0.0353 -0.1465
  361loPI   GL2 5766   9.130  15.406  10.301  0.0059 -0.1334 -0.0770
  361loPI   C1A 5767   9.178  14.932  10.192 -0.2154 -0.2024 -0.0209
  361loPI   C2A 5768   9.248  14.845   9.745  0.0967  0.1097 -0.0866
  361loPI   C3A 5769   9.261  14.796   9.381 -0.1398 -0.0617 -0.3218
  361loPI   C4A 5770   9.245  14.805   9.000 -0.0826  0.2526 -0.0592
  361loPI   C5A 5771   9.187  14.858   8.542  0.1487  0.0366  0.2378
  361loPI   C6A 5772   8.849  14.801   8.263  0.2875  0.2903 -0.1577
  361loPI   C1B 5773   9.023  15.322   9.962 -0.0768 -0.6157 -0.0544
  361loPI   C2B 5774   8.931  15.221   9.544 -0.3355  0.0477 -0.2540
  361loPI   C3B 5775   8.919  15.223   9.039  0.1387 -0.2379  0.0145
  361loPI   C4B 5776   8.866  15.198   8.677 -0.3494  0.2674 -0.2387
  362loPI    C1 5777  15.382  14.776  10.714 -0.0043  0.1033 -0.0833
  362loPI    C2 5778  15.542  14.454  10.890  0.0175  0.0888 -0.1295
  362loPI    C3 5779  15.278  14.680  11.089  0.0703  0.0937 -0.0649
  362loPI   PO4 5780  15.377  14.732  10.502  0.2567  0.2747 -0.1530
  362loPI   GL1 5781  15.604  14.764  10.109  0.3316 -0.2296 -0.0302
  362loPI   GL2 5782  15.808  14.552   9.980 -0.1600 -0.1440  0.3644
  362loPI   C1A 5783  15.483  15.109   9.796  0.1239 -0.3992 -0.0917
  362loPI   C2A 5784  15.352  15.101   9.384 -0.1734 -0.5714  0.0137
  362loPI   C3A 5785  15.448  15.077   8.933 -0.0562 -0.0652  0.0821
  362loPI   C4A 5786  15.406  15.081   8.514  0.0588 -0.2017 -0.0849
  362loPI   C5A 5787  15.566  15.176   8.135 -0.1229 -0.0453 -0.1048
  362loPI   C6A 5788  15.606  15.100   7.620 -0.1272 -0.1311 -0.2249
  362loPI   C1B 5789  15.665  14.690   9.569  0.2359  0.2910 -0.0619
  362loPI   C2B 5790  15.681  14.609   9.091 -0.1033 -0.0464 -0.1143
  362loPI   C3B 5791  15.655  14.711   8.609 -0.1823  0.0560 -0.3189
  362loPI   C4B 5792  15.726  14.683   8.111 -0.0707  0.0089 -0.0538
  363loPI    C1 5793   0.949  10.784  11.222  0.1658 -0.0003  0.1830
  363loPI    C2 5794   0.604  10.934  11.357  0.2730  0.2822  0.1508
  363loPI    C3 5795   0.858  10.757  11.611 -0.1144 -0.3880  0.0966
  363loPI   PO4 5796   0.896  10.643  10.929  0.0249 -0.0220  0.0900
  363loPI   GL1 5797   0.849  10.560  10.475  0.0720 -0.1007  0.3693
  363loPI   GL2 5798   0.690  10.690  10.124  0.0950 -0.0489 -0.0243
  363loPI   C1A 5799   1.142  10.738  10.168 -0.1881  0.0523 -0.1047
  363loPI   C2A 5800   1.229  10.714   9.746  0.2596  0.1676  0.0054
  363loPI   C3A 5801   1.273  10.753   9.279  0.0627  0.3063 -0.1297
  363loPI   C4A 5802   1.231  10.792   8.844 -0.1066 -0.3071 -0.3922
  363loPI   C5A 5803   1.335  10.921   8.526 -0.0893 -0.0167 -0.2102
  363loPI   C6A 5804   1.223  10.721   8.106 -0.0770 -0.0642  0.0770
  363loPI   C1B 5805   0.713  10.696   9.694 -0.3752  0.1389 -0.3244
  363loPI   C2B 5806   0.684  10.732   9.311  0.0483 -0.1014  0.0839
  363loPI   C3B 5807   0.618  10.782   8.927 -0.1508  0.1101 -0.0063
  363loPI   C4B 5808   0.803  10.769   8.522 -0.1515  0.1289  0.2849
  364loPI    C1 5809  15.496   1.295  10.822 -0.3628  0.1082 -0.0398
  364loPI    C2 5810  15.591   1.515  11.142 -0.0422 -0.0482 -0.0224
  364loPI    C3 5811  15.295   1.247  11.164 -0.1781  0.1074  0.0705
  364loPI   PO4 5812  15.768   1.365  10.657 -0.1468 -0.1053  0.1324
  364loPI   GL1 5813  15.747   1.558  10.247 -0.1076  0.4767 -0.0490
  364loPI   GL2 5814  15.808   1.903  10.178 -0.2363 -0.2746 -0.3215
  364loPI   C1A 5815  15.684   1.597   9.854  0.4692  0.2407 -0.1322
  364loPI   C2A 5816  15.750   1.567   9.450 -0.0722 -0.0818  0.1395
  364loPI   C3A 5817  15.852   1.594   8.980 -0.1304  0.0127 -0.2363
  364loPI   C4A 5818  15.648   1.624   8.581 -0.0706  0.1315 -0.1518
  364loPI   C5A 5819  15.653   1.649   8.105  0.0302 -0.0016 -0.1006
  364loPI   C6A 5820  15.275   1.580   7.795  0.3830 -0.2486  0.6285
  364loPI   C1B 5821  15.960   2.088   9.786 -0.0702 -0.1293 -0.2861
  364loPI   C2B 5822  15.912   2.065   9.253 -0.2951 -0.0589  0.2146
  364loPI   C3B 5823  15.988   2.059   8.840 -0.1452 -0.0659  0.1420
  364loPI   C4B 5824  16.003   2.266   8.396  0.0263  0.2837  0.0405
  365loPI    C1 5825  17.340   6.800  10.811  0.0529  0.0348  0.0035
  365loPI    C2 5826  17.215   6.958  11.157  0.1983 -0.0335  0.0888
  365loPI    C3 5827  17.414   6.612  11.157 -0.0878 -0.2020 -0.0932
  365loPI   PO4 5828  17.169   6.949  10.565  0.0588  0.1650 -0.0317
  365loPI   GL1 5829  16.836   7.200  10.383 -0.2128 -0.2682  0.1521
  365loPI   GL2 5830  16.961   6.998  10.119  0.1589  0.0998 -0.0176
  365loPI   C1A 5831  16.623   7.395  10.099 -0.0067  0.0675 -0.1469
  365loPI   C2A 5832  16.633   7.568   9.605 -0.0954 -0.2284 -0.2260
  365loPI   C3A 5833  16.583   7.584   9.137 -0.1549  0.0358  0.0681
  365loPI   C4A 5834  16.570   7.545   8.722 -0.1765  0.1602  0.0599
  365loPI   C5A 5835  16.548   7.553   8.307 -0.0521 -0.1955 -0.0774
  365loPI   C6A 5836  16.808   7.419   8.020 -0.2625  0.2783 -0.1321
  365loPI   C1B 5837  16.858   7.098   9.641 -0.0709  0.1188 -0.2457
  365loPI   C2B 5838  16.810   7.176   9.198  0.0063  0.0186 -0.1532
  365loPI   C3B 5839  16.883   7.184   8.700 -0.0020 -0.1409 -0.0728
  365loPI   C4B 5840  16.822   7.022   8.361  0.0924  0.0997 -0.2180
  366loPI    C1 5841  15.239  17.694  10.687 -0.1001  0.0565 -0.1081
  366loPI    C2 5842  15.293  18.060  10.839 -0.0497  0.0708 -0.1601
  366loPI    C3 5843  15.349  17.738  11.069 -0.3555  0.1021 -0.0378
  366loPI   PO4 5844  15.352  17.673  10.434 -0.0467  0.0767 -0.1598
  366loPI   GL1 5845  15.412  17.801  10.022  0.0147  0.2630 -0.0056
  366loPI   GL2 5846  15.228  17.487   9.949  0.1060 -0.2801 -0.3310
  366loPI   C1A 5847  15.324  17.742   9.540  0.0090 -0.0976 -0.0272
  366loPI   C2A 5848  15.358  17.786   9.155 -0.1180  0.0941  0.0426
  366loPI   C3A 5849  15.333  17.927   8.785  0.2453  0.2540  0.0921
  366loPI   C4A 5850  15.215  17.908   8.371 -0.1191  0.2422 -0.1451
  366loPI   C5A 5851  15.354  17.707   8.085 -0.0341 -0.1113 -0.1142
  366loPI   C6A 5852  15.599  17.530   7.737  0.4457 -0.1133  0.0822
  366loPI   C1B 5853  15.583  17.323   9.776  0.1057 -0.3889 -0.3352
  366loPI   C2B 5854  15.645  17.364   9.370  0.1478  0.0013 -0.1423
  366loPI   C3B 5855  15.619  17.450   8.926  0.1606  0.0611  0.1301
  366loPI   C4B 5856  15.505  17.477   8.484  0.0013  0.0351  0.1066
  367loPI    C1 5857  13.395   3.839  10.958  0.1172  0.1911  0.0137
  367loPI    C2 5858  13.531   3.507  11.135  0.0465  0.2145  0.1121
  367loPI    C3 5859  13.278   3.749  11.330  0.0079  0.2666 -0.0020
  367loPI   PO4 5860  13.365   3.782  10.704  0.0322  0.2649 -0.2066
  367loPI   GL1 5861  13.431   3.797  10.268 -0.1344 -0.0343 -0.3222
  367loPI   GL2 5862  13.144   3.857  10.112 -0.0937  0.0331 -0.0842
  367loPI   C1A 5863  13.727   3.834   9.934  0.0763  0.0501 -0.1150
  367loPI   C2A 5864  13.765   3.872   9.524  0.1794  0.2198 -0.3367
  367loPI   C3A 5865  13.720   3.762   9.071 -0.0061  0.2565 -0.1839
  367loPI   C4A 5866  13.736   3.693   8.707 -0.1885 -0.0967  0.2164
  367loPI   C5A 5867  13.788   3.775   8.200 -0.1021  0.2610 -0.3139
  367loPI   C6A 5868  13.431   3.839   7.937  0.2246 -0.0079  0.1031
  367loPI   C1B 5869  13.283   3.865   9.681  0.0199  0.1417  0.1544
  367loPI   C2B 5870  13.237   3.731   9.206 -0.0367  0.0733 -0.2863
  367loPI   C3B 5871  13.156   3.732   8.797  0.1653  0.0475 -0.0733
  367loPI   C4B 5872  13.326   3.772   8.468 -0.1963  0.1070  0.1119
  368loPI    C1 5873   6.528   6.065  11.177  0.0526 -0.0106 -0.0241
  368loPI    C2 5874   6.369   6.259  11.489  0.1278  0.1917 -0.1100
  368loPI    C3 5875   6.762   6.283  11.417  0.2070 -0.3189  0.1104
  368loPI   PO4 5876   6.358   6.129  10.893  0.1918  0.0853 -0.0331
  368loPI   GL1 5877   6.401   6.154  10.465 -0.1274 -0.0083  0.0889
  368loPI   GL2 5878   6.508   6.476  10.418  0.4749  0.0376  0.3011
  368loPI   C1A 5879   6.311   5.988  10.060  0.0030 -0.0302 -0.1229
  368loPI   C2A 5880   6.367   6.094   9.614  0.2496  0.1972  0.1735
  368loPI   C3A 5881   6.314   6.099   9.124 -0.0272 -0.3385  0.0146
  368loPI   C4A 5882   6.360   6.147   8.760 -0.1772  0.1826 -0.2294
  368loPI   C5A 5883   6.405   6.288   8.393  0.3508  0.0661 -0.4230
  368loPI   C6A 5884   6.150   6.366   8.128 -0.2881 -0.2758  0.0462
  368loPI   C1B 5885   6.622   6.444  10.023 -0.1622  0.2874 -0.0924
  368loPI   C2B 5886   6.557   6.576   9.628  0.2358  0.0153  0.2782
  368loPI   C3B 5887   6.539   6.560   9.200 -0.1773 -0.1560 -0.3058
  368loPI   C4B 5888   6.575   6.585   8.793  0.0993  0.0458 -0.0743
  369loPI    C1 5889   7.931   4.800  11.176  0.0382  0.0331  0.1416
  369loPI    C2 5890   7.548   4.768  11.286  0.0276  0.1817  0.1496
  369loPI    C3 5891   7.810   4.954  11.525  0.1059  0.0756  0.1466
  369loPI   PO4 5892   7.907   4.925  10.884  0.0498 -0.4243  0.1273
  369loPI   GL1 5893   7.957   4.797  10.492  0.2975 -0.1125  0.0992
  369loPI   GL2 5894   8.247   4.700  10.342 -0.1203 -0.0401 -0.0367
  369loPI   C1A 5895   7.724   4.781  10.152 -0.2061 -0.0149  0.0122
  369loPI   C2A 5896   7.748   4.802   9.694 -0.1000 -0.0798 -0.0850
  369loPI   C3A 5897   7.772   4.810   9.246 -0.1936 -0.2554 -0.0102
  369loPI   C4A 5898   7.728   4.734   8.904 -0.2639  0.2204 -0.1305
  369loPI   C5A 5899   7.686   4.801   8.522 -0.1571 -0.0413 -0.0448
  369loPI   C6A 5900   7.505   5.173   8.322  0.0444 -0.0312  0.0110
  369loPI   C1B 5901   8.321   4.837  10.014 -0.0763 -0.1525 -0.3439
  369loPI   C2B 5902   8.241   4.892   9.582  0.2434 -0.2475 -0.1045
  369loPI   C3B 5903   8.248   4.748   9.182 -0.2589  0.1262 -0.0321
  369loPI   C4B 5904   8.174   4.816   8.765 -0.3089  0.0267 -0.0841
  370loPI    C1 5905  14.581   6.959  10.928  0.2713 -0.0819 -0.1580
  370loPI    C2 5906  14.621   7.263  11.185 -0.1555 -0.1287 -0.0286
  370loPI    C3 5907  14.848   6.936  11.225  0.0788  0.0383  0.0272
  370loPI   PO4 5908  14.634   6.988  10.687 -0.1666  0.0675 -0.0427
  370loPI   GL1 5909  14.874   6.961  10.251  0.3230  0.0277  0.0154
  370loPI   GL2 5910  15.043   6.710  10.366 -0.1984 -0.0070  0.0703
  370loPI   C1A 5911  14.815   6.965   9.820 -0.0512  0.0016 -0.2264
  370loPI   C2A 5912  14.812   7.024   9.381 -0.1030  0.0753 -0.0465
  370loPI   C3A 5913  14.804   7.028   8.979  0.0467  0.0659 -0.0942
  370loPI   C4A 5914  14.867   6.920   8.503  0.2300 -0.3035  0.1188
  370loPI   C5A 5915  15.062   7.035   8.092  0.2838 -0.0840 -0.1507
  370loPI   C6A 5916  15.539   7.143   7.825  0.2353  0.0699 -0.1435
  370loPI   C1B 5917  15.063   6.583   9.989 -0.1653 -0.0397 -0.0595
  370loPI   C2B 5918  15.111   6.616   9.548  0.1478 -0.1525  0.0780
  370loPI   C3B 5919  15.073   6.629   9.082 -0.3518  0.0171  0.0360
  370loPI   C4B 5920  15.067   6.511   8.714 -0.0364 -0.4071 -0.0682
  371loPI    C1 5921  16.706   3.163  11.027 -0.0442 -0.1231  0.1233
  371loPI    C2 5922  16.832   2.786  11.072  0.2107 -0.0435  0.0933
  371loPI    C3 5923  17.027   3.084  11.253  0.1694  0.1001 -0.0964
  371loPI   PO4 5924  16.598   3.075  10.682  0.0956 -0.2257  0.0804
  371loPI   GL1 5925  16.703   3.083  10.276  0.2528 -0.2603 -0.2333
  371loPI   GL2 5926  16.571   2.780  10.227  0.0898  0.2144 -0.3855
  371loPI   C1A 5927  16.729   3.409   9.939 -0.1416  0.0544 -0.1014
  371loPI   C2A 5928  16.722   3.401   9.430  0.1616  0.1114  0.0084
  371loPI   C3A 5929  16.693   3.501   9.033 -0.0972 -0.3144  0.1148
  371loPI   C4A 5930  16.571   3.634   8.641 -0.0600  0.1052 -0.0526
  371loPI   C5A 5931  16.690   3.599   8.287  0.0581 -0.1577 -0.1310
  371loPI   C6A 5932  16.559   3.287   7.913 -0.2934 -0.2562  0.3003
  371loPI   C1B 5933  16.501   2.989   9.805  0.1939  0.0251 -0.0273
  371loPI   C2B 5934  16.357   2.958   9.416 -0.4381 -0.1066 -0.0636
  371loPI   C3B 5935  16.388   3.081   9.019 -0.5806  0.1095 -0.2114
  371loPI   C4B 5936  16.418   3.129   8.560  0.1884  0.1010  0.0745
  372loPI    C1 5937  16.460   6.632  11.088 -0.1712 -0.3272 -0.1077
  372loPI    C2 5938  16.787   6.699  10.868 -0.2841 -0.2308 -0.2486
  372loPI    C3 5939  16.813   6.485  11.205  0.0369  0.2788  0.0626
  372loPI   PO4 5940  16.277   6.545  10.851 -0.0562 -0.2918 -0.0536
  372loPI   GL1 5941  16.226   6.528  10.412  0.0574  0.2361 -0.0137
  372loPI   GL2 5942  15.952   6.372  10.343 -0.0294  0.1710 -0.0332
  372loPI   C1A 5943  16.157   6.541   9.869 -0.3115  0.0351  0.3070
  372loPI   C2A 5944  16.176   6.689   9.390 -0.1127  0.2849 -0.1559
  372loPI   C3A 5945  16.041   6.571   8.945  0.1250 -0.0867 -0.0001
  372loPI   C4A 5946  16.033   6.610   8.525  0.4461  0.1364  0.1474
  372loPI   C5A 5947  16.026   6.625   8.075  0.0272  0.1174  0.2265
  372loPI   C6A 5948  15.889   6.260   7.633 -0.1863  0.2573 -0.2514
  372loPI   C1B 5949  15.825   6.137  10.029  0.3626  0.1687  0.0790
  372loPI   C2B 5950  15.919   6.174   9.518 -0.1319 -0.0191 -0.0291
  372loPI   C3B 5951  15.804   6.163   9.148 -0.0178 -0.2386 -0.3377
  372loPI   C4B 5952  15.873   6.147   8.653 -0.0360 -0.1216  0.1861
  373loPI    C1 5953   0.907   2.850  10.701  0.1071  0.1416  0.1481
  373loPI    C2 5954   1.305   2.840  10.656  0.0585 -0.2864 -0.2625
  373loPI    C3 5955   1.142   2.757  11.011  0.3398  0.1710 -0.0164
  373loPI   PO4 5956   0.891   2.746  10.434 -0.1201 -0.0852 -0.1551
  373loPI   GL1 5957   0.703   2.516  10.072  0.0921  0.0545  0.2299
  373loPI   GL2 5958   0.431   2.524  10.137  0.4010 -0.2553  0.1241
  373loPI   C1A 5959   0.714   2.736   9.708 -0.2923  0.1167  0.3672
  373loPI   C2A 5960   0.682   2.605   9.362  0.0869 -0.0307  0.0660
  373loPI   C3A 5961   0.813   2.573   8.994 -0.2856 -0.2282  0.1212
  373loPI   C4A 5962   1.005   2.375   8.723 -0.3620  0.0442  0.0330
  373loPI   C5A 5963   0.893   2.190   8.329  0.1018 -0.1323 -0.1509
  373loPI   C6A 5964   0.711   2.447   8.001  0.2552 -0.0476 -0.1445
  373loPI   C1B 5965   0.164   2.677   9.756  0.0295  0.1938 -0.1704
  373loPI   C2B 5966   0.115   2.593   9.368  0.0751  0.0589  0.0029
  373loPI   C3B 5967   0.325   2.793   9.074  0.0797  0.1167 -0.1879
  373loPI   C4B 5968   0.257   2.838   8.677  0.0962 -0.1954  0.3571
  374loPI    C1 5969  17.849   2.284  10.721 -0.1222 -0.1118  0.1112
  374loPI    C2 5970  17.798   1.910  10.853 -0.2258 -0.1016  0.1009
  374loPI    C3 5971  18.167   2.056  10.801 -0.1848 -0.1623  0.2181
  374loPI   PO4 5972  17.681   2.375  10.499  0.0567 -0.5049 -0.1355
  374loPI   GL1 5973  17.675   2.121  10.185  0.4126  0.2492  0.1141
  374loPI   GL2 5974  17.458   1.982  10.200 -0.0756  0.1696 -0.0395
  374loPI   C1A 5975  17.744   2.493   9.873 -0.0468 -0.0995 -0.2959
  374loPI   C2A 5976  17.730   2.582   9.430  0.1277  0.0591  0.0588
  374loPI   C3A 5977  17.745   2.716   9.082  0.1093  0.0695 -0.1165
  374loPI   C4A 5978  17.692   2.777   8.610 -0.0491 -0.0606 -0.3088
  374loPI   C5A 5979  17.794   2.613   8.169  0.2570  0.0095  0.3301
  374loPI   C6A 5980  17.861   2.231   7.853  0.2662  0.0532  0.0234
  374loPI   C1B 5981  17.501   2.113   9.703  0.1021  0.1617 -0.1081
  374loPI   C2B 5982  17.557   2.152   9.323  0.3148  0.1745  0.1193
  374loPI   C3B 5983  17.458   2.222   8.869  0.0296  0.0181 -0.1996
  374loPI   C4B 5984  17.389   2.385   8.557 -0.1012  0.1109 -0.3224
  375loPI    C1 5985   2.445   5.644  10.937 -0.1490 -0.1483 -0.2983
  375loPI    C2 5986   2.223   5.892  11.158  0.1216 -0.0969 -0.0773
  375loPI    C3 5987   2.192   5.497  11.210  0.1814 -0.0851  0.0517
  375loPI   PO4 5988   2.435   5.790  10.659 -0.1926 -0.0836  0.2062
  375loPI   GL1 5989   2.287   5.966  10.293  0.1256  0.2657  0.2348
  375loPI   GL2 5990   2.018   5.819  10.279  0.0395  0.0187  0.0383
  375loPI   C1A 5991   2.197   6.017   9.833  0.0468  0.1078  0.1915
  375loPI   C2A 5992   2.207   6.049   9.384 -0.1055  0.1690 -0.1735
  375loPI   C3A 5993   2.217   6.060   8.894  0.0641 -0.0839 -0.0606
  375loPI   C4A 5994   2.360   5.934   8.471 -0.1431 -0.0962 -0.1668
  375loPI   C5A 5995   2.107   5.668   8.265 -0.1024  0.1406 -0.2207
  375loPI   C6A 5996   1.841   5.403   8.180  0.0638  0.0593  0.0883
  375loPI   C1B 5997   1.695   6.000   9.938 -0.3247  0.2769 -0.0064
  375loPI   C2B 5998   1.706   5.959   9.515 -0.0397  0.0549  0.1594
  375loPI   C3B 5999   1.699   5.957   9.067 -0.1820 -0.1999  0.0365
  375loPI   C4B 6000   1.529   5.963   8.623 -0.1661  0.0025  0.1445
  376loPI    C1 6001   7.304  10.941  11.118  0.0559 -0.0546  0.0427
  376loPI    C2 6002   6.927  10.822  11.179  0.0481 -0.0199  0.0626
  376loPI    C3 6003   7.104  11.066  11.442  0.0485  0.0493 -0.0017
  376loPI   PO4 6004   7.391  10.995  10.898  0.0891  0.3015  0.1725
  376loPI   GL1 6005   7.444  11.164  10.605  0.1966 -0.2138 -0.0041
  376loPI   GL2 6006   7.212  11.354  10.567  0.0380  0.0755  0.1473
  376loPI   C1A 6007   7.502  11.107  10.234 -0.2461 -0.3287  0.2394
  376loPI   C2A 6008   7.508  11.121   9.706 -0.1473  0.3330 -0.2593
  376loPI   C3A 6009   7.393  11.095   9.269  0.0855  0.0458  0.1692
  376loPI   C4A 6010   7.395  11.148   8.889  0.2128 -0.0900  0.1360
  376loPI   C5A 6011   7.350  11.291   8.448  0.1199 -0.0081 -0.0493
  376loPI   C6A 6012   7.584  11.044   8.161  0.2658  0.3567  0.0229
  376loPI   C1B 6013   7.126  11.558  10.076  0.0286  0.2357  0.3352
  376loPI   C2B 6014   7.135  11.512   9.624 -0.0265 -0.0072  0.4293
  376loPI   C3B 6015   7.199  11.562   9.176 -0.3448 -0.0093  0.2001
  376loPI   C4B 6016   7.095  11.556   8.795 -0.1802 -0.1862 -0.2303
  377loPI    C1 6017   3.540   4.302  10.769 -0.1506  0.1526  0.0283
  377loPI    C2 6018   3.516   3.968  10.988  0.2140  0.1866  0.1269
  377loPI    C3 6019   3.183   4.164  10.884 -0.0195 -0.3151 -0.1059
  377loPI   PO4 6020   3.689   4.262  10.580 -0.1746  0.2028 -0.0470
  377loPI   GL1 6021   3.790   4.427  10.264  0.1856  0.2441  0.0528
  377loPI   GL2 6022   4.049   4.444  10.106  0.3489 -0.0083  0.0585
  377loPI   C1A 6023   3.627   4.570   9.840 -0.2830 -0.0478 -0.1772
  377loPI   C2A 6024   3.538   4.675   9.379  0.2292 -0.1828 -0.0043
  377loPI   C3A 6025   3.602   4.597   8.941  0.0318 -0.1211 -0.0193
  377loPI   C4A 6026   3.729   4.722   8.483  0.0747  0.1520 -0.0978
  377loPI   C5A 6027   3.578   4.573   7.984 -0.1207 -0.1826 -0.3774
  377loPI   C6A 6028   3.586   4.480   7.562  0.2472  0.1847  0.0369
  377loPI   C1B 6029   4.112   4.635   9.769 -0.2115 -0.1270 -0.1820
  377loPI   C2B 6030   4.057   4.687   9.360 -0.0445  0.1681 -0.2651
  377loPI   C3B 6031   4.113   4.608   8.985 -0.2055 -0.1900  0.3500
  377loPI   C4B 6032   4.233   4.664   8.538 -0.2037  0.2990  0.1432
  378loPI    C1 6033  12.704  10.598  10.909 -0.0823  0.0210 -0.2187
  378loPI    C2 6034  12.484  10.783  11.187  0.1940  0.2279 -0.1339
  378loPI    C3 6035  12.836  10.621  11.286  0.0827 -0.1027 -0.2679
  378loPI   PO4 6036  12.651  10.689  10.652  0.1443  0.0714 -0.0163
  378loPI   GL1 6037  12.601  10.588  10.318 -0.0534 -0.2074 -0.0416
  378loPI   GL2 6038  12.837  10.360  10.365  0.0691 -0.2443 -0.2586
  378loPI   C1A 6039  12.576  10.488   9.883  0.0049 -0.0059  0.0751
  378loPI   C2A 6040  12.557  10.450   9.474 -0.0572  0.0496  0.3295
  378loPI   C3A 6041  12.523  10.491   9.065  0.0340  0.4127  0.2389
  378loPI   C4A 6042  12.569  10.450   8.651 -0.1482  0.0419  0.0022
  378loPI   C5A 6043  12.326  10.069   8.390  0.0846  0.0861 -0.2117
  378loPI   C6A 6044  12.115  10.058   7.996  0.0522 -0.0646  0.1400
  378loPI   C1B 6045  13.146  10.448  10.120 -0.2528 -0.3597  0.0708
  378loPI   C2B 6046  13.103  10.486   9.646 -0.3123 -0.0599  0.3701
  378loPI   C3B 6047  13.104  10.530   9.278  0.5278  0.0319 -0.3212
  378loPI   C4B 6048  13.082  10.465   8.868 -0.1115  0.1282  0.1983
  379loPI    C1 6049   3.849  15.166  10.735  0.2357  0.0725  0.1148
  379loPI    C2 6050   3.638  14.837  10.823  0.0596  0.1565  0.0118
  379loPI    C3 6051   3.762  15.080  11.116  0.0182  0.1036  0.0736
  379loPI   PO4 6052   3.672  15.304  10.554 -0.0165  0.1004 -0.0307
  379loPI   GL1 6053   3.560  15.194  10.286  0.1224  0.2860  0.2165
  379loPI   GL2 6054   3.204  15.118  10.413 -0.0230  0.2267  0.2251
  379loPI   C1A 6055   3.474  15.336   9.863  0.2218 -0.0310 -0.1345
  379loPI   C2A 6056   3.475  15.336   9.366 -0.1301  0.0035  0.2389
  379loPI   C3A 6057   3.529  15.363   8.917  0.0897 -0.4058  0.0177
  379loPI   C4A 6058   3.499  15.408   8.483 -0.0121 -0.0898 -0.3899
  379loPI   C5A 6059   3.382  15.356   8.032 -0.1394  0.1693 -0.2314
  379loPI   C6A 6060   3.152  15.291   7.819 -0.2718  0.1082  0.0576
  379loPI   C1B 6061   3.239  14.887  10.078 -0.2268  0.3810 -0.0006
  379loPI   C2B 6062   3.322  14.875   9.693  0.2655  0.1682  0.0376
  379loPI   C3B 6063   3.352  14.861   9.268 -0.2245  0.1212  0.0012
  379loPI   C4B 6064   3.165  14.931   8.796 -0.1124  0.0047 -0.0009
  380loPI    C1 6065   9.646  11.374  10.796  0.1583  0.0605 -0.1685
  380loPI    C2 6066   9.826  11.322  11.150 -0.2026  0.0693  0.0205
  380loPI    C3 6067   9.742  11.006  10.919 -0.0283  0.0575 -0.0279
  380loPI   PO4 6068   9.786  11.508  10.641  0.1660 -0.0449 -0.2163
  380loPI   GL1 6069   9.771  11.222  10.299 -0.3169 -0.2237 -0.0173
  380loPI   GL2 6070  10.044  11.224  10.241  0.1104  0.0838 -0.0511
  380loPI   C1A 6071   9.565  11.246   9.955  0.0375 -0.1732 -0.0436
  380loPI   C2A 6072   9.482  11.222   9.526 -0.1102 -0.0147 -0.0944
  380loPI   C3A 6073   9.439  11.287   9.154  0.2414 -0.0314  0.1857
  380loPI   C4A 6074   9.464  11.197   8.707 -0.1869  0.1877  0.0095
  380loPI   C5A 6075   9.345  11.229   8.275  0.3152  0.0265  0.0928
  380loPI   C6A 6076   9.511  11.350   7.951 -0.0592 -0.1685  0.0268
  380loPI   C1B 6077   9.988  11.312   9.736  0.1997  0.2599  0.4527
  380loPI   C2B 6078   9.949  11.231   9.269  0.1277 -0.1217 -0.0081
  380loPI   C3B 6079   9.885  11.256   8.905 -0.0967  0.1267 -0.2928
  380loPI   C4B 6080   9.990  11.177   8.480 -0.0086 -0.1094 -0.0416
  381loPI    C1 6081  14.361   1.167  10.613  0.1932 -0.3025 -0.0415
  381loPI    C2 6082  14.390   1.413  10.927 -0.1200 -0.0637 -0.1942
  381loPI    C3 6083  14.394   1.017  10.982  0.2167 -0.0282  0.0702
  381loPI   PO4 6084  14.452   1.291  10.396 -0.0803 -0.2092 -0.1026
  381loPI   GL1 6085  14.559   1.257   9.936  0.6441 -0.0456 -0.2593
  381loPI   GL2 6086  14.286   1.393   9.943 -0.3360  0.3301 -0.2742
  381loPI   C1A 6087  14.456   1.129   9.525 -0.1985 -0.1669  0.0951
  381loPI   C2A 6088  14.408   1.200   9.036  0.2203  0.1580  0.1575
  381loPI   C3A 6089  14.455   1.115   8.656 -0.1632  0.0619 -0.1202
  381loPI   C4A 6090  14.308   1.074   8.191  0.0234  0.2678  0.1815
  381loPI   C5A 6091  14.386   1.009   7.776 -0.1041  0.1570  0.0069
  381loPI   C6A 6092  14.806   0.839   7.620  0.0306 -0.3355  0.2057
  381loPI   C1B 6093  14.192   1.609   9.526 -0.1205 -0.0705  0.0994
  381loPI   C2B 6094  14.107   1.626   9.093  0.2258 -0.4533  0.0849
  381loPI   C3B 6095  14.126   1.658   8.686  0.0581 -0.0208  0.1240
  381loPI   C4B 6096  14.197   1.538   8.244 -0.1427  0.3047  0.2162
  382loPI    C1 6097  10.287  12.511  10.927 -0.0523  0.0491 -0.0536
  382loPI    C2 6098  10.424  12.152  11.037 -0.2472 -0.0981 -0.2816
  382loPI    C3 6099  10.303  12.414  11.314 -0.2360 -0.2616 -0.1207
  382loPI   PO4 6100  10.153  12.387  10.727  0.1578  0.4392 -0.0113
  382loPI   GL1 6101  10.358  12.316  10.322  0.1608  0.0981  0.1562
  382loPI   GL2 6102  10.606  12.521  10.471 -0.0489 -0.3628  0.1251
  382loPI   C1A 6103  10.462  12.221   9.926  0.2721  0.0443 -0.1247
  382loPI   C2A 6104  10.373  12.203   9.521 -0.0656 -0.1705  0.0494
  382loPI   C3A 6105  10.350  12.177   9.086 -0.0890  0.0669  0.2655
  382loPI   C4A 6106  10.429  12.149   8.651  0.0243 -0.2499 -0.1186
  382loPI   C5A 6107  10.441  12.085   8.151  0.0321 -0.1288 -0.2224
  382loPI   C6A 6108  10.471  11.806   7.846 -0.0811  0.2076 -0.0231
  382loPI   C1B 6109  10.660  12.711  10.063  0.3028 -0.1777  0.3836
  382loPI   C2B 6110  10.686  12.656   9.560  0.2921 -0.0020 -0.1737
  382loPI   C3B 6111  10.678  12.659   9.094 -0.2766  0.0389  0.3101
  382loPI   C4B 6112  10.538  12.605   8.689 -0.1927 -0.1302 -0.0107
  383loPI    C1 6113   9.528   3.248  11.080  0.2070  0.1132 -0.3070
  383loPI    C2 6114   9.504   3.637  11.169 -0.0844  0.0359 -0.0306
  383loPI    C3 6115   9.693   3.386  11.417 -0.3806 -0.0851  0.0777
  383loPI   PO4 6116   9.505   3.290  10.788  0.1041  0.0021  0.0470
  383loPI   GL1 6117   9.649   3.264  10.449  0.1329  0.3874  0.1768
  383loPI   GL2 6118   9.977   3.164  10.275  0.1971  0.1825  0.1898
  383loPI   C1A 6119   9.514   3.116  10.089  0.0324  0.3388  0.0744
  383loPI   C2A 6120   9.395   3.131   9.608 -0.0295  0.0088  0.0256
  383loPI   C3A 6121   9.459   3.176   9.120  0.0811  0.1498 -0.1857
  383loPI   C4A 6122   9.340   3.081   8.669 -0.3343  0.2333 -0.1460
  383loPI   C5A 6123   9.355   2.782   8.299 -0.0606  0.0376 -0.2730
  383loPI   C6A 6124   9.332   2.519   7.938 -0.3771 -0.0403 -0.2802
  383loPI   C1B 6125   9.916   3.102   9.859  0.0650  0.0965 -0.0639
  383loPI   C2B 6126   9.903   3.135   9.377 -0.2817  0.4070  0.1932
  383loPI   C3B 6127   9.928   3.127   8.951 -0.1764  0.1469  0.0486
  383loPI   C4B 6128   9.839   3.078   8.590 -0.1452 -0.0498 -0.1087
  384loPI    C1 6129  12.337   6.657  11.141  0.1017  0.1758  0.0772
  384loPI    C2 6130  12.621   6.401  11.255  0.0360  0.0516 -0.0353
  384loPI    C3 6131  12.482   6.673  11.513  0.2029  0.0636  0.0430
  384loPI   PO4 6132  12.183   6.642  10.904  0.0193 -0.1918 -0.0905
  384loPI   GL1 6133  12.047   6.446  10.480 -0.4184  0.1151  0.0859
  384loPI   GL2 6134  12.162   6.737  10.423 -0.3193 -0.1471  0.1711
  384loPI   C1A 6135  12.002   6.359  10.103 -0.1443 -0.1182  0.0471
  384loPI   C2A 6136  12.087   6.428   9.692 -0.0945 -0.2952  0.4746
  384loPI   C3A 6137  12.137   6.437   9.270 -0.0386 -0.0688  0.0004
  384loPI   C4A 6138  12.025   6.386   8.844 -0.1440  0.0243 -0.1632
  384loPI   C5A 6139  11.943   6.349   8.480  0.3462  0.0882 -0.0743
  384loPI   C6A 6140  12.028   6.216   8.060  0.0647 -0.2608 -0.0081
  384loPI   C1B 6141  12.242   6.891   9.976 -0.1257  0.0956 -0.1831
  384loPI   C2B 6142  12.303   6.858   9.510  0.1579  0.0020  0.0464
  384loPI   C3B 6143  12.338   6.796   9.078  0.0646  0.2332 -0.0593
  384loPI   C4B 6144  12.257   6.796   8.614 -0.1692 -0.0362 -0.3260
  385loPI    C1 6145   9.885   1.638  11.290 -0.0624 -0.0935 -0.0327
  385loPI    C2 6146   9.500   1.739  11.321 -0.1313 -0.3703  0.0386
  385loPI    C3 6147   9.694   1.591  11.638  0.0560 -0.1617  0.0239
  385loPI   PO4 6148   9.871   1.631  11.045 -0.0308 -0.2212  0.1588
  385loPI   GL1 6149   9.808   1.790  10.604  0.0894  0.1336 -0.1526
  385loPI   GL2 6150   9.840   1.655  10.412  0.0583 -0.0142  0.0787
  385loPI   C1A 6151   9.538   2.098  10.308 -0.0362  0.2225 -0.0998
  385loPI   C2A 6152   9.455   2.167   9.899  0.1455  0.0429 -0.1209
  385loPI   C3A 6153   9.454   2.166   9.450  0.0327  0.1392  0.1330
  385loPI   C4A 6154   9.386   2.216   8.942 -0.2240  0.0190  0.1101
  385loPI   C5A 6155   9.482   2.155   8.506  0.1222 -0.2282 -0.0917
  385loPI   C6A 6156   9.648   1.911   8.157  0.0315  0.0581 -0.2215
  385loPI   C1B 6157   9.804   1.694   9.925  0.0308  0.1760 -0.0528
  385loPI   C2B 6158   9.751   1.672   9.493  0.2367  0.0630 -0.0224
  385loPI   C3B 6159   9.714   1.792   9.113  0.1289 -0.2358  0.3601
  385loPI   C4B 6160   9.670   1.704   8.659  0.1670 -0.0681  0.0213
  386loPI    C1 6161   4.870   5.195  10.843  0.0155 -0.0894 -0.0144
  386loPI    C2 6162   5.199   5.368  10.695  0.0364 -0.1187 -0.0022
  386loPI    C3 6163   5.221   5.145  11.027  0.0252 -0.2150 -0.0655
  386loPI   PO4 6164   4.654   5.338  10.754 -0.3714 -0.0447 -0.0569
  386loPI   GL1 6165   4.544   5.523  10.472  0.0655 -0.0316 -0.1718
  386loPI   GL2 6166   4.938   5.510  10.323  0.1170 -0.0396  0.1598
  386loPI   C1A 6167   4.549   5.603  10.003  0.2356  0.2225 -0.0880
  386loPI   C2A 6168   4.556   5.655   9.517 -0.3735 -0.0392 -0.1187
  386loPI   C3A 6169   4.574   5.623   9.099 -0.3091  0.1306  0.0244
  386loPI   C4A 6170   4.644   5.604   8.702  0.1195  0.1353  0.0457
  386loPI   C5A 6171   4.832   5.702   8.277 -0.5602 -0.0239 -0.0105
  386loPI   C6A 6172   5.080   5.613   7.957  0.1762 -0.0361  0.3560
  386loPI   C1B 6173   5.022   5.610   9.774  0.0731 -0.3264 -0.3399
  386loPI   C2B 6174   4.991   5.572   9.366 -0.1604 -0.1907  0.2184
  386loPI   C3B 6175   5.136   5.683   9.075  0.0902  0.2682  0.1327
  386loPI   C4B 6176   5.128   5.546   8.650  0.0689  0.0585 -0.1450
  387loPI    C1 6177  16.078  10.503  11.189  0.0758  0.0085  0.1820
  387loPI    C2 6178  16.011  10.499  11.583 -0.1275  0.0691  0.1492
  387loPI    C3 6179  15.879  10.198  11.354  0.2476 -0.1139  0.1659
  387loPI   PO4 6180  15.939  10.758  11.005  0.2361 -0.1653 -0.0330
  387loPI   GL1 6181  15.924  10.852  10.633  0.1194  0.0291 -0.1168
  387loPI   GL2 6182  16.208  10.789  10.611 -0.1657  0.0920 -0.0066
  387loPI   C1A 6183  15.896  10.916  10.123 -0.1918  0.0663  0.0594
  387loPI   C2A 6184  15.831  11.031   9.668  0.1399 -0.2476 -0.3763
  387loPI   C3A 6185  15.862  11.032   9.252 -0.0184  0.2518  0.0529
  387loPI   C4A 6186  15.890  11.050   8.812 -0.0948 -0.4976 -0.2894
  387loPI   C5A 6187  16.112  10.818   8.422  0.4981  0.1269  0.1458
  387loPI   C6A 6188  16.344  10.898   8.058  0.1185 -0.0329 -0.1226
  387loPI   C1B 6189  16.170  10.525  10.257  0.1815  0.1156  0.0004
  387loPI   C2B 6190  16.184  10.578   9.811  0.0649  0.1123 -0.1153
  387loPI   C3B 6191  16.094  10.555   9.356  0.0434 -0.1874  0.3527
  387loPI   C4B 6192  16.130  10.539   8.927  0.0032 -0.1490 -0.0691
  388loPI    C1 6193  15.112   1.269  10.481  0.1421 -0.0664 -0.0450
  388loPI    C2 6194  14.905   1.120  10.789  0.0069  0.1299 -0.0391
  388loPI    C3 6195  15.199   0.906  10.623  0.0632  0.0121  0.2087
  388loPI   PO4 6196  14.967   1.324  10.336  0.2381 -0.2971  0.2377
  388loPI   GL1 6197  15.292   1.413  10.028  0.0909  0.0549  0.0124
  388loPI   GL2 6198  15.079   1.628   9.921  0.0302  0.1873  0.0072
  388loPI   C1A 6199  15.505   1.115   9.679  0.1219 -0.0155  0.3192
  388loPI   C2A 6200  15.455   1.151   9.363 -0.0100 -0.0398  0.2980
  388loPI   C3A 6201  15.551   1.169   8.932 -0.2680  0.1577 -0.0475
  388loPI   C4A 6202  15.434   1.152   8.573  0.2356 -0.0565  0.0167
  388loPI   C5A 6203  15.345   1.213   8.139  0.1652  0.2787  0.0304
  388loPI   C6A 6204  14.958   1.252   7.937  0.1645 -0.0028  0.2081
  388loPI   C1B 6205  15.252   1.691   9.475 -0.2722  0.5733  0.1913
  388loPI   C2B 6206  15.361   1.571   9.124 -0.1229  0.0422  0.3255
  388loPI   C3B 6207  15.167   1.596   8.702  0.0561  0.0147 -0.0699
  388loPI   C4B 6208  15.171   1.642   8.334 -0.0231  0.0332 -0.4273
  389loPI    C1 6209   4.970  15.730  11.018 -0.1035 -0.0914 -0.2027
  389loPI    C2 6210   5.219  15.504  11.234 -0.2421 -0.0537  0.0008
  389loPI    C3 6211   4.874  15.627  11.393 -0.1343  0.3664 -0.0777
  389loPI   PO4 6212   5.071  15.640  10.717  0.1479  0.0217 -0.0541
  389loPI   GL1 6213   5.276  15.394  10.415  0.0077 -0.0580  0.0900
  389loPI   GL2 6214   5.633  15.502  10.319  0.1378  0.1742 -0.1711
  389loPI   C1A 6215   5.102  15.419   9.961  0.0595 -0.3259  0.1358
  389loPI   C2A 6216   5.015  15.463   9.576  0.1644  0.2683  0.1323
  389loPI   C3A 6217   4.958  15.451   9.170  0.1675  0.2672 -0.3202
  389loPI   C4A 6218   5.026  15.426   8.743  0.1149  0.0980 -0.1470
  389loPI   C5A 6219   4.910  15.554   8.322  0.3880 -0.2756 -0.3471
  389loPI   C6A 6220   4.632  15.650   7.969  0.2011 -0.0315  0.0036
  389loPI   C1B 6221   5.679  15.423   9.979  0.1563  0.0853  0.0341
  389loPI   C2B 6222   5.515  15.398   9.602  0.0473 -0.4094  0.1214
  389loPI   C3B 6223   5.445  15.346   9.156  0.3317  0.2009 -0.1193
  389loPI   C4B 6224   5.542  15.429   8.713 -0.1475  0.0600  0.0808
  390loPI    C1 6225  14.536   2.098  10.658 -0.0629 -0.1318  0.2828
  390loPI    C2 6226  14.310   1.879  10.905  0.0596 -0.2461  0.2944
  390loPI    C3 6227  14.703   1.912  10.970  0.0798 -0.2147  0.1575
  390loPI   PO4 6228  14.450   2.257  10.407 -0.0161 -0.1119 -0.2089
  390loPI   GL1 6229  14.202   2.157  10.122 -0.0380  0.1686 -0.0987
  390loPI   GL2 6230  14.157   2.406   9.991  0.1897  0.2216  0.0144
  390loPI   C1A 6231  14.461   2.052   9.753  0.2695  0.0438  0.2067
  390loPI   C2A 6232  14.475   2.045   9.335  0.0019  0.3523 -0.1890
  390loPI   C3A 6233  14.375   2.046   8.906  0.0017 -0.0818 -0.0275
  390loPI   C4A 6234  14.489   2.015   8.447 -0.0373  0.0159  0.0196
  390loPI   C5A 6235  14.372   2.119   7.947  0.1293 -0.2114 -0.3094
  390loPI   C6A 6236  14.332   1.831   7.654  0.2699  0.1209 -0.0053
  390loPI   C1B 6237  13.996   2.533   9.562  0.0110  0.3666  0.0508
  390loPI   C2B 6238  14.058   2.496   9.120  0.1961 -0.1969 -0.0942
  390loPI   C3B 6239  14.105   2.401   8.705  0.4826 -0.1980 -0.1561
  390loPI   C4B 6240  14.125   2.397   8.247  0.0870  0.0132  0.1268
  391loPI    C1 6241   7.309   2.662  10.757 -0.2815 -0.1096  0.0001
  391loPI    C2 6242   7.033   2.694  11.045 -0.1770  0.0794  0.0813
  391loPI    C3 6243   7.380   2.891  11.077 -0.0806 -0.0612 -0.0774
  391loPI   PO4 6244   7.139   2.724  10.546 -0.4079  0.2078 -0.0542
  391loPI   GL1 6245   7.013   2.666  10.272  0.1335  0.2284  0.3492
  391loPI   GL2 6246   7.119   2.449  10.042  0.0925 -0.0152  0.2361
  391loPI   C1A 6247   6.836   2.889   9.948 -0.1946  0.1914  0.0434
  391loPI   C2A 6248   6.858   2.928   9.497  0.3703 -0.4954 -0.3542
  391loPI   C3A 6249   6.751   3.010   9.112 -0.0855 -0.2155  0.1972
  391loPI   C4A 6250   6.732   2.951   8.656  0.2950 -0.3832  0.1286
  391loPI   C5A 6251   7.013   2.812   8.368 -0.1609  0.1496  0.0539
  391loPI   C6A 6252   7.241   2.592   8.027  0.0007 -0.1437  0.6050
  391loPI   C1B 6253   7.142   2.467   9.604  0.1442 -0.1529  0.0415
  391loPI   C2B 6254   7.136   2.526   9.170 -0.0999 -0.2250 -0.0072
  391loPI   C3B 6255   7.167   2.584   8.760 -0.3292 -0.2248 -0.0188
  391loPI   C4B 6256   6.996   2.311   8.376  0.1787 -0.2270 -0.1006
  392loPI    C1 6257   0.429  17.644  10.977  0.2194  0.0918  0.1342
  392loPI    C2 6258   0.227  17.831  11.268 -0.1252 -0.1345  0.0460
  392loPI    C3 6259   0.621  17.886  11.231 -0.1588  0.2792  0.2499
  392loPI   PO4 6260   0.297  17.654  10.693 -0.1482 -0.2994  0.0694
  392loPI   GL1 6261   0.303  17.518  10.351 -0.2397  0.2935 -0.1041
  392loPI   GL2 6262   0.600  17.434  10.232  0.1907 -0.2077 -0.1728
  392loPI   C1A 6263   0.032  17.391  10.055  0.2004  0.0050  0.3076
  392loPI   C2A 6264  -0.040  17.447   9.627  0.0179  0.0641 -0.1614
  392loPI   C3A 6265  -0.011  17.443   9.236 -0.0757  0.2053  0.1359
  392loPI   C4A 6266  -0.023  17.514   8.831  0.1988  0.2429 -0.0356
  392loPI   C5A 6267   0.034  17.531   8.503 -0.1245  0.0937  0.0208
  392loPI   C6A 6268   0.202  17.279   8.091  0.1909  0.0559  0.2160
  392loPI   C1B 6269   0.440  17.478   9.707  0.1350  0.1931  0.0843
  392loPI   C2B 6270   0.546  17.460   9.268  0.0587  0.2391  0.1692
  392loPI   C3B 6271   0.514  17.509   8.772  0.1478 -0.0283  0.1245
  392loPI   C4B 6272   0.478  17.720   8.455  0.2373 -0.5036  0.0259
  393loPI    C1 6273   6.516  16.017  10.948  0.1184  0.1961 -0.1617
  393loPI    C2 6274   6.873  15.911  11.094  0.1613  0.3010 -0.1888
  393loPI    C3 6275   6.562  15.958  11.341  0.1474  0.1378 -0.1738
  393loPI   PO4 6276   6.442  15.952  10.713 -0.1772  0.1799  0.0699
  393loPI   GL1 6277   6.386  15.818  10.344  0.0754 -0.0928  0.0965
  393loPI   GL2 6278   6.169  15.531  10.221  0.0469 -0.2650 -0.1670
  393loPI   C1A 6279   6.255  15.988   9.878 -0.1580 -0.2221  0.1341
  393loPI   C2A 6280   6.300  15.931   9.492 -0.3683  0.1466  0.4108
  393loPI   C3A 6281   6.318  15.948   9.102  0.3269  0.1588  0.0871
  393loPI   C4A 6282   6.274  16.000   8.655  0.0322  0.1035 -0.0500
  393loPI   C5A 6283   6.296  16.011   8.258  0.0204 -0.1291 -0.1066
  393loPI   C6A 6284   6.074  15.783   7.893  0.1551  0.2317  0.1919
  393loPI   C1B 6285   6.112  15.468   9.743 -0.2110  0.0759  0.4246
  393loPI   C2B 6286   6.104  15.488   9.327 -0.1248 -0.2913 -0.2905
  393loPI   C3B 6287   6.129  15.500   8.850 -0.0741 -0.2895 -0.2176
  393loPI   C4B 6288   6.072  15.608   8.357 -0.3025  0.0587 -0.0277
  394loPI    C1 6289  14.682  15.485  10.388 -0.1337 -0.0919 -0.0375
  394loPI    C2 6290  14.566  15.279  10.711 -0.1108  0.0066  0.0339
  394loPI    C3 6291  14.586  15.679  10.725 -0.4074  0.0325 -0.1837
  394loPI   PO4 6292  14.880  15.467  10.285 -0.1943 -0.0817  0.2734
  394loPI   GL1 6293  15.259  15.529  10.179 -0.2384 -0.0114  0.1826
  394loPI   GL2 6294  15.571  15.529  10.034 -0.2123 -0.2291  0.4399
  394loPI   C1A 6295  15.194  15.548   9.675 -0.3562  0.0625  0.1310
  394loPI   C2A 6296  15.155  15.632   9.218 -0.0486  0.1197  0.2495
  394loPI   C3A 6297  15.203  15.458   8.748 -0.2596 -0.0721 -0.1353
  394loPI   C4A 6298  15.216  15.493   8.307 -0.1348 -0.4591 -0.3064
  394loPI   C5A 6299  15.151  15.380   7.910  0.1063 -0.2434  0.0873
  394loPI   C6A 6300  15.274  15.386   7.522  0.1646 -0.4516  0.0841
  394loPI   C1B 6301  15.682  15.592   9.578  0.2122 -0.0388 -0.1229
  394loPI   C2B 6302  15.694  15.562   9.143  0.0303 -0.4102 -0.0205
  394loPI   C3B 6303  15.652  15.611   8.669  0.3243 -0.0411 -0.3391
  394loPI   C4B 6304  15.707  15.649   8.271 -0.0782  0.0288 -0.1709
  395loPI    C1 6305  13.747   0.801  10.372  0.0053 -0.1121  0.0165
  395loPI    C2 6306  13.854   0.416  10.347  0.1804 -0.0681  0.0764
  395loPI    C3 6307  13.677   0.554  10.679  0.2379 -0.0677  0.1071
  395loPI   PO4 6308  13.656   0.833  10.075  0.1485 -0.1386 -0.0006
  395loPI   GL1 6309  13.700   0.950   9.721 -0.2702 -0.0363  0.0570
  395loPI   GL2 6310  14.076   0.954   9.719  0.1966  0.3314 -0.0946
  395loPI   C1A 6311  13.443   1.097   9.309 -0.2748  0.0188  0.0819
  395loPI   C2A 6312  13.392   1.140   8.860  0.0717 -0.0984 -0.1504
  395loPI   C3A 6313  13.418   1.122   8.397 -0.0619  0.0316  0.0113
  395loPI   C4A 6314  13.197   0.999   8.027 -0.4601  0.0298  0.0236
  395loPI   C5A 6315  12.923   1.276   7.755 -0.3356  0.0092 -0.3525
  395loPI   C6A 6316  12.499   1.135   7.587  0.1887 -0.2293  0.0279
  395loPI   C1B 6317  13.979   1.158   9.386 -0.0524 -0.3998  0.0500
  395loPI   C2B 6318  13.925   1.179   8.929 -0.1643  0.2903  0.0624
  395loPI   C3B 6319  13.955   1.203   8.528 -0.0676 -0.1250  0.0271
  395loPI   C4B 6320  13.857   1.013   8.092  0.0058 -0.0458 -0.0855
  396loPI    C1 6321   5.125   2.159  10.660  0.1245 -0.0653  0.0354
  396loPI    C2 6322   4.831   2.008  10.887 -0.0393  0.0054 -0.1274
  396loPI    C3 6323   5.098   1.763  10.716 -0.1892 -0.0858 -0.2332
  396loPI   PO4 6324   5.056   2.277  10.404 -0.0061  0.2980 -0.3533
  396loPI   GL1 6325   5.287   2.448  10.082 -0.1421  0.3410  0.0900
  396loPI   GL2 6326   5.206   2.731  10.090 -0.1255 -0.1621  0.2248
  396loPI   C1A 6327   5.189   2.449   9.607 -0.2207  0.0404 -0.1558
  396loPI   C2A 6328   5.111   2.371   9.135 -0.1101  0.1224 -0.2345
  396loPI   C3A 6329   4.952   2.278   8.835  0.2027  0.0485  0.0374
  396loPI   C4A 6330   4.959   2.432   8.486  0.0491  0.0022  0.2018
  396loPI   C5A 6331   5.043   2.580   8.079 -0.2899 -0.2724 -0.1089
  396loPI   C6A 6332   4.923   2.660   7.655  0.0754 -0.1753 -0.3243
  396loPI   C1B 6333   5.227   2.913   9.704 -0.0197 -0.0663  0.3148
  396loPI   C2B 6334   5.220   2.850   9.242  0.0880 -0.3260  0.0030
  396loPI   C3B 6335   5.278   2.809   8.784 -0.0339  0.1785 -0.0103
  396loPI   C4B 6336   5.317   2.922   8.423  0.1491  0.0202 -0.3056
  397loPI    C1 6337   5.768   5.975  10.999  0.2332 -0.2566 -0.0792
  397loPI    C2 6338   5.982   6.233  11.217  0.1541 -0.2656  0.0097
  397loPI    C3 6339   6.063   5.842  11.235  0.1827 -0.2611 -0.0182
  397loPI   PO4 6340   5.804   6.062  10.782 -0.0031 -0.3381 -0.2272
  397loPI   GL1 6341   5.914   6.184  10.425  0.1536 -0.0948 -0.0319
  397loPI   GL2 6342   5.760   5.868  10.315 -0.3405 -0.0274  0.4107
  397loPI   C1A 6343   6.085   6.427  10.106  0.3224 -0.4891  0.1111
  397loPI   C2A 6344   6.139   6.531   9.813 -0.0041 -0.0099  0.0404
  397loPI   C3A 6345   6.071   6.571   9.359 -0.0723  0.1410  0.2790
  397loPI   C4A 6346   6.075   6.653   8.904 -0.3618 -0.3779 -0.1120
  397loPI   C5A 6347   6.188   6.791   8.508 -0.0740 -0.1766 -0.0355
  397loPI   C6A 6348   6.512   6.973   8.294 -0.0065 -0.0340  0.5244
  397loPI   C1B 6349   5.834   5.962   9.918  0.1558 -0.2187  0.4129
  397loPI   C2B 6350   5.864   6.115   9.489  0.1372 -0.1251 -0.3376
  397loPI   C3B 6351   5.835   6.201   9.041  0.0676  0.2223  0.1135
  397loPI   C4B 6352   5.915   6.297   8.577 -0.3614  0.0747 -0.2293
  398loPI    C1 6353   2.647   6.153  11.020  0.2805 -0.1942  0.0101
  398loPI    C2 6354   2.735   6.476  11.239 -0.1157 -0.1662  0.1348
  398loPI    C3 6355   2.602   6.144  11.418 -0.0554 -0.2788 -0.0273
  398loPI   PO4 6356   2.618   6.249  10.806  0.1612  0.1364 -0.2394
  398loPI   GL1 6357   2.734   6.179  10.465 -0.0361  0.0581  0.1299
  398loPI   GL2 6358   2.525   6.388  10.368  0.0668 -0.2722  0.0198
  398loPI   C1A 6359   3.004   6.359  10.083 -0.0993  0.0068 -0.0932
  398loPI   C2A 6360   2.989   6.430   9.636  0.0864 -0.0822  0.0538
  398loPI   C3A 6361   2.954   6.423   9.249 -0.2092 -0.2177  0.0856
  398loPI   C4A 6362   2.934   6.444   8.837 -0.0386  0.1573 -0.1838
  398loPI   C5A 6363   3.126   6.431   8.440  0.1754 -0.0348  0.0440
  398loPI   C6A 6364   3.402   6.716   8.172  0.2238 -0.1040  0.0127
  398loPI   C1B 6365   2.482   6.419   9.892 -0.0017  0.0623 -0.2825
  398loPI   C2B 6366   2.519   6.443   9.469  0.3544 -0.0628  0.0390
  398loPI   C3B 6367   2.445   6.474   9.100 -0.1164  0.1491 -0.0741
  398loPI   C4B 6368   2.466   6.440   8.670  0.0706  0.0158  0.1518
  399loPI    C1 6369   7.312   0.581  10.673 -0.0842  0.2046 -0.0896
  399loPI    C2 6370   7.190   0.650  11.048  0.1473  0.1554 -0.0035
  399loPI    C3 6371   7.061   0.326  10.852 -0.0727  0.2467 -0.0130
  399loPI   PO4 6372   7.531   0.615  10.631  0.2464 -0.1419  0.2826
  399loPI   GL1 6373   7.690   0.484  10.260 -0.1040 -0.2249 -0.0133
  399loPI   GL2 6374   7.689   0.720  10.082 -0.0247  0.0693 -0.1533
  399loPI   C1A 6375   7.503   0.247   9.960  0.2583  0.1111  0.3196
  399loPI   C2A 6376   7.509   0.240   9.579  0.1055 -0.0605  0.2722
  399loPI   C3A 6377   7.462   0.188   9.093 -0.2762 -0.0631 -0.3082
  399loPI   C4A 6378   7.526   0.283   8.689  0.0205 -0.0557 -0.0429
  399loPI   C5A 6379   7.582   0.263   8.198 -0.3252 -0.0136 -0.1426
  399loPI   C6A 6380   7.898   0.417   7.964  0.0579  0.3153  0.0783
  399loPI   C1B 6381   7.803   0.668   9.670  0.0896  0.0402  0.0700
  399loPI   C2B 6382   7.740   0.717   9.314  0.0783  0.0287  0.0669
  399loPI   C3B 6383   7.787   0.764   8.858 -0.3336 -0.0950  0.0920
  399loPI   C4B 6384   7.921   0.736   8.405 -0.1738 -0.3242 -0.2487
  400loPI    C1 6385   6.484  10.861  11.452 -0.3066 -0.1516  0.2860
  400loPI    C2 6386   6.546  10.471  11.389  0.1045 -0.0675  0.1366
  400loPI    C3 6387   6.784  10.674  11.639 -0.0247  0.1163  0.1127
  400loPI   PO4 6388   6.437  10.931  11.208 -0.1929 -0.0851  0.0743
  400loPI   GL1 6389   6.348  10.930  10.717  0.0502 -0.1727  0.0719
  400loPI   GL2 6390   5.994  10.923  10.646  0.4706 -0.2900  0.1015
  400loPI   C1A 6391   6.403  11.034  10.148 -0.0310 -0.0653  0.1299
  400loPI   C2A 6392   6.358  10.996   9.676 -0.0609 -0.1895 -0.2488
  400loPI   C3A 6393   6.416  11.051   9.268 -0.0156 -0.1478  0.0740
  400loPI   C4A 6394   6.419  11.142   8.798  0.0232  0.0730 -0.2190
  400loPI   C5A 6395   6.209  11.309   8.435  0.0034 -0.2230  0.3534
  400loPI   C6A 6396   6.228  11.204   7.969 -0.0952 -0.0065  0.0186
  400loPI   C1B 6397   5.902  11.023  10.292 -0.2340  0.1581 -0.1065
  400loPI   C2B 6398   5.875  11.057   9.866 -0.1212 -0.1230  0.0882
  400loPI   C3B 6399   5.865  11.046   9.426  0.1625  0.0549 -0.0975
  400loPI   C4B 6400   5.835  11.051   9.033  0.1294  0.0115 -0.0485
  401loPI    C1 6401   2.428   3.699  10.476 -0.3803 -0.0317 -0.0391
  401loPI    C2 6402   2.389   3.831  10.851 -0.2723  0.0094 -0.0422
  401loPI    C3 6403   2.535   3.466  10.782 -0.0057  0.1158 -0.0529
  401loPI   PO4 6404   2.432   3.862  10.363 -0.1236 -0.1988 -0.0344
  401loPI   GL1 6405   2.485   3.960   9.949  0.2970  0.0547  0.1157
  401loPI   GL2 6406   2.789   4.188  10.073  0.1258 -0.2302  0.0687
  401loPI   C1A 6407   2.305   4.099   9.667 -0.1572  0.1700  0.0465
  401loPI   C2A 6408   2.358   4.196   9.314  0.2625  0.2070 -0.1577
  401loPI   C3A 6409   2.373   4.210   8.900 -0.0640 -0.0907 -0.0965
  401loPI   C4A 6410   2.351   4.170   8.529 -0.2809 -0.0652  0.1036
  401loPI   C5A 6411   2.228   4.166   8.126 -0.0713 -0.0492 -0.0929
  401loPI   C6A 6412   1.918   4.093   7.863  0.1838  0.0882 -0.0223
  401loPI   C1B 6413   2.826   4.222   9.563  0.1071  0.1534  0.0715
  401loPI   C2B 6414   2.831   4.275   9.226 -0.3627 -0.4732  0.0455
  401loPI   C3B 6415   2.829   4.177   8.816  0.0354 -0.3467 -0.4319
  401loPI   C4B 6416   2.949   4.137   8.438  0.0323 -0.0128 -0.2577
  402loPI    C1 6417   2.652   2.342  10.489 -0.0609 -0.1232  0.0598
  402loPI    C2 6418   2.707   2.475  10.862 -0.0813 -0.2125  0.0949
  402loPI    C3 6419   3.006   2.293  10.669  0.0574  0.1909 -0.0802
  402loPI   PO4 6420   2.598   2.524  10.266 -0.2906 -0.0281 -0.1660
  402loPI   GL1 6421   2.536   2.474   9.798 -0.1130 -0.1194  0.0895
  402loPI   GL2 6422   2.208   2.395   9.759 -0.2089  0.1664 -0.1574
  402loPI   C1A 6423   2.731   2.358   9.401 -0.3120 -0.1946  0.0465
  402loPI   C2A 6424   2.913   2.182   8.947 -0.0570  0.0797 -0.0276
  402loPI   C3A 6425   2.923   2.218   8.501  0.0183  0.2252 -0.2323
  402loPI   C4A 6426   3.020   2.243   8.029 -0.2097 -0.0027  0.0270
  402loPI   C5A 6427   2.809   1.971   7.692 -0.0100 -0.2404  0.1191
  402loPI   C6A 6428   2.831   1.911   7.269  0.0087  0.1647 -0.2887
  402loPI   C1B 6429   2.168   2.120   9.504 -0.0895 -0.0072 -0.1546
  402loPI   C2B 6430   2.356   2.086   9.092  0.0702 -0.2429 -0.2981
  402loPI   C3B 6431   2.444   2.225   8.650  0.2914 -0.0352  0.0743
  402loPI   C4B 6432   2.352   2.127   8.349  0.4338  0.1190 -0.0688
  403loPI    C1 6433  17.464  15.665  11.036 -0.0758  0.1694 -0.1858
  403loPI    C2 6434  17.319  15.788  11.388  0.0486  0.3035 -0.1805
  403loPI    C3 6435  17.495  15.430  11.358 -0.4167  0.0707 -0.2209
  403loPI   PO4 6436  17.311  15.619  10.829 -0.0293 -0.1821 -0.2843
  403loPI   GL1 6437  17.042  15.777  10.540  0.2265 -0.3348  0.0102
  403loPI   GL2 6438  16.911  16.077  10.387  0.0484 -0.3029 -0.2012
  403loPI   C1A 6439  17.186  15.712  10.197  0.1237  0.0085 -0.0304
  403loPI   C2A 6440  17.150  15.629   9.756 -0.1971  0.2091 -0.0750
  403loPI   C3A 6441  17.223  15.608   9.351 -0.0621  0.2991  0.1614
  403loPI   C4A 6442  17.184  15.724   8.897  0.0074 -0.0323 -0.0548
  403loPI   C5A 6443  17.349  15.693   8.404  0.0086  0.0029 -0.0746
  403loPI   C6A 6444  17.708  15.626   8.223 -0.2141  0.3061  0.4429
  403loPI   C1B 6445  16.842  16.104  10.028 -0.1072 -0.1125  0.2007
  403loPI   C2B 6446  16.904  16.046   9.569  0.1681  0.2037  0.0528
  403loPI   C3B 6447  16.967  16.101   9.189  0.0489  0.2103 -0.4097
  403loPI   C4B 6448  16.942  16.140   8.748 -0.0125  0.0393 -0.1340
  404loPI    C1 6449   0.692   6.864  10.808 -0.0761  0.1080  0.1418
  404loPI    C2 6450   0.799   7.089  11.120 -0.2017  0.1867  0.1292
  404loPI    C3 6451   0.519   6.808  11.164 -0.0438  0.0302  0.1454
  404loPI   PO4 6452   0.555   6.998  10.560 -0.1321 -0.0698 -0.0650
  404loPI   GL1 6453   0.467   7.034  10.080  0.0355 -0.1134  0.4874
  404loPI   GL2 6454   0.525   6.725  10.174 -0.0994  0.0571  0.0865
  404loPI   C1A 6455   0.327   7.140   9.697  0.0330 -0.0544  0.1363
  404loPI   C2A 6456   0.345   7.159   9.302  0.3558 -0.0459  0.1136
  404loPI   C3A 6457   0.254   7.195   8.922  0.2259 -0.0294 -0.2736
  404loPI   C4A 6458   0.402   7.156   8.525 -0.1764 -0.0058  0.1867
  404loPI   C5A 6459   0.394   7.124   8.083  0.1176  0.1945 -0.0499
  404loPI   C6A 6460   0.637   7.141   7.666 -0.0364 -0.1250 -0.3092
  404loPI   C1B 6461   0.681   6.738   9.679 -0.1347  0.0677 -0.1261
  404loPI   C2B 6462   0.615   6.746   9.195 -0.0041 -0.1060 -0.1645
  404loPI   C3B 6463   0.562   6.757   8.704  0.1210 -0.1092 -0.2176
  404loPI   C4B 6464   0.491   6.729   8.351  0.1052 -0.1140 -0.2106
  405loPI    C1 6465  11.293  10.804  10.612 -0.1344 -0.3016 -0.0447
  405loPI    C2 6466  11.515  10.730  10.937  0.0251  0.1956 -0.0320
  405loPI    C3 6467  11.616  10.570  10.585  0.0801 -0.0269  0.0831
  405loPI   PO4 6468  11.160  10.980  10.609 -0.0731 -0.0129  0.1141
  405loPI   GL1 6469  10.884  10.771  10.304  0.0201  0.2076  0.0257
  405loPI   GL2 6470  11.021  10.492  10.249  0.2006 -0.1208 -0.2570
  405loPI   C1A 6471  10.738  10.874  10.018  0.2049 -0.0462 -0.1579
  405loPI   C2A 6472  10.651  10.827   9.601 -0.1490 -0.2075  0.1338
  405loPI   C3A 6473  10.691  10.772   9.213 -0.0177  0.0391  0.1730
  405loPI   C4A 6474  10.711  10.708   8.781 -0.0373 -0.0545  0.1780
  405loPI   C5A 6475  10.771  10.708   8.334  0.0889 -0.3485  0.1332
  405loPI   C6A 6476  10.882  10.819   7.890 -0.2478  0.0171  0.1772
  405loPI   C1B 6477  11.067  10.355   9.837  0.0075 -0.1599  0.1757
  405loPI   C2B 6478  11.043  10.332   9.337  0.0196  0.0191  0.0216
  405loPI   C3B 6479  10.973  10.353   9.010  0.0705  0.0179 -0.2438
  405loPI   C4B 6480  11.034  10.389   8.608  0.0482 -0.2761  0.1641
  406loPI    C1 6481  15.132   7.713  10.783  0.0493 -0.0268  0.0092
  406loPI    C2 6482  14.815   7.473  10.745  0.0780 -0.0456 -0.1178
  406loPI    C3 6483  15.097   7.391  11.017 -0.1496  0.1100  0.1712
  406loPI   PO4 6484  15.178   7.721  10.477 -0.1216  0.0217 -0.1272
  406loPI   GL1 6485  15.364   7.983  10.233  0.2638  0.0982 -0.0332
  406loPI   GL2 6486  15.477   8.251  10.210 -0.0932 -0.1301  0.2652
  406loPI   C1A 6487  15.332   7.795   9.817 -0.0399 -0.1224 -0.0128
  406loPI   C2A 6488  15.306   7.859   9.359 -0.2595 -0.2646 -0.0370
  406loPI   C3A 6489  15.310   7.972   8.972  0.0510  0.2915  0.1710
  406loPI   C4A 6490  15.139   7.992   8.519  0.0862 -0.1198  0.2211
  406loPI   C5A 6491  14.992   8.210   8.175 -0.3791 -0.0235 -0.0302
  406loPI   C6A 6492  14.734   8.426   8.002  0.0031 -0.0501  0.0653
  406loPI   C1B 6493  15.479   8.327   9.831  0.2062 -0.1240  0.1493
  406loPI   C2B 6494  15.538   8.291   9.471 -0.0557  0.0205  0.3224
  406loPI   C3B 6495  15.566   8.427   9.038  0.2289  0.0143 -0.1701
  406loPI   C4B 6496  15.477   8.430   8.592 -0.0937 -0.0499  0.0412
  407loPI    C1 6497  10.343   3.318  10.756  0.0921 -0.0597  0.0265
  407loPI    C2 6498  10.483   3.153  11.093  0.1718 -0.1154 -0.0333
  407loPI    C3 6499  10.432   2.928  10.767  0.1248 -0.0551 -0.0679
  407loPI   PO4 6500  10.457   3.475  10.644 -0.1417  0.3113 -0.0974
  407loPI   GL1 6501  10.612   3.378  10.247  0.0527  0.0214  0.0191
  407loPI   GL2 6502  10.485   3.073  10.290 -0.1675  0.0135 -0.1544
  407loPI   C1A 6503  10.701   3.643   9.884 -0.0214  0.0236  0.2706
  407loPI   C2A 6504  10.733   3.712   9.473 -0.1740 -0.2802 -0.0236
  407loPI   C3A 6505  10.708   3.599   9.021  0.0449  0.1291  0.0670
  407loPI   C4A 6506  10.585   3.554   8.712 -0.0736  0.1449  0.0369
  407loPI   C5A 6507  10.279   3.396   8.361  0.2724  0.1024 -0.0265
  407loPI   C6A 6508   9.965   3.237   8.092  0.1748  0.2519 -0.0520
  407loPI   C1B 6509  10.432   3.092   9.858 -0.2186 -0.2535 -0.3228
  407loPI   C2B 6510  10.445   3.286   9.498 -0.3061 -0.1347  0.1765
  407loPI   C3B 6511  10.406   3.129   9.145  0.5030  0.1781 -0.0501
  407loPI   C4B 6512  10.375   3.093   8.762  0.0423 -0.3614  0.2106
  408loPI    C1 6513   2.325   8.487  10.984 -0.1013  0.1971 -0.1102
  408loPI    C2 6514   2.690   8.645  10.938  0.1364 -0.3483 -0.1758
  408loPI    C3 6515   2.528   8.617  11.303  0.1799 -0.1517 -0.1405
  408loPI   PO4 6516   2.142   8.577  10.805 -0.3083  0.1677 -0.0725
  408loPI   GL1 6517   2.117   8.563  10.440  0.0349  0.1375  0.0301
  408loPI   GL2 6518   1.932   8.171  10.298 -0.1947 -0.0156 -0.3196
  408loPI   C1A 6519   2.073   8.626  10.075  0.0638  0.0911  0.0660
  408loPI   C2A 6520   2.067   8.620   9.693  0.0573 -0.4393 -0.1228
  408loPI   C3A 6521   2.087   8.598   9.370  0.0541  0.0858  0.3557
  408loPI   C4A 6522   2.101   8.668   8.983 -0.0178  0.2970  0.0318
  408loPI   C5A 6523   2.050   8.646   8.563 -0.1646 -0.1184 -0.0980
  408loPI   C6A 6524   1.723   8.510   8.194 -0.0047  0.1366  0.2143
  408loPI   C1B 6525   1.994   8.187   9.882 -0.0969 -0.0527 -0.1381
  408loPI   C2B 6526   1.882   8.141   9.467 -0.1558 -0.0346 -0.1010
  408loPI   C3B 6527   1.828   8.117   9.114 -0.2002  0.0420  0.0790
  408loPI   C4B 6528   1.874   8.158   8.646 -0.0077 -0.0972 -0.1580
  409loPI    C1 6529   5.114   6.646  11.005 -0.1061  0.0845  0.0128
  409loPI    C2 6530   4.913   6.487  11.313  0.0515 -0.0912  0.0268
  409loPI    C3 6531   5.267   6.662  11.375 -0.2054  0.4451  0.0428
  409loPI   PO4 6532   4.830   6.845  10.837 -0.0110  0.0304  0.0842
  409loPI   GL1 6533   4.738   6.936  10.391  0.0530 -0.0775  0.0704
  409loPI   GL2 6534   4.909   7.232  10.456  0.1905 -0.1899 -0.1724
  409loPI   C1A 6535   4.764   6.873   9.937  0.0404  0.1806 -0.0303
  409loPI   C2A 6536   4.771   6.911   9.581  0.2785 -0.2432 -0.1574
  409loPI   C3A 6537   4.806   6.920   9.169 -0.3369  0.2067  0.2246
  409loPI   C4A 6538   4.658   6.946   8.751 -0.1250 -0.0645  0.2621
  409loPI   C5A 6539   4.381   7.016   8.348  0.0325 -0.0297  0.2106
  409loPI   C6A 6540   4.250   6.760   8.027 -0.1336  0.0337  0.1930
  409loPI   C1B 6541   5.061   7.330  10.046  0.2121 -0.0526  0.2592
  409loPI   C2B 6542   4.992   7.329   9.613 -0.3327 -0.2383 -0.0383
  409loPI   C3B 6543   4.961   7.435   9.206  0.1914 -0.0884  0.1242
  409loPI   C4B 6544   4.941   7.480   8.712  0.1118  0.1663  0.1017
  410loPI    C1 6545  10.473   1.652  10.809  0.0848 -0.1988  0.1942
  410loPI    C2 6546  10.316   1.380  11.056 -0.0336 -0.0649  0.2687
  410loPI    C3 6547  10.387   1.751  11.187  0.1879 -0.0764  0.1864
  410loPI   PO4 6548  10.283   1.662  10.576  0.0075  0.3671  0.0479
  410loPI   GL1 6549  10.247   1.440  10.237  0.2678  0.0716  0.0446
  410loPI   GL2 6550  10.576   1.325  10.124  0.0480 -0.1795 -0.2589
  410loPI   C1A 6551  10.112   1.319   9.866  0.4732  0.4098 -0.0244
  410loPI   C2A 6552  10.049   1.265   9.413  0.1180  0.0949 -0.1253
  410loPI   C3A 6553   9.991   1.344   9.032  0.0289  0.0728 -0.3777
  410loPI   C4A 6554   9.889   1.205   8.618  0.2050  0.1765  0.2066
  410loPI   C5A 6555   9.632   1.204   8.329 -0.2320  0.3355 -0.2541
  410loPI   C6A 6556   9.510   1.435   7.978 -0.0082 -0.0386  0.1099
  410loPI   C1B 6557  10.609   1.364   9.642 -0.0381  0.2050  0.3839
  410loPI   C2B 6558  10.600   1.319   9.135  0.5185 -0.1001 -0.1596
  410loPI   C3B 6559  10.546   1.284   8.732 -0.2399  0.3236  0.1965
  410loPI   C4B 6560  10.478   1.438   8.293  0.0246  0.3635 -0.1138
  411loPI    C1 6561  13.415  13.652  10.808 -0.1087 -0.0161 -0.1766
  411loPI    C2 6562  13.132  13.532  11.064  0.1106 -0.0351  0.0608
  411loPI    C3 6563  13.197  13.922  11.007 -0.1114 -0.0286 -0.1623
  411loPI   PO4 6564  13.419  13.594  10.512  0.0511 -0.0672 -0.3829
  411loPI   GL1 6565  13.536  13.406  10.102  0.0171 -0.0032 -0.0025
  411loPI   GL2 6566  13.721  13.639   9.999  0.0099  0.0977 -0.3508
  411loPI   C1A 6567  13.476  13.142   9.694 -0.0327 -0.0734 -0.1080
  411loPI   C2A 6568  13.378  13.215   9.340 -0.4903  0.2250 -0.2199
  411loPI   C3A 6569  13.462  13.161   8.988 -0.1929 -0.0709  0.0224
  411loPI   C4A 6570  13.430  13.215   8.518  0.0047 -0.0506  0.2280
  411loPI   C5A 6571  13.386  13.184   8.007  0.2917 -0.0747  0.0927
  411loPI   C6A 6572  13.244  12.852   7.739  0.1602  0.2387  0.2931
  411loPI   C1B 6573  13.707  13.578   9.542 -0.2706 -0.0766 -0.1351
  411loPI   C2B 6574  13.618  13.646   9.154 -0.0033  0.1803  0.2010
  411loPI   C3B 6575  13.639  13.640   8.759 -0.2559  0.2489 -0.1334
  411loPI   C4B 6576  13.612  13.657   8.358 -0.0501 -0.2140  0.0968
  412loPI    C1 6577   2.908   5.362  11.114  0.2491 -0.0887  0.0516
  412loPI    C2 6578   2.650   5.287  11.410  0.2923 -0.0791  0.0918
  412loPI    C3 6579   2.753   5.664  11.325  0.3204 -0.0851  0.0994
  412loPI   PO4 6580   2.880   5.262  10.903 -0.1320 -0.1420 -0.0340
  412loPI   GL1 6581   2.898   5.062  10.441 -0.4731 -0.0633 -0.0335
  412loPI   GL2 6582   2.925   5.376  10.426 -0.0816 -0.0462 -0.1946
  412loPI   C1A 6583   2.793   5.073  10.028 -0.1323 -0.0949  0.1334
  412loPI   C2A 6584   2.811   5.124   9.589  0.0898 -0.0104  0.2403
  412loPI   C3A 6585   2.824   5.116   9.109  0.1046 -0.0643 -0.1845
  412loPI   C4A 6586   2.888   5.100   8.800  0.0726  0.0421  0.0846
  412loPI   C5A 6587   3.005   5.211   8.311  0.2871 -0.1992 -0.2431
  412loPI   C6A 6588   3.321   5.151   8.060  0.0695  0.0630  0.1404
  412loPI   C1B 6589   3.028   5.512   9.938 -0.1051  0.1553 -0.1445
  412loPI   C2B 6590   3.001   5.627   9.580  0.0855  0.0825 -0.1155
  412loPI   C3B 6591   2.988   5.569   9.178 -0.2436  0.1316  0.0576
  412loPI   C4B 6592   3.103   5.570   8.698 -0.1522  0.2651 -0.0278
  413loPI    C1 6593  18.054  13.306  11.132 -0.1646 -0.0912  0.1531
  413loPI    C2 6594  18.241  13.511  11.421 -0.0519  0.0170  0.0053
  413loPI    C3 6595  17.846  13.553  11.369 -0.0115  0.2896 -0.0989
  413loPI   PO4 6596  18.179  13.299  10.928 -0.0060 -0.1468  0.0597
  413loPI   GL1 6597  18.161  13.274  10.627  0.0904 -0.1674  0.1032
  413loPI   GL2 6598  18.327  13.559  10.566  0.1820  0.1442 -0.2052
  413loPI   C1A 6599  18.059  13.375  10.161  0.1528 -0.1316  0.3905
  413loPI   C2A 6600  18.133  13.337   9.658 -0.0410  0.2108  0.0401
  413loPI   C3A 6601  18.068  13.377   9.144  0.0855  0.0937  0.0563
  413loPI   C4A 6602  18.017  13.494   8.683 -0.1433 -0.1855  0.0394
  413loPI   C5A 6603  18.536  13.417   8.544  0.0696  0.4820 -0.0548
  413loPI   C6A 6604  18.777  13.399   8.130  0.1941  0.2488 -0.3153
  413loPI   C1B 6605  18.593  13.518  10.296 -0.2238  0.1573 -0.1572
  413loPI   C2B 6606  18.691  13.400   9.936  0.0599 -0.2336 -0.0201
  413loPI   C3B 6607  18.605  13.418   9.486 -0.0970  0.2727 -0.2712
  413loPI   C4B 6608  18.580  13.450   9.096  0.1210 -0.0392  0.1194
  414loPI    C1 6609  13.940   9.086  11.366  0.1844  0.0829  0.0334
  414loPI    C2 6610  13.891   9.366  11.648 -0.2443  0.1703 -0.1199
  414loPI    C3 6611  14.078   9.023  11.736  0.0420  0.3886  0.1422
  414loPI   PO4 6612  14.057   9.249  11.124  0.0892 -0.0587 -0.2880
  414loPI   GL1 6613  14.021   9.293  10.639  0.0352 -0.1605  0.0318
  414loPI   GL2 6614  14.305   9.193  10.583  0.4388 -0.1150 -0.0087
  414loPI   C1A 6615  13.895   9.162  10.222 -0.0093 -0.0328 -0.1187
  414loPI   C2A 6616  13.901   9.190   9.794  0.0353  0.1407 -0.0489
  414loPI   C3A 6617  13.940   9.210   9.321 -0.1961 -0.0408 -0.1265
  414loPI   C4A 6618  13.802   9.215   8.899  0.1684  0.1979 -0.1078
  414loPI   C5A 6619  14.004   9.103   8.503  0.0840  0.0361  0.1415
  414loPI   C6A 6620  14.283   9.301   8.232  0.1161 -0.1911  0.3022
  414loPI   C1B 6621  14.366   9.180  10.084  0.0054  0.1923  0.2306
  414loPI   C2B 6622  14.466   9.250   9.675 -0.2918 -0.1288 -0.1914
  414loPI   C3B 6623  14.471   9.280   9.220 -0.0389  0.0977 -0.1465
  414loPI   C4B 6624  14.447   9.270   8.756 -0.2070 -0.1375 -0.0848
  415loPI    C1 6625   4.029  16.098  11.161  0.0781  0.0378 -0.1758
  415loPI    C2 6626   3.989  15.792  11.415 -0.0954  0.0449 -0.1934
  415loPI    C3 6627   4.221  16.103  11.512 -0.1494  0.0411 -0.0502
  415loPI   PO4 6628   4.156  16.077  10.901  0.0042 -0.1730  0.0422
  415loPI   GL1 6629   4.108  16.100  10.489  0.3275  0.0360  0.0226
  415loPI   GL2 6630   4.304  15.881  10.312  0.1138  0.1712 -0.1542
  415loPI   C1A 6631   4.005  16.247  10.104  0.2646 -0.3507  0.2795
  415loPI   C2A 6632   3.939  16.216   9.711  0.1471 -0.3015  0.0981
  415loPI   C3A 6633   3.924  16.261   9.244  0.1172 -0.0943  0.2964
  415loPI   C4A 6634   3.964  16.307   8.868  0.2210  0.0411  0.1565
  415loPI   C5A 6635   3.931  16.357   8.406 -0.3088  0.1399  0.0522
  415loPI   C6A 6636   3.918  16.415   7.848 -0.1801 -0.2118 -0.1194
  415loPI   C1B 6637   4.280  15.867   9.876  0.1440  0.0994  0.2243
  415loPI   C2B 6638   4.178  15.832   9.371 -0.3339 -0.1983  0.0976
  415loPI   C3B 6639   4.213  15.854   8.971  0.1337  0.1363  0.0558
  415loPI   C4B 6640   4.230  15.937   8.570  0.1545  0.1831  0.1026
  416loPI    C1 6641  10.710  16.685  10.585 -0.2614  0.0919  0.0958
  416loPI    C2 6642  10.752  16.333  10.770  0.2366  0.1828  0.1698
  416loPI    C3 6643  10.836  16.673  10.965  0.1147  0.3211 -0.0159
  416loPI   PO4 6644  10.882  16.700  10.418  0.2685  0.3024  0.0038
  416loPI   GL1 6645  10.843  16.946   9.987 -0.1936  0.1173 -0.2167
  416loPI   GL2 6646  10.580  17.222   9.958  0.2135 -0.0907 -0.2055
  416loPI   C1A 6647  10.739  16.688   9.715 -0.0218  0.0551  0.1756
  416loPI   C2A 6648  10.691  16.668   9.256 -0.1587  0.0833 -0.3856
  416loPI   C3A 6649  10.663  16.701   8.872 -0.2323 -0.0736 -0.0860
  416loPI   C4A 6650  10.762  16.723   8.468  0.6396 -0.0296 -0.0040
  416loPI   C5A 6651  10.694  16.681   8.179 -0.0071  0.0888  0.0248
  416loPI   C6A 6652  10.600  16.409   7.899 -0.0108  0.2999  0.1404
  416loPI   C1B 6653  10.486  17.112   9.606  0.0153  0.2072 -0.1144
  416loPI   C2B 6654  10.416  17.121   9.179 -0.1173 -0.0928  0.0938
  416loPI   C3B 6655  10.334  17.183   8.809 -0.1447 -0.1519 -0.4793
  416loPI   C4B 6656  10.428  17.160   8.396  0.1172 -0.3383 -0.0043
  417loPI    C1 6657  12.346   8.801  11.018  0.3321 -0.0893 -0.0304
  417loPI    C2 6658  12.149   8.571  11.280 -0.1789  0.1367 -0.2029
  417loPI    C3 6659  12.271   8.937  11.386  0.0416  0.0455 -0.1363
  417loPI   PO4 6660  12.280   8.679  10.801  0.0918  0.0478  0.0844
  417loPI   GL1 6661  12.019   8.694  10.422  0.1895  0.2830 -0.0519
  417loPI   GL2 6662  12.138   8.575  10.238 -0.0706 -0.0808 -0.1222
  417loPI   C1A 6663  11.702   8.699  10.057 -0.1669  0.1986  0.2825
  417loPI   C2A 6664  11.607   8.518   9.635  0.3249  0.0144 -0.0235
  417loPI   C3A 6665  11.554   8.504   9.238  0.0869  0.3041 -0.2372
  417loPI   C4A 6666  11.612   8.493   8.849  0.2764  0.0679  0.3010
  417loPI   C5A 6667  11.578   8.584   8.500  0.2848  0.2142 -0.2340
  417loPI   C6A 6668  11.718   8.751   8.132 -0.1337  0.0533 -0.1960
  417loPI   C1B 6669  12.135   8.692   9.831  0.1492  0.2819 -0.3618
  417loPI   C2B 6670  12.157   8.521   9.437  0.2634  0.1141  0.0492
  417loPI   C3B 6671  12.094   8.574   8.948 -0.3436 -0.0976 -0.0109
  417loPI   C4B 6672  12.065   8.514   8.527 -0.0103 -0.0122  0.1141
  418loPI    C1 6673   8.197   2.656  10.900 -0.2999  0.3016  0.1297
  418loPI    C2 6674   8.347   2.857  11.212 -0.0347 -0.1107  0.2764
  418loPI    C3 6675   8.285   2.462  11.239 -0.0682 -0.1422 -0.1734
  418loPI   PO4 6676   8.287   2.821  10.723  0.2024  0.0705 -0.0466
  418loPI   GL1 6677   8.596   2.795  10.440 -0.1100 -0.0815  0.1225
  418loPI   GL2 6678   8.683   2.571  10.372 -0.0301 -0.2212  0.1850
  418loPI   C1A 6679   8.454   3.029  10.084  0.0169 -0.0622 -0.0755
  418loPI   C2A 6680   8.462   3.054   9.620  0.1355  0.1740 -0.0213
  418loPI   C3A 6681   8.422   3.090   9.230 -0.0148 -0.0735 -0.0811
  418loPI   C4A 6682   8.389   3.029   8.868 -0.3185 -0.1360 -0.3925
  418loPI   C5A 6683   8.288   3.053   8.513  0.1044 -0.0510  0.3258
  418loPI   C6A 6684   8.380   2.987   8.121 -0.0887 -0.1032  0.1815
  418loPI   C1B 6685   8.690   2.546   9.947 -0.2211  0.0604 -0.1401
  418loPI   C2B 6686   8.727   2.538   9.480 -0.0900 -0.0232  0.2142
  418loPI   C3B 6687   8.606   2.588   9.018 -0.1889 -0.0066 -0.0827
  418loPI   C4B 6688   8.566   2.598   8.583  0.0761  0.2275 -0.1780
  419loPI    C1 6689   7.914   8.272  11.250 -0.0931 -0.2095 -0.0311
  419loPI    C2 6690   8.246   8.435  11.402 -0.0329 -0.2427 -0.1258
  419loPI    C3 6691   8.042   8.163  11.612 -0.0192 -0.1974 -0.0534
  419loPI   PO4 6692   8.021   8.193  10.997  0.4156 -0.2948 -0.2126
  419loPI   GL1 6693   7.826   8.413  10.596 -0.1796  0.0516  0.0489
  419loPI   GL2 6694   7.976   8.586  10.498  0.1079  0.0628 -0.1049
  419loPI   C1A 6695   7.593   8.413  10.214 -0.0155  0.2119  0.3365
  419loPI   C2A 6696   7.574   8.387   9.746  0.1742  0.0924 -0.0714
  419loPI   C3A 6697   7.479   8.344   9.351  0.1898  0.0860 -0.0403
  419loPI   C4A 6698   7.475   8.549   8.988  0.1381 -0.0669 -0.0983
  419loPI   C5A 6699   7.445   8.530   8.522  0.3535  0.0594  0.1871
  419loPI   C6A 6700   7.198   8.312   8.156  0.0687 -0.1949  0.0669
  419loPI   C1B 6701   8.064   8.426   9.973  0.1943 -0.0516 -0.5121
  419loPI   C2B 6702   8.100   8.487   9.544  0.0079 -0.3827  0.1271
  419loPI   C3B 6703   8.060   8.531   9.151 -0.0157 -0.2167 -0.0075
  419loPI   C4B 6704   7.909   8.473   8.683 -0.1467  0.0620  0.0570
  420loPI    C1 6705   0.249  17.177  10.953  0.0739  0.3041 -0.1286
  420loPI    C2 6706  -0.033  17.430  11.081 -0.2434 -0.0773 -0.0546
  420loPI    C3 6707   0.221  17.265  11.342 -0.1337  0.0473 -0.0819
  420loPI   PO4 6708   0.185  17.043  10.795 -0.0327  0.0069 -0.0309
  420loPI   GL1 6709   0.451  16.981  10.436  0.1290  0.2792 -0.2023
  420loPI   GL2 6710   0.841  16.980  10.421  0.0494  0.1447 -0.1841
  420loPI   C1A 6711   0.366  17.004   9.998 -0.2158  0.2507  0.1525
  420loPI   C2A 6712   0.222  17.047   9.591 -0.2937 -0.0250  0.3125
  420loPI   C3A 6713   0.259  17.065   9.133 -0.0282 -0.0072 -0.3403
  420loPI   C4A 6714   0.248  17.075   8.691  0.3077  0.2698  0.2003
  420loPI   C5A 6715   0.353  16.903   8.314 -0.2583  0.2019  0.1215
  420loPI   C6A 6716   0.342  16.828   7.950 -0.0603  0.1629  0.2017
  420loPI   C1B 6717   0.856  17.040   9.954 -0.1874  0.1478  0.1714
  420loPI   C2B 6718   0.811  16.943   9.578 -0.1504 -0.1327 -0.0110
  420loPI   C3B 6719   0.759  17.064   9.049 -0.0522 -0.0561  0.2085
  420loPI   C4B 6720   0.725  17.109   8.609  0.1146 -0.2891 -0.0419
  421loPI    C1 6721  16.146   1.052  10.601 -0.2240 -0.3049 -0.1872
  421loPI    C2 6722  16.465   0.812  10.618  0.0459  0.0562 -0.0144
  421loPI    C3 6723  16.264   0.901  10.952 -0.0050  0.1320 -0.0648
  421loPI   PO4 6724  16.067   0.981  10.392 -0.0160 -0.1253 -0.0541
  421loPI   GL1 6725  15.959   1.118   9.917 -0.0063  0.1766 -0.0607
  421loPI   GL2 6726  16.208   1.379  10.086 -0.0640  0.0821 -0.0169
  421loPI   C1A 6727  16.013   1.157   9.506  0.0895  0.1475 -0.2142
  421loPI   C2A 6728  16.025   1.099   9.070  0.0432 -0.0678  0.1921
  421loPI   C3A 6729  15.968   1.194   8.682 -0.1171  0.1390 -0.1637
  421loPI   C4A 6730  15.977   1.261   8.318 -0.1450  0.2951 -0.2628
  421loPI   C5A 6731  15.752   1.189   7.882 -0.0896 -0.0069 -0.3020
  421loPI   C6A 6732  15.408   0.939   7.665 -0.0340 -0.0829  0.1821
  421loPI   C1B 6733  16.152   1.590   9.761  0.1510  0.0207 -0.1434
  421loPI   C2B 6734  16.265   1.595   9.303 -0.0077 -0.0528 -0.0519
  421loPI   C3B 6735  16.340   1.633   8.891 -0.2291 -0.1297  0.0515
  421loPI   C4B 6736  16.132   1.728   8.494  0.5607 -0.0689 -0.1243
  422loPI    C1 6737   5.803   0.896  10.989 -0.1372 -0.0875 -0.3185
  422loPI    C2 6738   5.697   1.232  11.178 -0.0266 -0.2500  0.0431
  422loPI    C3 6739   6.064   1.198  11.023 -0.0809 -0.1577 -0.1083
  422loPI   PO4 6740   5.647   0.825  10.801  0.0428  0.2988  0.1488
  422loPI   GL1 6741   5.628   0.973  10.353 -0.1060  0.2253 -0.1653
  422loPI   GL2 6742   5.735   0.685  10.129  0.1590 -0.0203  0.3020
  422loPI   C1A 6743   5.532   1.242  10.026 -0.1082 -0.0755 -0.3536
  422loPI   C2A 6744   5.623   1.427   9.602  0.4576 -0.0242  0.0603
  422loPI   C3A 6745   5.567   1.390   9.163 -0.2200  0.1449  0.0643
  422loPI   C4A 6746   5.617   1.425   8.695 -0.2267  0.0368  0.0811
  422loPI   C5A 6747   5.655   1.373   8.206  0.2049 -0.0281  0.0122
  422loPI   C6A 6748   5.365   1.353   7.861 -0.1273 -0.0959  0.1359
  422loPI   C1B 6749   5.683   0.515   9.750 -0.2543  0.3402 -0.2477
  422loPI   C2B 6750   5.641   0.457   9.351  0.1317  0.0403 -0.2537
  422loPI   C3B 6751   5.687   0.560   9.085 -0.1932 -0.0203 -0.1835
  422loPI   C4B 6752   5.681   0.561   8.637 -0.0425  0.0416 -0.0823
  423loPI    C1 6753   3.428   2.606  10.533  0.1379  0.1073 -0.0108
  423loPI    C2 6754   3.780   2.474  10.669  0.2172  0.2138 -0.1112
  423loPI    C3 6755   3.463   2.483  10.912  0.3085  0.2134  0.0090
  423loPI   PO4 6756   3.498   2.529  10.252 -0.0480 -0.2775  0.0951
  423loPI   GL1 6757   3.316   2.664   9.943 -0.0438  0.0936  0.3371
  423loPI   GL2 6758   3.015   2.774   9.744 -0.0865  0.0635  0.2075
  423loPI   C1A 6759   3.512   2.426   9.553  0.0062  0.1134 -0.1729
  423loPI   C2A 6760   3.649   2.533   9.180  0.0376  0.0380 -0.0723
  423loPI   C3A 6761   3.631   2.763   8.725  0.2162  0.0457  0.0399
  423loPI   C4A 6762   3.709   2.864   8.311 -0.2864 -0.0433 -0.2932
  423loPI   C5A 6763   4.008   2.803   8.017 -0.0806  0.2946 -0.0770
  423loPI   C6A 6764   4.110   2.767   7.643  0.0129  0.2241 -0.2016
  423loPI   C1B 6765   3.120   2.692   9.309 -0.1669 -0.3009 -0.1081
  423loPI   C2B 6766   3.111   2.590   8.841  0.2952 -0.0905  0.0489
  423loPI   C3B 6767   3.152   2.860   8.387 -0.2225  0.3841  0.0783
  423loPI   C4B 6768   3.189   2.892   7.977 -0.1218  0.1842  0.0208
  424loPI    C1 6769  12.644  15.293  10.570  0.3253  0.2086 -0.2248
  424loPI    C2 6770  12.947  15.495  10.736  0.3261 -0.0582  0.1099
  424loPI    C3 6771  12.582  15.516  10.897  0.3151 -0.2795  0.1167
  424loPI   PO4 6772  12.704  15.292  10.291  0.0376 -0.3262  0.1394
  424loPI   GL1 6773  12.631  15.099  10.013 -0.1324 -0.2064 -0.0418
  424loPI   GL2 6774  12.613  15.305   9.815 -0.2171  0.1554  0.2593
  424loPI   C1A 6775  12.503  14.875   9.647 -0.1238  0.4541  0.0013
  424loPI   C2A 6776  12.380  14.875   9.154 -0.1247 -0.0052 -0.1092
  424loPI   C3A 6777  12.232  14.935   8.824  0.0479  0.1677 -0.2243
  424loPI   C4A 6778  12.241  15.000   8.414 -0.2116  0.2499  0.0376
  424loPI   C5A 6779  12.206  14.848   7.921  0.0110  0.1380 -0.0525
  424loPI   C6A 6780  11.706  14.709   7.775 -0.0148 -0.0053  0.0749
  424loPI   C1B 6781  12.628  15.281   9.453 -0.2824 -0.0787  0.2671
  424loPI   C2B 6782  12.485  15.391   9.004  0.1007  0.0511  0.1194
  424loPI   C3B 6783  12.501  15.456   8.520 -0.1783  0.2580  0.1015
  424loPI   C4B 6784  12.486  15.542   8.037 -0.3433  0.3161 -0.0581
  425loPI    C1 6785   7.119   7.933  11.267  0.0776  0.2347 -0.2197
  425loPI    C2 6786   6.730   8.026  11.259  0.0069 -0.0124  0.1325
  425loPI    C3 6787   6.985   8.249  11.473  0.0519  0.1172 -0.0540
  425loPI   PO4 6788   7.163   7.782  11.016 -0.0206  0.3624  0.1484
  425loPI   GL1 6789   7.194   7.857  10.589 -0.0759  0.1683 -0.2575
  425loPI   GL2 6790   7.379   8.049  10.410  0.3494 -0.0710 -0.1372
  425loPI   C1A 6791   6.923   7.835  10.233  0.1152 -0.0342 -0.1977
  425loPI   C2A 6792   6.785   7.909   9.842  0.1769 -0.0458  0.0550
  425loPI   C3A 6793   6.819   7.904   9.382 -0.3102 -0.3357  0.1608
  425loPI   C4A 6794   6.705   8.052   8.864 -0.0298  0.0859  0.1307
  425loPI   C5A 6795   6.719   8.163   8.359  0.1008 -0.0454  0.0006
  425loPI   C6A 6796   6.393   8.455   8.154 -0.4298 -0.2847 -0.0307
  425loPI   C1B 6797   7.294   7.961   9.929 -0.0609  0.0221 -0.0410
  425loPI   C2B 6798   7.336   7.924   9.554 -0.0075  0.2404  0.0572
  425loPI   C3B 6799   7.358   7.919   9.105  0.4140 -0.0989 -0.0766
  425loPI   C4B 6800   7.236   8.041   8.748 -0.2823 -0.3600  0.2139
  426loPI    C1 6801  14.809   8.381  10.890 -0.1608 -0.3371  0.1024
  426loPI    C2 6802  14.944   8.254  11.245  0.1970  0.3916  0.2455
  426loPI    C3 6803  14.561   8.364  11.204  0.0164 -0.1997  0.2519
  426loPI   PO4 6804  14.819   8.122  10.744  0.4226 -0.2319  0.2564
  426loPI   GL1 6805  14.837   7.888  10.223  0.1439  0.0630  0.3683
  426loPI   GL2 6806  14.907   8.164  10.262 -0.1468 -0.0215 -0.2012
  426loPI   C1A 6807  14.852   7.815   9.794 -0.1126  0.0679  0.1465
  426loPI   C2A 6808  14.755   7.930   9.259 -0.1192  0.1749  0.0266
  426loPI   C3A 6809  14.710   7.976   8.766 -0.0135  0.3909  0.2278
  426loPI   C4A 6810  14.657   7.884   8.305 -0.0760  0.0376 -0.0434
  426loPI   C5A 6811  14.379   8.043   7.965  0.2645  0.3075 -0.3562
  426loPI   C6A 6812  14.132   8.478   7.980  0.2592 -0.0834  0.0355
  426loPI   C1B 6813  15.005   8.334   9.775  0.3671 -0.2120 -0.1747
  426loPI   C2B 6814  15.077   8.359   9.375  0.0880 -0.0301  0.2391
  426loPI   C3B 6815  14.962   8.352   9.003 -0.0953  0.1926 -0.2379
  426loPI   C4B 6816  14.843   8.395   8.610 -0.1282 -0.1159 -0.1384
  427loPI    C1 6817  11.558  14.644  10.581  0.0514 -0.0646  0.0169
  427loPI    C2 6818  11.856  14.911  10.586  0.1447 -0.1696  0.1685
  427loPI    C3 6819  11.830  14.635  10.874 -0.1701 -0.0847  0.2256
  427loPI   PO4 6820  11.580  14.555  10.322  0.2724  0.1181 -0.3649
  427loPI   GL1 6821  11.644  14.451   9.802 -0.0270 -0.1410 -0.0704
  427loPI   GL2 6822  11.856  14.278  10.066  0.2004  0.0377 -0.0459
  427loPI   C1A 6823  11.680  14.463   9.350 -0.3056 -0.0698 -0.2333
  427loPI   C2A 6824  11.633  14.449   8.827  0.4933 -0.0756 -0.2204
  427loPI   C3A 6825  11.448  14.460   8.376  0.2963 -0.0773 -0.0631
  427loPI   C4A 6826  11.545  14.223   7.984  0.0231 -0.2004  0.0235
  427loPI   C5A 6827  11.694  13.896   7.871 -0.3898  0.3168  0.1571
  427loPI   C6A 6828  11.674  13.678   7.504 -0.1979 -0.1110  0.0037
  427loPI   C1B 6829  11.848  14.024   9.743  0.0846  0.1026  0.1479
  427loPI   C2B 6830  11.876  14.037   9.275 -0.1047  0.3870 -0.1448
  427loPI   C3B 6831  11.836  14.011   8.846  0.0670  0.1348  0.1515
  427loPI   C4B 6832  11.824  14.063   8.375  0.0190  0.3168  0.2092
  428loPI    C1 6833   2.789   4.435  10.840  0.2175 -0.3092 -0.1521
  428loPI    C2 6834   2.395   4.365  10.844  0.1191  0.2112  0.0251
  428loPI    C3 6835   2.632   4.189  11.114  0.0408 -0.2434 -0.1933
  428loPI   PO4 6836   2.832   4.498  10.523  0.2317  0.0756  0.1088
  428loPI   GL1 6837   2.522   4.571  10.243 -0.2627  0.2366  0.1867
  428loPI   GL2 6838   2.331   4.408  10.331 -0.0312 -0.1030  0.1550
  428loPI   C1A 6839   2.586   4.704   9.798  0.2619  0.0136  0.0712
  428loPI   C2A 6840   2.523   4.706   9.351  0.1612  0.2550 -0.2772
  428loPI   C3A 6841   2.644   4.656   8.956 -0.3004 -0.0516 -0.2880
  428loPI   C4A 6842   2.662   4.773   8.530 -0.0357  0.1478  0.2185
  428loPI   C5A 6843   2.670   4.429   8.150  0.3551  0.2074  0.0114
  428loPI   C6A 6844   2.631   4.195   7.863 -0.0309  0.0496 -0.0754
  428loPI   C1B 6845   2.075   4.439  10.034 -0.0188  0.0743 -0.1149
  428loPI   C2B 6846   2.065   4.629   9.617 -0.1300  0.0888  0.1423
  428loPI   C3B 6847   2.078   4.580   9.123  0.1526 -0.2905  0.0478
  428loPI   C4B 6848   2.168   4.641   8.597  0.3647 -0.0492 -0.0675
  429loPI    C1 6849  16.563   7.517  11.195 -0.0500  0.0873  0.3344
  429loPI    C2 6850  16.204   7.676  11.269 -0.0608  0.0786  0.3005
  429loPI    C3 6851  16.473   7.645  11.563 -0.1044  0.0427  0.3368
  429loPI   PO4 6852  16.551   7.632  10.918  0.0868 -0.4160  0.2990
  429loPI   GL1 6853  16.448   7.555  10.563 -0.0347 -0.3265  0.1294
  429loPI   GL2 6854  16.197   7.381  10.363 -0.4105  0.2075 -0.0665
  429loPI   C1A 6855  16.387   7.881  10.261  0.1221  0.2390 -0.0464
  429loPI   C2A 6856  16.346   7.924   9.836 -0.2961 -0.1249  0.2521
  429loPI   C3A 6857  16.370   7.928   9.405 -0.1263 -0.0594  0.0329
  429loPI   C4A 6858  16.301   7.959   8.949 -0.2567  0.1350  0.3451
  429loPI   C5A 6859  16.269   7.928   8.509 -0.0394 -0.3556  0.0142
  429loPI   C6A 6860  16.056   7.800   8.305  0.1654 -0.1534  0.1139
  429loPI   C1B 6861  16.071   7.506  10.054  0.0350  0.1717  0.1809
  429loPI   C2B 6862  16.143   7.494   9.610 -0.0980  0.2840  0.2002
  429loPI   C3B 6863  16.034   7.524   9.222 -0.1464  0.0183 -0.1178
  429loPI   C4B 6864  16.016   7.549   8.811  0.3332  0.0182  0.0968
  430loPI    C1 6865  17.197   6.209  10.968 -0.1017  0.0604  0.0543
  430loPI    C2 6866  17.047   5.857  10.852 -0.0310 -0.0120  0.1804
  430loPI    C3 6867  16.949   6.008  11.209 -0.1348  0.1413  0.0878
  430loPI   PO4 6868  17.129   6.364  10.723 -0.1906 -0.1949 -0.0806
  430loPI   GL1 6869  17.240   6.502  10.320  0.1209  0.2275  0.1246
  430loPI   GL2 6870  17.436   6.227  10.142 -0.0997 -0.1016  0.1091
  430loPI   C1A 6871  17.149   6.684   9.748  0.0933 -0.0780 -0.1373
  430loPI   C2A 6872  17.142   6.707   9.307  0.1940  0.0887 -0.1520
  430loPI   C3A 6873  17.100   6.704   8.823 -0.0384 -0.0682 -0.1652
  430loPI   C4A 6874  16.892   6.426   8.333 -0.0844 -0.0867  0.2643
  430loPI   C5A 6875  16.454   6.334   8.049 -0.2030 -0.1702 -0.6034
  430loPI   C6A 6876  16.358   6.224   7.561  0.1502  0.0867 -0.1276
  430loPI   C1B 6877  17.422   6.219   9.800 -0.3274  0.1402  0.0388
  430loPI   C2B 6878  17.415   6.283   9.300  0.2706 -0.1582  0.3960
  430loPI   C3B 6879  17.387   6.250   8.858 -0.1733  0.1256  0.1231
  430loPI   C4B 6880  17.348   6.358   8.401 -0.2161  0.0758  0.1233
  431loPI    C1 6881  12.690   0.502  10.414  0.2045  0.2263 -0.0181
  431loPI    C2 6882  12.715   0.785  10.694 -0.0025  0.1566  0.0731
  431loPI    C3 6883  12.621   0.410  10.797  0.0362  0.1054 -0.0760
  431loPI   PO4 6884  12.556   0.611  10.216 -0.1517  0.2409  0.0162
  431loPI   GL1 6885  12.235   0.866  10.188  0.0087  0.4120  0.1632
  431loPI   GL2 6886  11.977   0.554  10.134 -0.0427 -0.2423  0.2830
  431loPI   C1A 6887  11.951   0.945   9.752  0.3242  0.2751 -0.0027
  431loPI   C2A 6888  11.796   0.947   9.328 -0.2594  0.1887  0.2330
  431loPI   C3A 6889  11.822   0.911   8.924  0.4252  0.0276 -0.3673
  431loPI   C4A 6890  11.786   0.911   8.470  0.1090  0.0432  0.1070
  431loPI   C5A 6891  11.689   1.083   8.076  0.0108 -0.0903  0.4703
  431loPI   C6A 6892  11.634   1.497   7.818 -0.0514  0.0562  0.1898
  431loPI   C1B 6893  11.686   0.455   9.816  0.2398  0.0815 -0.1302
  431loPI   C2B 6894  11.545   0.507   9.410 -0.2313 -0.3859 -0.1890
  431loPI   C3B 6895  11.493   0.494   9.039  0.0548  0.1908 -0.3081
  431loPI   C4B 6896  11.610   0.488   8.626  0.0372 -0.0913 -0.0164
  432loPI    C1 6897  10.537  13.503  10.926  0.2971 -0.3052 -0.0052
  432loPI    C2 6898  10.755  13.245  11.140  0.0903 -0.1882  0.3567
  432loPI    C3 6899  10.596  13.567  11.317  0.0180 -0.0198 -0.0050
  432loPI   PO4 6900  10.601  13.492  10.635  0.3376 -0.0640  0.2606
  432loPI   GL1 6901  10.558  13.569  10.251 -0.2184  0.1806 -0.0202
  432loPI   GL2 6902  10.231  13.609  10.281 -0.0485  0.0341  0.3427
  432loPI   C1A 6903  10.559  13.526   9.785 -0.2034 -0.0376  0.0431
  432loPI   C2A 6904  10.600  13.544   9.278  0.1679 -0.3359 -0.2680
  432loPI   C3A 6905  10.585  13.493   8.883  0.2406  0.0901 -0.1391
  432loPI   C4A 6906  10.576  13.612   8.465 -0.2819  0.2249  0.1214
  432loPI   C5A 6907  10.361  13.548   8.104  0.0095 -0.0809  0.0006
  432loPI   C6A 6908  10.292  13.660   7.728 -0.0839  0.1691  0.1242
  432loPI   C1B 6909  10.083  13.615   9.935  0.1126  0.0013  0.1378
  432loPI   C2B 6910  10.097  13.544   9.460  0.0518  0.2318  0.4182
  432loPI   C3B 6911  10.110  13.582   9.040 -0.3458 -0.5313  0.0883
  432loPI   C4B 6912  10.103  13.441   8.594 -0.0063  0.1192 -0.3623
  433loPI    C1 6913   8.223   1.250  10.976  0.0030 -0.1894 -0.0016
  433loPI    C2 6914   8.124   0.932  11.198 -0.4504 -0.0020  0.0745
  433loPI    C3 6915   8.227   1.276  11.375  0.1346 -0.1264 -0.0067
  433loPI   PO4 6916   8.183   1.201  10.699 -0.1034 -0.1374  0.0867
  433loPI   GL1 6917   8.078   1.277  10.294 -0.1172  0.0596 -0.4329
  433loPI   GL2 6918   8.245   1.544  10.259  0.5641 -0.0442  0.0173
  433loPI   C1A 6919   7.979   1.139   9.905  0.2094 -0.0383  0.3539
  433loPI   C2A 6920   7.990   1.133   9.450  0.2019 -0.3013 -0.0925
  433loPI   C3A 6921   7.961   1.226   9.012  0.0261 -0.1174 -0.0808
  433loPI   C4A 6922   7.972   1.191   8.599 -0.0068  0.2131 -0.0792
  433loPI   C5A 6923   7.815   1.200   8.149  0.3234 -0.0365 -0.2306
  433loPI   C6A 6924   7.537   0.791   8.061 -0.1975 -0.2218 -0.3194
  433loPI   C1B 6925   8.279   1.603   9.845 -0.2022  0.3110  0.0873
  433loPI   C2B 6926   8.208   1.590   9.395 -0.0454 -0.2377  0.1465
  433loPI   C3B 6927   8.169   1.723   9.022 -0.1259  0.1032  0.0540
  433loPI   C4B 6928   8.172   1.678   8.620  0.2372 -0.1241 -0.0819
  434loPI    C1 6929  14.088   2.503  10.601  0.1354  0.2001  0.0812
  434loPI    C2 6930  13.907   2.157  10.685  0.2181  0.1091 -0.1075
  434loPI    C3 6931  14.144   2.330  10.957  0.2938 -0.0582 -0.0654
  434loPI   PO4 6932  13.921   2.592  10.389  0.0317 -0.3705  0.1850
  434loPI   GL1 6933  14.000   2.934  10.027 -0.2912  0.1921  0.1009
  434loPI   GL2 6934  14.317   2.867   9.774  0.0220  0.0385 -0.0883
  434loPI   C1A 6935  13.827   3.037   9.643 -0.0267  0.3185  0.0652
  434loPI   C2A 6936  13.821   2.918   9.175  0.0275 -0.0083  0.0147
  434loPI   C3A 6937  13.742   2.843   8.769  0.0002  0.0099 -0.0064
  434loPI   C4A 6938  13.674   2.876   8.315 -0.1084  0.0799  0.2735
  434loPI   C5A 6939  13.877   2.933   7.933 -0.4131 -0.0911  0.2157
  434loPI   C6A 6940  13.969   3.006   7.487  0.0242 -0.3107 -0.2834
  434loPI   C1B 6941  14.314   2.925   9.356 -0.1265 -0.1675  0.1055
  434loPI   C2B 6942  14.255   2.901   8.889  0.0821  0.2280 -0.1484
  434loPI   C3B 6943  14.299   2.853   8.407  0.0103  0.2885 -0.1531
  434loPI   C4B 6944  14.393   2.782   7.942  0.0993  0.1783  0.1899
  435loPI    C1 6945  15.374  10.688  11.041  0.1631 -0.2526 -0.0729
  435loPI    C2 6946  15.578  11.010  11.164  0.0257 -0.0958 -0.2498
  435loPI    C3 6947  15.589  10.672  11.378  0.1614  0.0298 -0.0562
  435loPI   PO4 6948  15.386  10.721  10.787 -0.1353  0.0399 -0.0392
  435loPI   GL1 6949  15.517  10.518  10.485 -0.1315 -0.1574 -0.2853
  435loPI   GL2 6950  15.721  10.438  10.417 -0.3248  0.0258  0.0375
  435loPI   C1A 6951  15.361  10.944  10.216 -0.0523 -0.0274 -0.5910
  435loPI   C2A 6952  15.313  11.042   9.788  0.0489 -0.2328 -0.2711
  435loPI   C3A 6953  15.323  11.066   9.403  0.2813 -0.1407 -0.0315
  435loPI   C4A 6954  15.333  11.007   8.962  0.0992  0.0451  0.1380
  435loPI   C5A 6955  15.483  11.043   8.477 -0.1928 -0.2639  0.0266
  435loPI   C6A 6956  15.415  10.730   8.213  0.1807 -0.0181  0.1405
  435loPI   C1B 6957  15.572  10.574   9.871  0.2733 -0.0049 -0.3523
  435loPI   C2B 6958  15.625  10.664   9.397 -0.0103  0.2280 -0.0777
  435loPI   C3B 6959  15.631  10.594   9.013  0.1130 -0.0058 -0.0885
  435loPI   C4B 6960  15.645  10.574   8.642  0.1979  0.2799 -0.2158
  436loPI    C1 6961   6.756   1.072  10.960  0.1059 -0.0698 -0.1133
  436loPI    C2 6962   6.504   1.086  11.271  0.0478 -0.1298 -0.1576
  436loPI    C3 6963   6.859   0.906  11.309  0.1493  0.0893 -0.0494
  436loPI   PO4 6964   6.596   0.967  10.760  0.0038 -0.1143 -0.1026
  436loPI   GL1 6965   6.525   0.988  10.348 -0.0409 -0.2837  0.1657
  436loPI   GL2 6966   6.792   1.064  10.327  0.0521 -0.0711  0.1759
  436loPI   C1A 6967   6.490   1.087   9.960  0.2178 -0.1717 -0.1725
  436loPI   C2A 6968   6.516   1.032   9.528  0.0385 -0.0721 -0.1101
  436loPI   C3A 6969   6.435   1.070   9.165 -0.1741  0.1777 -0.1514
  436loPI   C4A 6970   6.390   1.059   8.737 -0.0678 -0.0431 -0.1807
  436loPI   C5A 6971   6.385   1.018   8.281 -0.0578 -0.0300 -0.0299
  436loPI   C6A 6972   6.074   1.134   8.066  0.3581 -0.1772 -0.0602
  436loPI   C1B 6973   7.010   1.068   9.823  0.0700 -0.1829 -0.2929
  436loPI   C2B 6974   7.011   1.039   9.452  0.2620  0.0483  0.0239
  436loPI   C3B 6975   6.991   1.174   9.048 -0.2723  0.3235  0.2436
  436loPI   C4B 6976   6.896   1.015   8.638  0.2801 -0.0262 -0.1096
  437loPI    C1 6977  14.079   3.028  10.666  0.0830  0.4094  0.0355
  437loPI    C2 6978  13.928   3.185  11.001 -0.0596  0.0122  0.1626
  437loPI    C3 6979  14.090   2.818  11.006 -0.1065 -0.0174 -0.2127
  437loPI   PO4 6980  13.987   3.102  10.539  0.1816  0.2901 -0.2055
  437loPI   GL1 6981  14.218   3.398  10.269  0.0963  0.0017  0.2935
  437loPI   GL2 6982  14.514   3.190  10.040  0.0178 -0.3157  0.2617
  437loPI   C1A 6983  14.044   3.450   9.902 -0.0402 -0.1657 -0.1514
  437loPI   C2A 6984  14.060   3.408   9.397  0.0590 -0.2785 -0.3803
  437loPI   C3A 6985  14.014   3.341   9.023  0.0354 -0.0187  0.0132
  437loPI   C4A 6986  13.961   3.262   8.603  0.3458  0.1248 -0.0575
  437loPI   C5A 6987  14.025   3.290   8.321  0.3115 -0.1277  0.0000
  437loPI   C6A 6988  14.145   3.377   7.862 -0.0016  0.2897  0.3272
  437loPI   C1B 6989  14.572   3.439   9.601  0.1927  0.1488  0.2771
  437loPI   C2B 6990  14.589   3.327   9.104 -0.0397 -0.0302 -0.1121
  437loPI   C3B 6991  14.480   3.261   8.611 -0.0975 -0.2910  0.4140
  437loPI   C4B 6992  14.528   3.386   8.229 -0.3286  0.0694  0.3091
  438loPI    C1 6993  13.837  16.774  10.254  0.1472 -0.0858 -0.1198
  438loPI    C2 6994  14.153  16.742  10.497  0.0057 -0.1454  0.0578
  438loPI    C3 6995  13.869  17.014  10.572  0.0289 -0.0715 -0.1184
  438loPI   PO4 6996  13.906  16.748  10.013 -0.0285 -0.1266 -0.1139
  438loPI   GL1 6997  14.057  16.463   9.720 -0.2540  0.0373  0.0533
  438loPI   GL2 6998  14.257  16.865   9.531  0.0676 -0.0585 -0.1045
  438loPI   C1A 6999  14.110  16.366   9.300 -0.1232 -0.1921 -0.0694
  438loPI   C2A 7000  14.142  16.336   8.921 -0.3908  0.1071  0.3077
  438loPI   C3A 7001  14.044  16.388   8.523 -0.2193  0.0090  0.1097
  438loPI   C4A 7002  13.583  16.413   8.337  0.4173  0.3121  0.1236
  438loPI   C5A 7003  13.384  16.255   8.005  0.0958  0.0659 -0.0482
  438loPI   C6A 7004  13.302  15.840   7.840 -0.1793  0.1461  0.1891
  438loPI   C1B 7005  14.309  16.808   9.077  0.0865 -0.0446  0.0880
  438loPI   C2B 7006  14.316  16.907   8.677 -0.0274 -0.0801 -0.1236
  438loPI   C3B 7007  14.251  16.810   8.241 -0.0186  0.1619  0.0018
  438loPI   C4B 7008  14.036  16.722   7.967 -0.4245 -0.1462 -0.0199
  439loPI    C1 7009  10.941   2.838  11.028  0.2118 -0.1817  0.1212
  439loPI    C2 7010  10.639   2.718  11.260  0.0285 -0.1102 -0.0771
  439loPI    C3 7011  11.010   2.736  11.408 -0.1024  0.0413  0.2416
  439loPI   PO4 7012  10.877   2.722  10.755 -0.1944  0.0341 -0.0507
  439loPI   GL1 7013  10.871   2.805  10.431  0.3734  0.1174 -0.3669
  439loPI   GL2 7014  10.917   2.536  10.212  0.0334  0.0663 -0.0626
  439loPI   C1A 7015  10.989   3.016  10.016  0.2865  0.3808 -0.2618
  439loPI   C2A 7016  10.914   3.280   9.647  0.1342  0.0914  0.2188
  439loPI   C3A 7017  10.902   3.188   9.251 -0.1185  0.0026  0.2234
  439loPI   C4A 7018  10.909   3.161   8.810  0.0944  0.2095 -0.0140
  439loPI   C5A 7019  10.755   3.150   8.386  0.2644  0.2825 -0.1628
  439loPI   C6A 7020  11.011   3.357   8.140 -0.1753  0.1321  0.1936
  439loPI   C1B 7021  10.681   2.638   9.956  0.1778 -0.0397 -0.1583
  439loPI   C2B 7022  10.721   2.813   9.527  0.0997  0.0529  0.0844
  439loPI   C3B 7023  10.677   2.732   9.072 -0.0880 -0.0827  0.0951
  439loPI   C4B 7024  10.672   2.656   8.623  0.2053 -0.3445 -0.0468
  440loPI    C1 7025  17.894  12.331  11.046 -0.1964 -0.0643 -0.2234
  440loPI    C2 7026  17.513  12.280  11.157 -0.1217  0.0282  0.0850
  440loPI    C3 7027  17.804  12.080  11.344 -0.0100  0.0203 -0.0945
  440loPI   PO4 7028  17.849  12.338  10.741 -0.0045  0.1842 -0.2279
  440loPI   GL1 7029  17.911  12.527  10.391  0.1287 -0.0919 -0.0671
  440loPI   GL2 7030  17.563  12.446  10.268  0.2321 -0.0124  0.1738
  440loPI   C1A 7031  18.060  12.347  10.080 -0.0144  0.1001  0.0187
  440loPI   C2A 7032  18.121  12.524   9.672  0.1595  0.3347  0.4320
  440loPI   C3A 7033  18.144  12.483   9.211  0.1236 -0.0396  0.1143
  440loPI   C4A 7034  18.055  12.516   8.738 -0.0614  0.1695 -0.0606
  440loPI   C5A 7035  18.315  12.245   8.435 -0.1655  0.0136  0.1688
  440loPI   C6A 7036  18.539  11.981   8.159  0.1410 -0.1418  0.0079
  440loPI   C1B 7037  17.599  12.413   9.818  0.1315 -0.1875 -0.2393
  440loPI   C2B 7038  17.597  12.427   9.419 -0.4259  0.1203 -0.0347
  440loPI   C3B 7039  17.621  12.429   8.992  0.2059 -0.0040  0.4714
  440loPI   C4B 7040  17.572  12.470   8.563 -0.0906  0.2275  0.1178
  441loPI    C1 7041   9.204  10.985  11.003  0.0331  0.0727 -0.0718
  441loPI    C2 7042   9.304  11.308  11.217 -0.1510  0.1845 -0.1519
  441loPI    C3 7043   9.431  10.946  11.330 -0.0646  0.2674  0.0215
  441loPI   PO4 7044   9.251  10.980  10.772  0.3590 -0.2183  0.0238
  441loPI   GL1 7045   9.433  10.933  10.425  0.0668  0.0389 -0.0025
  441loPI   GL2 7046   9.235  11.253  10.304 -0.1875 -0.0818  0.1170
  441loPI   C1A 7047   9.319  10.847   9.999  0.0339  0.0898 -0.0244
  441loPI   C2A 7048   9.186  10.820   9.609  0.2431 -0.2462  0.0073
  441loPI   C3A 7049   9.191  10.672   9.237 -0.0736  0.1220  0.0051
  441loPI   C4A 7050   9.189  10.763   8.773 -0.0793  0.4890 -0.2323
  441loPI   C5A 7051   9.204  10.748   8.377  0.1174 -0.1157  0.1643
  441loPI   C6A 7052   8.926  10.768   8.094  0.1419 -0.0348  0.1908
  441loPI   C1B 7053   9.062  11.263   9.822  0.0826 -0.1428  0.0319
  441loPI   C2B 7054   8.954  11.218   9.365 -0.1759  0.0876 -0.1302
  441loPI   C3B 7055   8.975  11.173   8.896  0.0577  0.1545 -0.0861
  441loPI   C4B 7056   8.794  11.108   8.488 -0.0258  0.2302 -0.0039
  442loPI    C1 7057   6.037   4.895  10.629  0.0570 -0.1161  0.2052
  442loPI    C2 7058   6.376   4.861  10.837  0.1690  0.0108  0.0456
  442loPI    C3 7059   6.310   4.622  10.523  0.1264  0.0097  0.0554
  442loPI   PO4 7060   6.047   5.152  10.563 -0.0847  0.0502 -0.0823
  442loPI   GL1 7061   6.158   5.415  10.200  0.2338  0.0221  0.0991
  442loPI   GL2 7062   6.494   5.537  10.200 -0.1243  0.0986 -0.0681
  442loPI   C1A 7063   6.137   5.593   9.739 -0.1015  0.1315 -0.0639
  442loPI   C2A 7064   6.180   5.681   9.247  0.3039  0.1682  0.1056
  442loPI   C3A 7065   6.081   5.598   8.871 -0.3451 -0.1133  0.2233
  442loPI   C4A 7066   6.151   5.587   8.481 -0.5789 -0.2298 -0.1690
  442loPI   C5A 7067   6.280   5.762   8.173  0.1318 -0.0423  0.0825
  442loPI   C6A 7068   6.474   6.132   7.879 -0.0826  0.1892 -0.1225
  442loPI   C1B 7069   6.710   5.661   9.818 -0.0347  0.1219 -0.0832
  442loPI   C2B 7070   6.695   5.708   9.323  0.1864  0.2692  0.2037
  442loPI   C3B 7071   6.595   5.676   8.908  0.2346  0.2394  0.2665
  442loPI   C4B 7072   6.655   5.686   8.526 -0.0899  0.1315 -0.3311
  443loPI    C1 7073  10.197   2.465  11.154  0.1305 -0.2964 -0.1093
  443loPI    C2 7074  10.146   2.196  11.446  0.2576 -0.1099  0.0883
  443loPI    C3 7075  10.251   2.571  11.536 -0.1165  0.0628 -0.1684
  443loPI   PO4 7076  10.045   2.568  11.017 -0.0050 -0.1547 -0.1814
  443loPI   GL1 7077  10.092   2.574  10.571 -0.1541 -0.0336  0.0929
  443loPI   GL2 7078  10.391   2.538  10.373  0.2489 -0.0103  0.0993
  443loPI   C1A 7079   9.744   2.667  10.261 -0.3263 -0.4150 -0.3441
  443loPI   C2A 7080   9.650   2.709   9.797 -0.0345  0.0853  0.1666
  443loPI   C3A 7081   9.701   2.680   9.400  0.4235 -0.2116 -0.1325
  443loPI   C4A 7082   9.611   2.726   8.917  0.0415  0.0383 -0.1274
  443loPI   C5A 7083   9.751   2.555   8.592 -0.3149  0.3950  0.2290
  443loPI   C6A 7084   9.899   2.427   8.213  0.1295 -0.0878  0.2441
  443loPI   C1B 7085  10.213   2.685   9.992 -0.1068  0.2058 -0.0631
  443loPI   C2B 7086  10.284   2.679   9.508  0.1205 -0.0763 -0.0301
  443loPI   C3B 7087  10.159   2.703   9.042 -0.3345 -0.2053  0.4886
  443loPI   C4B 7088  10.202   2.737   8.489  0.2476  0.0752 -0.2451
  444loPI    C1 7089   0.920  15.869  11.254  0.1122  0.2163 -0.0479
  444loPI    C2 7090   1.000  15.696  11.605  0.0260  0.0319 -0.1180
  444loPI    C3 7091   0.671  15.919  11.563 -0.0999 -0.1576 -0.1522
  444loPI   PO4 7092   1.100  15.887  11.116 -0.0424 -0.2194  0.2230
  444loPI   GL1 7093   1.340  15.771  10.765  0.0678 -0.1905 -0.0520
  444loPI   GL2 7094   1.121  15.749  10.476  0.0351 -0.2793 -0.0292
  444loPI   C1A 7095   1.601  15.738  10.307 -0.4024 -0.1402 -0.1684
  444loPI   C2A 7096   1.682  15.726   9.894 -0.0794 -0.3428 -0.2587
  444loPI   C3A 7097   1.672  15.791   9.506  0.1744 -0.0510  0.0169
  444loPI   C4A 7098   1.671  15.774   9.146  0.1939  0.1971  0.1513
  444loPI   C5A 7099   1.661  15.778   8.727 -0.1399  0.0501  0.0666
  444loPI   C6A 7100   1.667  15.979   8.328 -0.2593  0.3106 -0.0445
  444loPI   C1B 7101   1.183  15.709  10.016  0.1474 -0.0055  0.1693
  444loPI   C2B 7102   1.166  15.691   9.556  0.0745 -0.0512 -0.1237
  444loPI   C3B 7103   1.170  15.734   9.164  0.3704 -0.0322  0.0677
  444loPI   C4B 7104   1.124  15.791   8.770 -0.1858 -0.1355  0.0453
  445loPI    C1 7105  11.051   1.871  10.706  0.1372  0.0959 -0.2011
  445loPI    C2 7106  11.269   2.010  11.011 -0.2040  0.0010  0.0939
  445loPI    C3 7107  10.919   1.830  11.082 -0.2279 -0.1384 -0.3490
  445loPI   PO4 7108  11.197   1.814  10.479  0.0684 -0.1209  0.2500
  445loPI   GL1 7109  11.180   1.591  10.183  0.2260  0.1048  0.1970
  445loPI   GL2 7110  11.444   1.674   9.986  0.2371 -0.1912 -0.2049
  445loPI   C1A 7111  10.908   1.754   9.856  0.1573 -0.1672 -0.1696
  445loPI   C2A 7112  10.801   1.805   9.411  0.2695  0.0693 -0.1106
  445loPI   C3A 7113  10.735   1.766   8.973  0.1185  0.2643  0.0411
  445loPI   C4A 7114  10.804   1.763   8.640 -0.2007  0.1183 -0.1661
  445loPI   C5A 7115  10.804   1.993   8.217 -0.0882  0.4473  0.0509
  445loPI   C6A 7116  10.843   2.170   7.975 -0.0813  0.0177  0.2663
  445loPI   C1B 7117  11.320   1.860   9.582  0.0457  0.0053  0.3235
  445loPI   C2B 7118  11.233   1.814   9.111  0.2975  0.2206  0.0878
  445loPI   C3B 7119  11.273   1.793   8.724  0.2168  0.0451 -0.1156
  445loPI   C4B 7120  11.248   1.960   8.413  0.5142 -0.1366 -0.3563
  446loPI    C1 7121  10.044   5.229  11.096 -0.0306  0.0333 -0.1638
  446loPI    C2 7122   9.966   5.534  11.342 -0.0844 -0.0020 -0.1370
  446loPI    C3 7123  10.005   5.164  11.488 -0.2180 -0.0389 -0.1934
  446loPI   PO4 7124   9.958   5.324  10.879  0.2122 -0.0401 -0.1366
  446loPI   GL1 7125  10.009   5.360  10.396 -0.2444  0.0537 -0.0542
  446loPI   GL2 7126  10.136   5.665  10.595 -0.1188 -0.1488  0.0655
  446loPI   C1A 7127  10.038   5.462  10.053  0.1835 -0.1892  0.1471
  446loPI   C2A 7128   9.997   5.426   9.711  0.1960 -0.0902  0.2591
  446loPI   C3A 7129  10.031   5.462   9.242 -0.0878 -0.0830  0.0244
  446loPI   C4A 7130  10.034   5.421   8.852 -0.0732 -0.0125  0.1076
  446loPI   C5A 7131   9.971   5.595   8.430 -0.1604  0.4910  0.1895
  446loPI   C6A 7132  10.123   5.772   8.120  0.1445  0.2334  0.1630
  446loPI   C1B 7133  10.249   5.864  10.239  0.1077 -0.2976  0.0200
  446loPI   C2B 7134  10.195   5.910   9.723  0.0265 -0.1402 -0.1713
  446loPI   C3B 7135  10.217   5.922   9.212  0.1847  0.1325  0.1080
  446loPI   C4B 7136  10.262   5.861   8.748 -0.0063 -0.1053 -0.1022
  447loPI    C1 7137   9.453   1.996  10.949 -0.0279 -0.1765  0.3738
  447loPI    C2 7138   9.348   2.253  11.238 -0.1161  0.1902  0.0249
  447loPI    C3 7139   9.735   2.187  11.159 -0.0897 -0.0091  0.3061
  447loPI   PO4 7140   9.207   1.955  10.828 -0.1735 -0.1196  0.0860
  447loPI   GL1 7141   8.904   2.105  10.494  0.1337  0.1121  0.1280
  447loPI   GL2 7142   8.667   1.883  10.364 -0.0227  0.0341  0.2266
  447loPI   C1A 7143   9.042   2.176  10.143  0.0415  0.0714  0.0386
  447loPI   C2A 7144   8.950   2.120   9.752 -0.0911  0.1375  0.0614
  447loPI   C3A 7145   8.922   2.107   9.361  0.0816  0.1775  0.1459
  447loPI   C4A 7146   8.875   2.122   8.962  0.3312  0.1387 -0.0632
  447loPI   C5A 7147   9.001   2.155   8.579  0.1666 -0.3008 -0.0966
  447loPI   C6A 7148   8.936   2.196   8.175  0.0119  0.1083  0.0194
  447loPI   C1B 7149   8.755   1.598  10.001 -0.0373  0.5283  0.0200
  447loPI   C2B 7150   8.729   1.700   9.610  0.0597 -0.0359  0.1256
  447loPI   C3B 7151   8.709   1.649   9.158  0.0353 -0.1007  0.2464
  447loPI   C4B 7152   8.700   1.598   8.666  0.2538 -0.0208 -0.0726
  448loPI    C1 7153   1.828   8.360  11.165 -0.0477  0.3191 -0.0284
  448loPI    C2 7154   2.035   8.654  11.339  0.0549  0.1026  0.2236
  448loPI    C3 7155   1.862   8.373  11.564 -0.0545 -0.0225 -0.0136
  448loPI   PO4 7156   1.649   8.455  10.880 -0.2535  0.2125 -0.0223
  448loPI   GL1 7157   1.455   8.268  10.590 -0.0926 -0.0493  0.2137
  448loPI   GL2 7158   1.525   8.558  10.385  0.0086 -0.1599 -0.2364
  448loPI   C1A 7159   1.425   8.175  10.151  0.2868 -0.1167 -0.2897
  448loPI   C2A 7160   1.429   8.151   9.723  0.0837  0.3578  0.0504
  448loPI   C3A 7161   1.306   8.185   9.395  0.2883  0.1101  0.1453
  448loPI   C4A 7162   1.307   8.155   8.885  0.1958  0.4070 -0.0463
  448loPI   C5A 7163   1.321   8.077   8.498  0.3232 -0.0702 -0.1277
  448loPI   C6A 7164   1.098   7.788   8.241  0.1403  0.2216 -0.0796
  448loPI   C1B 7165   1.545   8.656   9.978  0.1279 -0.0911  0.1632
  448loPI   C2B 7166   1.584   8.635   9.504  0.0720 -0.0766  0.1252
  448loPI   C3B 7167   1.586   8.556   9.160  0.0399 -0.3695  0.3857
  448loPI   C4B 7168   1.619   8.543   8.756 -0.1696  0.0888  0.1191
  449loPI    C1 7169   1.796   4.467  10.639 -0.0927 -0.0767  0.1879
  449loPI    C2 7170   2.001   4.128  10.585 -0.1294 -0.0950  0.1634
  449loPI    C3 7171   1.704   4.225  10.335  0.0710  0.0977 -0.0035
  449loPI   PO4 7172   2.040   4.666  10.682  0.1440 -0.3282 -0.3996
  449loPI   GL1 7173   2.094   4.858  10.377 -0.2235  0.3591  0.0914
  449loPI   GL2 7174   1.836   4.825  10.222 -0.2954 -0.0014 -0.1669
  449loPI   C1A 7175   2.289   5.047  10.107  0.0691  0.0889  0.0681
  449loPI   C2A 7176   2.290   5.100   9.657  0.3471  0.3007  0.2108
  449loPI   C3A 7177   2.220   5.084   9.276  0.2204 -0.2904 -0.1920
  449loPI   C4A 7178   2.370   5.068   8.867 -0.0129 -0.0135 -0.0783
  449loPI   C5A 7179   2.321   5.058   8.345  0.2015 -0.2522  0.1304
  449loPI   C6A 7180   2.631   4.951   8.057 -0.3124 -0.3454 -0.0413
  449loPI   C1B 7181   1.831   4.976   9.845 -0.4250 -0.4057  0.0167
  449loPI   C2B 7182   1.739   5.040   9.418 -0.0475 -0.0889 -0.0563
  449loPI   C3B 7183   1.756   5.055   8.954 -0.0840  0.0750 -0.4136
  449loPI   C4B 7184   1.904   5.151   8.610 -0.2590  0.0660 -0.1219
  450loPI    C1 7185   2.451  13.132  11.126  0.0137 -0.1074  0.0783
  450loPI    C2 7186   2.161  12.944  11.327  0.1109 -0.3848 -0.0356
  450loPI    C3 7187   2.287  13.304  11.448 -0.3475 -0.2152 -0.0435
  450loPI   PO4 7188   2.354  13.134  10.938 -0.0066 -0.0406 -0.0604
  450loPI   GL1 7189   2.133  13.217  10.489 -0.1161 -0.0167  0.0261
  450loPI   GL2 7190   2.033  13.482  10.451 -0.2655 -0.6175  0.2747
  450loPI   C1A 7191   2.306  12.980  10.205  0.2422  0.0707  0.1144
  450loPI   C2A 7192   2.276  13.036   9.799  0.0559  0.0644  0.0694
  450loPI   C3A 7193   2.207  13.046   9.376  0.3376 -0.2769  0.1088
  450loPI   C4A 7194   2.259  13.135   8.888 -0.3441 -0.1116  0.0480
  450loPI   C5A 7195   2.206  12.966   8.436  0.0795  0.2479 -0.1520
  450loPI   C6A 7196   1.893  12.777   8.229  0.0811 -0.1416 -0.0405
  450loPI   C1B 7197   2.103  13.491   9.985  0.1015 -0.1716 -0.1057
  450loPI   C2B 7198   2.055  13.484   9.604  0.0172  0.0594  0.0988
  450loPI   C3B 7199   1.916  13.500   9.267  0.0506 -0.1177 -0.1754
  450loPI   C4B 7200   1.901  13.564   8.857 -0.0805  0.2429  0.0215
  451loPI    C1 7201   4.532   9.748  11.168 -0.1603  0.1159  0.1304
  451loPI    C2 7202   4.731   9.559  11.459  0.1057  0.1262 -0.0416
  451loPI    C3 7203   4.387   9.746  11.541  0.0091 -0.1486  0.1972
  451loPI   PO4 7204   4.721   9.786  11.009  0.2612  0.1497 -0.2883
  451loPI   GL1 7205   4.818   9.708  10.655  0.1664 -0.0430 -0.0170
  451loPI   GL2 7206   4.821  10.059  10.541  0.2044 -0.1248  0.1874
  451loPI   C1A 7207   4.687   9.639  10.299 -0.2359  0.0269 -0.2344
  451loPI   C2A 7208   4.668   9.582   9.963 -0.1135 -0.2302  0.1762
  451loPI   C3A 7209   4.554   9.526   9.597 -0.0769 -0.2685 -0.5945
  451loPI   C4A 7210   4.619   9.675   9.246 -0.0319  0.0541 -0.0503
  451loPI   C5A 7211   4.595   9.694   8.797 -0.2666 -0.0098  0.0769
  451loPI   C6A 7212   4.488   9.560   8.370 -0.0579  0.0031  0.1097
  451loPI   C1B 7213   4.910  10.025  10.098 -0.1869  0.2595 -0.0143
  451loPI   C2B 7214   4.850  10.091   9.673 -0.1734  0.2007 -0.1679
  451loPI   C3B 7215   4.838  10.140   9.249  0.0200 -0.1708 -0.1726
  451loPI   C4B 7216   4.871  10.167   8.814  0.1307  0.2545 -0.4243
  452loPI    C1 7217  15.704   2.278  10.676 -0.1270 -0.2477  0.1320
  452loPI    C2 7218  15.796   2.617  10.867 -0.2142 -0.0703 -0.1355
  452loPI    C3 7219  15.515   2.374  11.015 -0.0959 -0.0665  0.0989
  452loPI   PO4 7220  15.669   2.278  10.444 -0.1371  0.3779  0.0839
  452loPI   GL1 7221  15.227   2.397  10.166  0.0475 -0.4237 -0.1239
  452loPI   GL2 7222  15.394   2.166  10.050 -0.0054  0.1754  0.0157
  452loPI   C1A 7223  15.247   2.530   9.735  0.2369 -0.1253 -0.0019
  452loPI   C2A 7224  15.121   2.507   9.405  0.1058 -0.2926 -0.0212
  452loPI   C3A 7225  15.154   2.512   9.035 -0.0141 -0.2043 -0.2512
  452loPI   C4A 7226  15.142   2.527   8.642  0.0641  0.2916 -0.2065
  452loPI   C5A 7227  15.236   2.462   8.215  0.2152 -0.2194  0.1460
  452loPI   C6A 7228  15.065   2.537   7.819  0.1026 -0.1171 -0.1928
  452loPI   C1B 7229  15.508   2.052   9.704 -0.3519  0.1932  0.1091
  452loPI   C2B 7230  15.440   2.119   9.223 -0.0361 -0.0221 -0.0438
  452loPI   C3B 7231  15.464   2.057   8.775  0.1795  0.0007 -0.0498
  452loPI   C4B 7232  15.498   2.041   8.307  0.1645  0.2089  0.0614
  453loPI    C1 7233  12.924   4.619  10.643 -0.2506 -0.2776  0.1373
  453loPI    C2 7234  12.779   4.719  11.001 -0.0522 -0.0749  0.1633
  453loPI    C3 7235  13.162   4.613  10.964 -0.1292 -0.3193  0.0473
  453loPI   PO4 7236  12.842   4.762  10.452 -0.1767  0.0520  0.0062
  453loPI   GL1 7237  12.914   5.099  10.284  0.0570  0.2242 -0.2069
  453loPI   GL2 7238  12.830   5.004   9.991  0.1224  0.1929  0.0204
  453loPI   C1A 7239  13.009   5.406  10.226  0.2542 -0.0605 -0.1542
  453loPI   C2A 7240  13.101   5.578   9.884  0.1806  0.0760 -0.1350
  453loPI   C3A 7241  13.178   5.583   9.434 -0.1101 -0.1656 -0.1641
  453loPI   C4A 7242  13.160   5.566   9.050 -0.0234 -0.2483  0.1196
  453loPI   C5A 7243  13.204   5.558   8.561 -0.0399 -0.4083 -0.4727
  453loPI   C6A 7244  13.334   5.289   8.239  0.0538  0.1425 -0.0342
  453loPI   C1B 7245  12.951   5.141   9.572  0.0392 -0.2465  0.0226
  453loPI   C2B 7246  12.896   5.087   9.097  0.2519 -0.3013  0.1695
  453loPI   C3B 7247  12.912   5.106   8.701  0.2634  0.0006  0.3833
  453loPI   C4B 7248  12.918   5.056   8.349  0.1213  0.0027 -0.1390
  454loPI    C1 7249   7.967   5.984  10.783  0.0830 -0.0144 -0.0628
  454loPI    C2 7250   7.891   5.761  11.106  0.0217 -0.0027 -0.0689
  454loPI    C3 7251   8.026   6.135  11.148  0.0873 -0.0275 -0.0581
  454loPI   PO4 7252   7.886   5.905  10.607 -0.2373  0.0814 -0.0880
  454loPI   GL1 7253   8.118   5.977  10.183  0.0445  0.2047  0.1502
  454loPI   GL2 7254   8.210   5.709  10.317  0.0498  0.1094  0.0369
  454loPI   C1A 7255   7.918   6.143   9.857  0.0718  0.1865 -0.1193
  454loPI   C2A 7256   7.892   6.248   9.434 -0.1406 -0.1455 -0.0850
  454loPI   C3A 7257   7.820   6.158   9.038 -0.0319  0.0944  0.2859
  454loPI   C4A 7258   7.874   6.068   8.608  0.4460 -0.0520 -0.3322
  454loPI   C5A 7259   7.723   6.109   8.142  0.1541  0.2688 -0.1038
  454loPI   C6A 7260   7.448   6.079   7.795  0.1620  0.1072  0.3191
  454loPI   C1B 7261   8.249   5.670   9.835  0.0400 -0.0973 -0.0484
  454loPI   C2B 7262   8.233   5.780   9.442 -0.2061 -0.1701  0.2342
  454loPI   C3B 7263   8.172   5.767   9.033  0.1632 -0.0995  0.0619
  454loPI   C4B 7264   8.157   5.529   8.732 -0.2462 -0.0767 -0.1863
  455loPI    C1 7265  12.470  14.191  10.535  0.1032  0.2112 -0.3029
  455loPI    C2 7266  12.177  14.442  10.429 -0.1812  0.1301  0.2533
  455loPI    C3 7267  12.428  14.541  10.725 -0.0352 -0.0676  0.1979
  455loPI   PO4 7268  12.613  14.102  10.332  0.1094  0.0378  0.3540
  455loPI   GL1 7269  12.879  14.200  10.031 -0.0263  0.1065 -0.0350
  455loPI   GL2 7270  13.228  14.312   9.806 -0.0790  0.2210  0.0228
  455loPI   C1A 7271  12.883  13.929   9.658  0.1616 -0.0242 -0.0244
  455loPI   C2A 7272  12.787  13.953   9.217  0.3206  0.0055  0.4995
  455loPI   C3A 7273  12.823  14.006   8.814 -0.0371 -0.0869 -0.1477
  455loPI   C4A 7274  12.806  14.079   8.461  0.1045 -0.0952  0.1152
  455loPI   C5A 7275  12.786  13.996   8.057  0.3502 -0.0032 -0.0073
  455loPI   C6A 7276  12.748  13.969   7.661 -0.1331  0.1601  0.0047
  455loPI   C1B 7277  13.107  14.315   9.331 -0.0167 -0.0815 -0.2595
  455loPI   C2B 7278  13.138  14.425   8.915 -0.0386  0.1846  0.1860
  455loPI   C3B 7279  13.045  14.647   8.611  0.0072  0.1111 -0.0217
  455loPI   C4B 7280  13.156  14.543   8.263  0.0288  0.1057  0.3379
  456loPI    C1 7281  16.057  16.308  11.039 -0.0069  0.0356  0.0174
  456loPI    C2 7282  16.014  16.581  11.328 -0.0409 -0.2149  0.2524
  456loPI    C3 7283  15.726  16.311  11.263 -0.0963 -0.0740 -0.1113
  456loPI   PO4 7284  16.219  16.478  10.816  0.2910  0.3622  0.1002
  456loPI   GL1 7285  16.349  16.444  10.442 -0.1532  0.0287 -0.1298
  456loPI   GL2 7286  16.524  16.416  10.231  0.0271  0.1204  0.0625
  456loPI   C1A 7287  16.087  16.328  10.007  0.1141 -0.0891  0.0936
  456loPI   C2A 7288  16.113  16.386   9.597 -0.0705 -0.0426  0.2807
  456loPI   C3A 7289  16.148  16.467   9.230  0.2132  0.2132  0.0662
  456loPI   C4A 7290  16.100  16.550   8.794 -0.2060  0.2860  0.1963
  456loPI   C5A 7291  16.042  16.529   8.306  0.0629  0.1088 -0.0819
  456loPI   C6A 7292  16.072  16.603   7.918 -0.2776 -0.0142  0.1884
  456loPI   C1B 7293  16.558  16.500   9.729 -0.2186  0.1191  0.1581
  456loPI   C2B 7294  16.713  16.481   9.314  0.0444 -0.0316  0.4043
  456loPI   C3B 7295  16.652  16.590   8.913 -0.0269  0.0852  0.1062
  456loPI   C4B 7296  16.527  16.575   8.465  0.3699  0.0503  0.1183
  457loPI    C1 7297   4.152   0.767  10.850 -0.0209  0.0378 -0.0978
  457loPI    C2 7298   3.872   0.657  11.113 -0.0457 -0.0329 -0.1532
  457loPI    C3 7299   4.238   0.497  11.132  0.0953  0.3088  0.1310
  457loPI   PO4 7300   4.059   0.816  10.693 -0.2134  0.1352  0.3508
  457loPI   GL1 7301   4.013   0.660  10.282 -0.1030 -0.2811  0.2157
  457loPI   GL2 7302   3.716   0.609  10.244  0.3477 -0.0834  0.1595
  457loPI   C1A 7303   3.818   0.824   9.820  0.0848 -0.0182  0.2908
  457loPI   C2A 7304   3.829   0.893   9.370 -0.0870 -0.1248  0.1932
  457loPI   C3A 7305   3.843   0.964   8.800 -0.2498  0.3532  0.0057
  457loPI   C4A 7306   3.753   0.838   8.456 -0.1516  0.1618  0.2361
  457loPI   C5A 7307   3.453   0.931   8.028 -0.1671  0.3673 -0.0362
  457loPI   C6A 7308   3.555   1.305   7.789 -0.0319 -0.0309 -0.0978
  457loPI   C1B 7309   3.538   0.399   9.918 -0.1433  0.0616  0.0726
  457loPI   C2B 7310   3.675   0.427   9.575 -0.2631 -0.0819  0.1531
  457loPI   C3B 7311   3.553   0.460   9.147 -0.0061  0.1250  0.1903
  457loPI   C4B 7312   3.551   0.428   8.730 -0.0050  0.0832  0.1244
  458loPI    C1 7313  12.412   3.929  10.862  0.0285 -0.0930 -0.0978
  458loPI    C2 7314  12.438   4.301  11.008  0.1052 -0.1422  0.0151
  458loPI    C3 7315  12.475   3.986  11.253 -0.0318 -0.2244 -0.0683
  458loPI   PO4 7316  12.290   3.908  10.703 -0.0073 -0.0006 -0.1888
  458loPI   GL1 7317  12.478   3.873  10.313  0.0071  0.0035  0.2148
  458loPI   GL2 7318  12.628   3.716  10.217 -0.1566  0.2720  0.2584
  458loPI   C1A 7319  12.424   4.071   9.890 -0.2017  0.1880 -0.0606
  458loPI   C2A 7320  12.498   4.148   9.559  0.2865 -0.1228  0.1342
  458loPI   C3A 7321  12.429   4.116   9.154  0.0340 -0.0131  0.0909
  458loPI   C4A 7322  12.403   4.158   8.818  0.0301 -0.0997 -0.2231
  458loPI   C5A 7323  12.337   4.161   8.409  0.1731  0.0072  0.0880
  458loPI   C6A 7324  12.647   4.086   8.075 -0.2584  0.2135  0.0535
  458loPI   C1B 7325  12.690   3.726   9.757 -0.0917  0.2482 -0.1623
  458loPI   C2B 7326  12.735   3.766   9.337 -0.0989  0.1379 -0.1699
  458loPI   C3B 7327  12.651   3.765   8.860 -0.1632  0.0171  0.1372
  458loPI   C4B 7328  12.678   3.748   8.450 -0.0596  0.0898 -0.0416
  459loPI    C1 7329   8.100  12.476  11.102  0.2077 -0.1055 -0.1064
  459loPI    C2 7330   8.415  12.717  11.051 -0.0961  0.2635 -0.2857
  459loPI    C3 7331   8.159  12.783  11.351  0.0514 -0.1026 -0.0726
  459loPI   PO4 7332   8.091  12.388  10.922  0.0796 -0.0815  0.2728
  459loPI   GL1 7333   7.946  12.461  10.560  0.0683  0.1214  0.0082
  459loPI   GL2 7334   8.044  12.114  10.430 -0.1786 -0.2125  0.1049
  459loPI   C1A 7335   8.145  12.534  10.209 -0.1382  0.0902  0.0529
  459loPI   C2A 7336   8.026  12.492   9.782 -0.1395  0.2130 -0.0510
  459loPI   C3A 7337   8.114  12.540   9.346 -0.3761  0.0154 -0.0534
  459loPI   C4A 7338   8.060  12.469   8.886  0.2798 -0.0396 -0.0848
  459loPI   C5A 7339   8.064  12.358   8.478 -0.3489 -0.1895  0.1606
  459loPI   C6A 7340   7.857  12.112   8.141 -0.0597 -0.0220  0.1427
  459loPI   C1B 7341   7.879  12.058   9.992 -0.0312 -0.2907  0.0456
  459loPI   C2B 7342   7.806  12.074   9.573 -0.0739 -0.4639  0.3496
  459loPI   C3B 7343   7.851  12.001   9.180  0.2601 -0.1185 -0.0225
  459loPI   C4B 7344   7.878  11.956   8.693  0.0273 -0.1941 -0.0318
  460loPI    C1 7345  17.569   9.079  10.876 -0.0096  0.1664 -0.0081
  460loPI    C2 7346  17.353   9.416  10.865 -0.0932  0.1132 -0.0004
  460loPI    C3 7347  17.522   9.297  11.208  0.0933  0.2456 -0.0450
  460loPI   PO4 7348  17.666   9.064  10.614 -0.2470  0.1310 -0.0667
  460loPI   GL1 7349  17.534   9.331  10.304 -0.2478 -0.1055 -0.2107
  460loPI   GL2 7350  17.323   9.527  10.381  0.0742  0.0813 -0.4150
  460loPI   C1A 7351  17.594   9.273   9.815  0.0574  0.3342  0.1516
  460loPI   C2A 7352  17.522   9.389   9.425 -0.1417  0.0427  0.0822
  460loPI   C3A 7353  17.552   9.374   9.006  0.0942  0.3269 -0.0206
  460loPI   C4A 7354  17.571   9.296   8.613  0.0519 -0.1231  0.2430
  460loPI   C5A 7355  17.396   9.358   8.343 -0.1362  0.1079 -0.0043
  460loPI   C6A 7356  17.128   9.786   8.261 -0.1194  0.2515  0.1209
  460loPI   C1B 7357  17.222   9.668   9.937  0.2950  0.0717  0.0428
  460loPI   C2B 7358  17.224   9.821   9.507  0.1254 -0.0130 -0.1589
  460loPI   C3B 7359  17.190   9.745   9.150 -0.0275  0.2504  0.0682
  460loPI   C4B 7360  17.297   9.740   8.750  0.2277  0.2181  0.1367
  461loPI    C1 7361   3.026   1.301  10.639 -0.2737 -0.1273  0.0168
  461loPI    C2 7362   3.071   1.697  10.611  0.2961 -0.1800  0.0758
  461loPI    C3 7363   3.054   1.523  10.971 -0.1708 -0.1936  0.0529
  461loPI   PO4 7364   3.290   1.193  10.531 -0.0772  0.0053 -0.0212
  461loPI   GL1 7365   3.227   0.796  10.281 -0.0174  0.2788  0.1582
  461loPI   GL2 7366   3.032   0.510  10.094  0.1057 -0.1386  0.1344
  461loPI   C1A 7367   3.231   0.831   9.802  0.3381  0.2177 -0.0364
  461loPI   C2A 7368   3.324   0.877   9.391 -0.2406  0.2399 -0.3738
  461loPI   C3A 7369   3.304   0.867   8.986  0.2523 -0.1590 -0.0729
  461loPI   C4A 7370   3.213   0.778   8.530 -0.0973 -0.2347  0.1911
  461loPI   C5A 7371   3.023   0.803   8.135 -0.1220 -0.1573 -0.0268
  461loPI   C6A 7372   3.132   0.545   7.893  0.0066  0.3224  0.0105
  461loPI   C1B 7373   3.047   0.375   9.739 -0.0233  0.2043 -0.2114
  461loPI   C2B 7374   3.133   0.409   9.366 -0.1940  0.0669 -0.0780
  461loPI   C3B 7375   3.089   0.412   8.859  0.0087  0.1510  0.2385
  461loPI   C4B 7376   3.039   0.346   8.379  0.0568 -0.0515 -0.0201
  462loPI    C1 7377  10.772   3.605  11.152 -0.1617  0.1221 -0.1077
  462loPI    C2 7378  10.720   3.980  11.282  0.0165  0.0792  0.0921
  462loPI    C3 7379  10.670   3.672  11.533  0.2725 -0.0094  0.0368
  462loPI   PO4 7380  10.847   3.711  10.873 -0.0383  0.3324  0.1659
  462loPI   GL1 7381  10.604   3.929  10.512  0.0522  0.1113 -0.0157
  462loPI   GL2 7382  10.849   3.791  10.401  0.2788  0.0900 -0.0647
  462loPI   C1A 7383  10.390   3.970  10.138 -0.2558  0.0093  0.1612
  462loPI   C2A 7384  10.355   3.983   9.768 -0.2701 -0.1529  0.3595
  462loPI   C3A 7385  10.402   4.078   9.377 -0.0091 -0.0984 -0.2835
  462loPI   C4A 7386  10.390   4.040   8.985  0.0886  0.1815  0.2194
  462loPI   C5A 7387  10.440   4.122   8.557 -0.1168  0.0845  0.2162
  462loPI   C6A 7388  10.464   4.249   8.072 -0.1287 -0.2301  0.0782
  462loPI   C1B 7389  10.974   4.055  10.047  0.0947 -0.0989 -0.1313
  462loPI   C2B 7390  10.933   4.185   9.679 -0.1712  0.2197 -0.3447
  462loPI   C3B 7391  10.994   4.166   9.287 -0.0589 -0.0545 -0.4361
  462loPI   C4B 7392  10.983   4.131   8.847  0.0347 -0.0784 -0.2317
  463loPI    C1 7393   5.510  15.841  10.885 -0.1101  0.0261 -0.0417
  463loPI    C2 7394   5.614  15.455  10.863 -0.1985 -0.0047  0.0661
  463loPI    C3 7395   5.679  15.661  11.199 -0.2674  0.0401  0.0524
  463loPI   PO4 7396   5.516  15.898  10.579  0.2204  0.0775  0.0250
  463loPI   GL1 7397   5.198  15.922  10.294  0.0922 -0.2010  0.0150
  463loPI   GL2 7398   4.874  15.874  10.303  0.0460  0.0532 -0.0057
  463loPI   C1A 7399   5.397  15.811   9.924 -0.1997 -0.2828 -0.0369
  463loPI   C2A 7400   5.333  15.866   9.572  0.1090  0.2129 -0.0888
  463loPI   C3A 7401   5.136  15.901   9.256  0.0067 -0.0572  0.3601
  463loPI   C4A 7402   5.239  15.912   8.853 -0.0079 -0.1644 -0.0188
  463loPI   C5A 7403   5.261  15.903   8.483  0.0182 -0.0724 -0.0512
  463loPI   C6A 7404   5.359  15.636   8.047  0.1823 -0.4840 -0.0263
  463loPI   C1B 7405   4.831  15.867   9.869  0.1858 -0.0751  0.0840
  463loPI   C2B 7406   4.678  15.854   9.410  0.1184  0.0669 -0.1769
  463loPI   C3B 7407   4.736  15.946   8.938  0.2062 -0.0424  0.0809
  463loPI   C4B 7408   4.763  16.060   8.524  0.0420  0.0634  0.1202
  464loPI    C1 7409   3.205  18.045  10.796  0.0716  0.3154 -0.1104
  464loPI    C2 7410   3.034  17.811  11.072 -0.0656 -0.0613 -0.5037
  464loPI    C3 7411   2.951  18.202  11.062  0.1256  0.0062  0.1300
  464loPI   PO4 7412   3.133  17.995  10.623 -0.0642  0.2052  0.2964
  464loPI   GL1 7413   3.201  17.839  10.274  0.2073  0.1703 -0.1289
  464loPI   GL2 7414   2.988  17.631  10.124  0.1079  0.1776 -0.1305
  464loPI   C1A 7415   3.296  18.035   9.964  0.0131 -0.1799 -0.0353
  464loPI   C2A 7416   3.327  18.077   9.556  0.0350 -0.2734 -0.2210
  464loPI   C3A 7417   3.365  18.094   9.083  0.3762  0.5450 -0.1175
  464loPI   C4A 7418   3.281  18.024   8.697 -0.1550  0.2356 -0.1600
  464loPI   C5A 7419   3.493  18.126   8.333 -0.2129  0.1374  0.0705
  464loPI   C6A 7420   3.598  18.503   8.070  0.0151  0.1366  0.0019
  464loPI   C1B 7421   3.042  17.563   9.641  0.0134 -0.0383 -0.1033
  464loPI   C2B 7422   3.128  17.589   9.321  0.0153  0.0479 -0.1322
  464loPI   C3B 7423   3.188  17.608   8.901 -0.1963  0.0184  0.4286
  464loPI   C4B 7424   3.109  17.576   8.490 -0.0507  0.1739 -0.0262
  465loPI    C1 7425  17.670   1.462  11.103  0.1477  0.1786  0.1365
  465loPI    C2 7426  17.591   1.700  11.414 -0.0434 -0.0624  0.2762
  465loPI    C3 7427  17.765   1.345  11.473  0.3371  0.0818  0.0587
  465loPI   PO4 7428  17.471   1.521  10.939 -0.0593 -0.0384 -0.1497
  465loPI   GL1 7429  17.287   1.493  10.412 -0.2084  0.1248  0.0290
  465loPI   GL2 7430  17.071   1.638  10.549  0.4849 -0.1881 -0.0409
  465loPI   C1A 7431  17.227   1.501   9.897  0.1032  0.0671 -0.2716
  465loPI   C2A 7432  17.282   1.680   9.535 -0.0100 -0.1014 -0.1237
  465loPI   C3A 7433  17.338   1.689   9.136  0.2541 -0.0707  0.2208
  465loPI   C4A 7434  17.275   1.712   8.607 -0.2185  0.1022  0.4352
  465loPI   C5A 7435  16.805   1.676   8.387  0.0250 -0.2911  0.4621
  465loPI   C6A 7436  16.420   1.590   8.099  0.1811  0.1280 -0.0087
  465loPI   C1B 7437  16.697   1.555  10.221 -0.0851  0.1683 -0.2130
  465loPI   C2B 7438  16.721   1.512   9.821  0.0766  0.2318  0.0440
  465loPI   C3B 7439  16.745   1.694   9.290 -0.1472  0.0926  0.0175
  465loPI   C4B 7440  16.833   1.595   8.904 -0.0228  0.1735 -0.0573
  466loPI    C1 7441  17.631  16.641  10.957 -0.0712  0.1069  0.0720
  466loPI    C2 7442  17.285  16.661  11.156 -0.0948  0.1942  0.0231
  466loPI    C3 7443  17.630  16.641  11.357 -0.1458 -0.2832  0.0748
  466loPI   PO4 7444  17.697  16.875  10.744  0.0322 -0.6184  0.2438
  466loPI   GL1 7445  17.601  16.972  10.349 -0.0814 -0.3615 -0.0297
  466loPI   GL2 7446  17.986  16.948  10.300 -0.1313  0.2384 -0.1645
  466loPI   C1A 7447  17.293  16.984  10.023  0.4580 -0.2121  0.3244
  466loPI   C2A 7448  17.351  16.999   9.563 -0.0064  0.1307 -0.0105
  466loPI   C3A 7449  17.409  17.023   9.126  0.1323 -0.1105  0.0209
  466loPI   C4A 7450  17.317  16.985   8.655  0.1473 -0.2488 -0.2210
  466loPI   C5A 7451  17.301  16.975   8.241 -0.0229 -0.0414 -0.3068
  466loPI   C6A 7452  17.424  17.018   7.783 -0.2606 -0.0866  0.0235
  466loPI   C1B 7453  17.859  16.973   9.874 -0.0325  0.1031 -0.0348
  466loPI   C2B 7454  17.826  16.994   9.390  0.1939 -0.0026  0.0474
  466loPI   C3B 7455  17.856  17.053   8.928 -0.1581  0.0597 -0.3453
  466loPI   C4B 7456  17.818  17.102   8.466  0.3606  0.0989  0.0480
  467loPI    C1 7457   9.168   0.874  11.036  0.2385  0.1583  0.0769
  467loPI    C2 7458   9.052   1.031  11.385 -0.0535  0.3874 -0.1190
  467loPI    C3 7459   9.181   0.653  11.369 -0.1534  0.3360  0.2159
  467loPI   PO4 7460   9.008   1.002  10.837 -0.1298 -0.1132 -0.0228
  467loPI   GL1 7461   8.949   0.815  10.476 -0.0902  0.0499  0.1234
  467loPI   GL2 7462   9.207   0.593  10.574 -0.2528  0.2775 -0.0489
  467loPI   C1A 7463   8.890   0.806  10.078  0.2447  0.2161 -0.2427
  467loPI   C2A 7464   8.754   0.773   9.672  0.1135  0.2206 -0.0152
  467loPI   C3A 7465   8.750   0.739   9.308 -0.1844  0.0014 -0.2908
  467loPI   C4A 7466   8.714   0.864   9.017  0.1800 -0.0323 -0.1604
  467loPI   C5A 7467   8.839   0.929   8.689 -0.2161  0.2264  0.1065
  467loPI   C6A 7468   8.708   1.173   8.382 -0.1416 -0.0889  0.0788
  467loPI   C1B 7469   9.103   0.359  10.212 -0.0327 -0.0088  0.0720
  467loPI   C2B 7470   8.994   0.370   9.802  0.1694 -0.0608 -0.2279
  467loPI   C3B 7471   9.068   0.355   9.404 -0.2016 -0.1269 -0.4010
  467loPI   C4B 7472   9.000   0.489   8.990  0.3485 -0.1194  0.1432
  468loPI    C1 7473   1.027  11.283  11.319  0.0472  0.0439 -0.2468
  468loPI    C2 7474   1.147  11.592  11.542 -0.2062 -0.0711  0.0554
  468loPI    C3 7475   0.894  11.651  11.239  0.2278  0.1023 -0.2841
  468loPI   PO4 7476   1.141  11.232  11.134 -0.3689 -0.1224 -0.2569
  468loPI   GL1 7477   0.843  11.241  10.792 -0.0063  0.0323  0.0635
  468loPI   GL2 7478   0.952  11.579  10.727 -0.1277 -0.1746 -0.0587
  468loPI   C1A 7479   0.889  11.139  10.374 -0.2517 -0.1677 -0.0266
  468loPI   C2A 7480   0.917  11.133   9.896 -0.1465  0.0655 -0.2150
  468loPI   C3A 7481   0.939  11.162   9.465 -0.1279  0.0241 -0.0130
  468loPI   C4A 7482   0.843  11.172   9.149  0.3748  0.0463  0.2220
  468loPI   C5A 7483   0.950  11.210   8.725 -0.1031  0.0176 -0.1115
  468loPI   C6A 7484   1.018  11.222   8.293  0.0116  0.1211 -0.0414
  468loPI   C1B 7485   1.121  11.569  10.289 -0.2316  0.0438  0.2444
  468loPI   C2B 7486   1.115  11.661   9.880  0.0801 -0.1960 -0.2284
  468loPI   C3B 7487   1.176  11.639   9.446  0.1476  0.3610  0.3692
  468loPI   C4B 7488   1.055  11.654   9.031 -0.4543 -0.1517 -0.0398
  469loPI    C1 7489  12.742  13.739  10.750  0.0011 -0.1295  0.1700
  469loPI    C2 7490  12.652  13.412  10.961 -0.2782 -0.2075 -0.0647
  469loPI    C3 7491  12.379  13.700  10.913 -0.1799 -0.1392 -0.2227
  469loPI   PO4 7492  12.891  13.598  10.590  0.1150 -0.1350  0.2372
  469loPI   GL1 7493  12.976  13.431  10.195 -0.0810 -0.1727 -0.1967
  469loPI   GL2 7494  12.790  13.695  10.113 -0.3056 -0.1529  0.0726
  469loPI   C1A 7495  12.928  13.096   9.878 -0.1378  0.0783 -0.1717
  469loPI   C2A 7496  12.943  13.086   9.440  0.2381 -0.0268 -0.1885
  469loPI   C3A 7497  12.896  13.074   9.014  0.1483 -0.0450  0.2678
  469loPI   C4A 7498  12.974  13.084   8.615  0.0692 -0.0181 -0.0131
  469loPI   C5A 7499  12.813  13.236   8.174  0.1236  0.0937 -0.1256
  469loPI   C6A 7500  12.429  13.098   7.969  0.1724  0.0219 -0.0926
  469loPI   C1B 7501  12.661  13.498   9.840  0.0188  0.2706  0.0951
  469loPI   C2B 7502  12.597  13.544   9.522  0.0426 -0.3463 -0.0172
  469loPI   C3B 7503  12.625  13.503   9.048 -0.0380  0.0534  0.3139
  469loPI   C4B 7504  12.683  13.503   8.651 -0.0455 -0.1596 -0.4503
  470loPI    C1 7505   2.402   7.296  11.069 -0.1572 -0.0562  0.0488
  470loPI    C2 7506   2.677   7.007  11.106  0.0957  0.1847  0.0817
  470loPI    C3 7507   2.481   7.141  11.429 -0.2987 -0.2090  0.0153
  470loPI   PO4 7508   2.268   7.267  10.887  0.1420  0.0539  0.0622
  470loPI   GL1 7509   2.388   7.251  10.483  0.2719 -0.2207  0.0420
  470loPI   GL2 7510   2.689   7.233  10.611 -0.2593 -0.1310 -0.0502
  470loPI   C1A 7511   2.467   7.271  10.057 -0.0501  0.1346  0.0902
  470loPI   C2A 7512   2.472   7.282   9.571 -0.1364  0.0298  0.2987
  470loPI   C3A 7513   2.511   7.239   9.127 -0.1530  0.2593  0.3509
  470loPI   C4A 7514   2.444   7.246   8.689  0.2496 -0.0707 -0.1467
  470loPI   C5A 7515   2.706   7.365   8.325 -0.4637  0.2920 -0.0598
  470loPI   C6A 7516   3.059   7.145   8.122  0.1200  0.0822 -0.5674
  470loPI   C1B 7517   2.931   7.283  10.307  0.3115  0.0715  0.3032
  470loPI   C2B 7518   2.913   7.329   9.799  0.1500  0.2343  0.0504
  470loPI   C3B 7519   2.954   7.294   9.318 -0.0717  0.1509  0.1245
  470loPI   C4B 7520   2.906   7.360   8.831  0.1298  0.0585  0.1451
  471loPI    C1 7521   6.442  13.384  11.212 -0.0470  0.2572 -0.0497
  471loPI    C2 7522   6.054  13.300  11.159  0.0235 -0.0342 -0.1226
  471loPI    C3 7523   6.197  13.363  11.528 -0.1261  0.2544 -0.1110
  471loPI   PO4 7524   6.583  13.183  10.991  0.1247  0.1636 -0.1088
  471loPI   GL1 7525   6.372  13.312  10.597  0.0281  0.0482 -0.5617
  471loPI   GL2 7526   6.172  13.146  10.575 -0.1007  0.0366 -0.0049
  471loPI   C1A 7527   6.503  13.311  10.131 -0.1976 -0.1889 -0.0937
  471loPI   C2A 7528   6.507  13.313   9.739 -0.2274  0.0413 -0.4456
  471loPI   C3A 7529   6.534  13.254   9.231 -0.0175  0.0997 -0.0026
  471loPI   C4A 7530   6.315  13.282   8.776  0.0319 -0.0998 -0.1255
  471loPI   C5A 7531   6.096  13.265   8.410 -0.3766  0.1773  0.3955
  471loPI   C6A 7532   5.997  13.147   7.956 -0.1265  0.1491 -0.2611
  471loPI   C1B 7533   6.247  12.916  10.251 -0.0378  0.0984  0.0708
  471loPI   C2B 7534   6.304  12.839   9.858 -0.2888 -0.1012 -0.1527
  471loPI   C3B 7535   6.275  12.771   9.367  0.2554  0.1413 -0.1764
  471loPI   C4B 7536   6.182  12.813   8.930  0.3484  0.2374  0.4645
  472loPI    C1 7537   2.782  15.340  10.977  0.0131 -0.1109 -0.1677
  472loPI    C2 7538   2.952  15.700  10.933 -0.0199 -0.1108 -0.2974
  472loPI    C3 7539   2.625  15.659  11.160  0.2638 -0.1450  0.1140
  472loPI   PO4 7540   2.832  15.298  10.700 -0.1743  0.2228  0.0545
  472loPI   GL1 7541   2.849  15.435  10.329  0.1438  0.0855  0.0973
  472loPI   GL2 7542   2.519  15.307  10.316  0.0968  0.0855  0.1305
  472loPI   C1A 7543   2.987  15.305   9.971  0.1399  0.0240 -0.2832
  472loPI   C2A 7544   2.972  15.275   9.473 -0.0429  0.3786 -0.2850
  472loPI   C3A 7545   3.073  15.333   9.113 -0.0603  0.0567 -0.2755
  472loPI   C4A 7546   2.982  15.419   8.684  0.1157 -0.1055 -0.3713
  472loPI   C5A 7547   2.866  15.371   8.261  0.0515 -0.2392  0.0374
  472loPI   C6A 7548   2.606  15.441   8.006  0.0503  0.0552  0.2196
  472loPI   C1B 7549   2.488  15.367   9.897  0.1912 -0.0022 -0.0740
  472loPI   C2B 7550   2.417  15.292   9.425 -0.0103  0.3177 -0.3924
  472loPI   C3B 7551   2.447  15.360   8.902  0.1737 -0.1927 -0.1804
  472loPI   C4B 7552   2.466  15.284   8.508 -0.1070 -0.1397  0.0329
  473loPI    C1 7553  12.758   7.759  10.941  0.1469  0.0090 -0.0171
  473loPI    C2 7554  12.692   7.391  10.798 -0.0261  0.1088 -0.1973
  473loPI    C3 7555  12.568   7.488  11.166  0.1646 -0.0614 -0.0864
  473loPI   PO4 7556  12.750   7.887  10.772 -0.0781  0.4250  0.0981
  473loPI   GL1 7557  12.778   8.105  10.484 -0.0751  0.1901  0.1012
  473loPI   GL2 7558  13.008   8.120  10.255  0.0667  0.0048  0.1387
  473loPI   C1A 7559  12.477   8.199  10.144  0.0694 -0.0664 -0.0438
  473loPI   C2A 7560  12.378   8.162   9.740 -0.1410 -0.0431 -0.1149
  473loPI   C3A 7561  12.460   8.167   9.283 -0.1642 -0.2257 -0.0260
  473loPI   C4A 7562  12.380   8.152   8.831  0.0105 -0.1701 -0.2429
  473loPI   C5A 7563  12.371   8.031   8.416 -0.2581 -0.4386  0.0275
  473loPI   C6A 7564  12.086   7.689   8.291  0.0115 -0.2981  0.0224
  473loPI   C1B 7565  12.926   8.240   9.905 -0.1312  0.0088  0.0950
  473loPI   C2B 7566  12.949   8.245   9.485  0.0422  0.1086  0.0312
  473loPI   C3B 7567  12.881   8.332   9.022  0.0794 -0.1648  0.1546
  473loPI   C4B 7568  12.876   8.302   8.613  0.0262 -0.0468 -0.0247
  474loPI    C1 7569   7.906   3.030  10.993 -0.0088 -0.0488 -0.2134
  474loPI    C2 7570   7.653   3.237  11.224 -0.1457 -0.1496 -0.2718
  474loPI    C3 7571   7.884   2.954  11.385  0.1477  0.1437 -0.1656
  474loPI   PO4 7572   7.809   2.975  10.793 -0.2476  0.0701 -0.0539
  474loPI   GL1 7573   7.916   3.008  10.420 -0.2103 -0.2101  0.2014
  474loPI   GL2 7574   7.582   2.946  10.356 -0.0067  0.1459 -0.0001
  474loPI   C1A 7575   7.930   2.983   9.943  0.1162  0.0077  0.0535
  474loPI   C2A 7576   7.951   3.065   9.442 -0.0680  0.1085 -0.3656
  474loPI   C3A 7577   7.778   3.054   9.012 -0.0640  0.1018  0.5623
  474loPI   C4A 7578   7.818   2.960   8.589  0.3508  0.1224  0.0645
  474loPI   C5A 7579   8.039   2.677   8.216  0.0682  0.0367 -0.0787
  474loPI   C6A 7580   8.482   2.453   8.151  0.2968  0.0603  0.1400
  474loPI   C1B 7581   7.371   2.843   9.922  0.1895 -0.1763  0.1202
  474loPI   C2B 7582   7.447   2.965   9.510  0.0172 -0.1454 -0.1338
  474loPI   C3B 7583   7.321   2.984   9.106  0.2161  0.1038 -0.0098
  474loPI   C4B 7584   7.328   3.048   8.734 -0.1367  0.0928  0.0408
  475loPI    C1 7585  11.354   2.976  10.789  0.2630  0.0309 -0.1508
  475loPI    C2 7586  11.391   2.621  10.969  0.2034 -0.0108 -0.2206
  475loPI    C3 7587  11.461   2.957  11.174  0.0675 -0.0557 -0.0997
  475loPI   PO4 7588  11.392   2.859  10.525  0.2116 -0.1120  0.0994
  475loPI   GL1 7589  11.499   2.961  10.179 -0.0040 -0.1520 -0.1595
  475loPI   GL2 7590  11.871   2.841   9.990  0.2327 -0.0500 -0.1128
  475loPI   C1A 7591  11.489   3.199   9.792  0.0041  0.3906  0.0959
  475loPI   C2A 7592  11.427   3.300   9.320  0.1703  0.3034 -0.0162
  475loPI   C3A 7593  11.384   3.262   8.943 -0.3312 -0.0704  0.0791
  475loPI   C4A 7594  11.395   3.374   8.446 -0.3497 -0.0534  0.1121
  475loPI   C5A 7595  11.488   3.244   8.018  0.0607  0.3213  0.2038
  475loPI   C6A 7596  11.800   3.188   7.813  0.0946  0.0773  0.2776
  475loPI   C1B 7597  11.747   2.760   9.570 -0.0733 -0.0559 -0.3832
  475loPI   C2B 7598  11.615   2.800   9.051  0.1157 -0.0000 -0.0325
  475loPI   C3B 7599  11.584   2.939   8.628 -0.1782  0.1266 -0.1612
  475loPI   C4B 7600  11.651   2.815   8.237  0.0616 -0.4121  0.0089
  476loPI    C1 7601  16.514  12.503  11.000 -0.0391 -0.0307 -0.0171
  476loPI    C2 7602  16.326  12.165  11.105 -0.1884  0.0465 -0.0326
  476loPI    C3 7603  16.339  12.474  11.359 -0.2210  0.0983 -0.0933
  476loPI   PO4 7604  16.470  12.587  10.871  0.2158 -0.0480 -0.0723
  476loPI   GL1 7605  16.649  12.627  10.459  0.2751 -0.0718  0.0360
  476loPI   GL2 7606  16.546  12.372  10.256  0.1009 -0.1404  0.0205
  476loPI   C1A 7607  16.771  12.806   9.970  0.0584  0.1781 -0.3633
  476loPI   C2A 7608  16.704  12.912   9.586 -0.3720  0.0301  0.2707
  476loPI   C3A 7609  16.771  12.868   9.089  0.0002 -0.2049  0.0848
  476loPI   C4A 7610  16.805  12.973   8.594 -0.0113 -0.1635  0.0463
  476loPI   C5A 7611  16.819  12.861   8.185  0.1622  0.1201 -0.2019
  476loPI   C6A 7612  16.845  12.742   7.671  0.0073  0.1529 -0.0493
  476loPI   C1B 7613  16.551  12.358   9.858 -0.2110  0.1740  0.3064
  476loPI   C2B 7614  16.567  12.479   9.390  0.1184 -0.1681  0.1304
  476loPI   C3B 7615  16.584  12.514   8.876 -0.0178 -0.0135  0.2149
  476loPI   C4B 7616  16.535  12.470   8.507 -0.0033 -0.1026 -0.0116
  477loPI    C1 7617   5.203  17.160  10.721  0.1759  0.1443  0.1131
  477loPI    C2 7618   4.815  17.124  10.813  0.1358  0.3072  0.0106
  477loPI    C3 7619   5.087  17.155  11.104  0.1070 -0.1289  0.0914
  477loPI   PO4 7620   5.199  17.097  10.488  0.1248  0.1558 -0.0616
  477loPI   GL1 7621   5.175  17.241  10.106 -0.1001 -0.2537 -0.3727
  477loPI   GL2 7622   5.511  17.091  10.080 -0.0725  0.1561 -0.0756
  477loPI   C1A 7623   4.979  17.281   9.736  0.2244 -0.2222  0.0540
  477loPI   C2A 7624   5.010  17.133   9.327  0.0687 -0.2308 -0.0661
  477loPI   C3A 7625   5.031  17.195   8.923 -0.4365  0.0762  0.1707
  477loPI   C4A 7626   4.944  17.292   8.529  0.1594 -0.1865  0.0665
  477loPI   C5A 7627   4.985  17.273   8.093  0.0146 -0.1459  0.1523
  477loPI   C6A 7628   5.291  17.170   7.740  0.3278 -0.0304  0.1189
  477loPI   C1B 7629   5.470  17.137   9.647 -0.1169 -0.1241  0.0663
  477loPI   C2B 7630   5.467  17.256   9.260 -0.0775  0.0297 -0.0118
  477loPI   C3B 7631   5.515  17.350   8.840  0.0260  0.0205 -0.0221
  477loPI   C4B 7632   5.425  17.329   8.347  0.0121 -0.0655 -0.4274
  478loPI    C1 7633   0.969   1.173  10.537  0.2305  0.0213  0.0720
  478loPI    C2 7634   1.104   1.356  10.867  0.1225  0.1333  0.0546
  478loPI    C3 7635   0.715   1.372  10.773  0.1775  0.2375 -0.1631
  478loPI   PO4 7636   1.114   1.208  10.381 -0.0064  0.0061  0.0519
  478loPI   GL1 7637   1.091   1.383  10.080 -0.0685 -0.1099  0.0630
  478loPI   GL2 7638   1.267   1.632  10.088  0.2741 -0.0947 -0.0627
  478loPI   C1A 7639   0.995   1.216   9.689 -0.0155  0.0014 -0.4589
  478loPI   C2A 7640   0.998   1.186   9.266 -0.0243  0.2602 -0.1029
  478loPI   C3A 7641   0.971   1.202   8.842  0.1681  0.1445 -0.0756
  478loPI   C4A 7642   1.074   1.249   8.425 -0.1874  0.1444 -0.0601
  478loPI   C5A 7643   0.991   1.443   8.057 -0.2061  0.0095  0.1021
  478loPI   C6A 7644   1.221   1.703   7.773  0.1441 -0.1392 -0.3531
  478loPI   C1B 7645   1.215   1.671   9.689 -0.0165 -0.0985  0.2359
  478loPI   C2B 7646   1.238   1.641   9.266  0.0206 -0.1200  0.0764
  478loPI   C3B 7647   1.253   1.616   8.807 -0.0896 -0.1564 -0.0111
  478loPI   C4B 7648   1.199   1.819   8.413  0.2997  0.0057  0.4417
  479loPI    C1 7649  12.139  13.221  10.888  0.0746  0.0536 -0.1584
  479loPI    C2 7650  12.351  12.964  11.110 -0.0702 -0.0020 -0.0832
  479loPI    C3 7651  12.248  13.321  11.260  0.0094  0.0436 -0.1364
  479loPI   PO4 7652  12.231  13.234  10.704  0.2832 -0.2298  0.0736
  479loPI   GL1 7653  12.218  12.966  10.333  0.2777  0.1940  0.2044
  479loPI   GL2 7654  12.400  13.147  10.099  0.0395  0.1149 -0.2271
  479loPI   C1A 7655  11.930  13.029   9.930 -0.2142  0.1856 -0.1753
  479loPI   C2A 7656  11.880  13.073   9.481  0.3510 -0.2174 -0.3162
  479loPI   C3A 7657  11.851  13.130   9.081  0.0847  0.0475 -0.4799
  479loPI   C4A 7658  11.836  13.102   8.656  0.0539 -0.0020 -0.0492
  479loPI   C5A 7659  12.048  12.933   8.303 -0.0570  0.3638 -0.1388
  479loPI   C6A 7660  11.947  12.554   8.136  0.0093  0.0010  0.1896
  479loPI   C1B 7661  12.415  13.125   9.631  0.1036  0.0770  0.1770
  479loPI   C2B 7662  12.353  13.133   9.242  0.0790  0.0471 -0.0218
  479loPI   C3B 7663  12.350  13.023   8.853 -0.1650 -0.0115  0.2599
  479loPI   C4B 7664  12.486  13.001   8.496  0.0750  0.0747 -0.0103
  480loPI    C1 7665  17.303  13.692  11.379 -0.1901 -0.0897  0.0390
  480loPI    C2 7666  17.142  13.365  11.215 -0.1309 -0.2542  0.3039
  480loPI    C3 7667  16.941  13.567  11.496 -0.1674 -0.0613  0.1404
  480loPI   PO4 7668  17.459  13.725  11.104  0.1049 -0.1234  0.1782
  480loPI   GL1 7669  17.343  13.611  10.688 -0.1337  0.0666  0.3037
  480loPI   GL2 7670  17.658  13.544  10.502  0.0299  0.1646  0.0438
  480loPI   C1A 7671  17.281  13.760  10.212  0.0355 -0.0014 -0.0068
  480loPI   C2A 7672  17.291  13.728   9.746  0.2285  0.3600 -0.0136
  480loPI   C3A 7673  17.282  13.829   9.327  0.0902  0.0068  0.1018
  480loPI   C4A 7674  17.192  13.810   8.923 -0.0647  0.2037  0.1331
  480loPI   C5A 7675  17.219  13.830   8.459 -0.0008 -0.1073  0.0751
  480loPI   C6A 7676  17.067  13.848   8.016  0.0189 -0.1000  0.1479
  480loPI   C1B 7677  17.757  13.687  10.006  0.1458  0.0554  0.4263
  480loPI   C2B 7678  17.792  13.733   9.535  0.0115  0.0275  0.2418
  480loPI   C3B 7679  17.727  13.873   9.079 -0.0935 -0.4695  0.1802
  480loPI   C4B 7680  17.697  13.881   8.609 -0.0362  0.2045  0.0836
  481loPI    C1 7681   2.406  17.059  11.033 -0.0914 -0.0541  0.2112
  481loPI    C2 7682   2.668  16.867  11.267 -0.0470  0.0658  0.2609
  481loPI    C3 7683   2.453  17.170  11.415 -0.1838 -0.0049  0.2086
  481loPI   PO4 7684   2.536  17.016  10.807  0.0472  0.3256 -0.1213
  481loPI   GL1 7685   2.513  16.902  10.368 -0.2039  0.0286  0.2230
  481loPI   GL2 7686   2.247  17.057  10.414  0.1361  0.0052  0.0708
  481loPI   C1A 7687   2.650  16.652  10.095  0.3997  0.0532 -0.1654
  481loPI   C2A 7688   2.641  16.569   9.670  0.2886 -0.3124  0.3712
  481loPI   C3A 7689   2.618  16.667   9.340  0.1236  0.1227  0.4244
  481loPI   C4A 7690   2.695  16.704   8.838  0.2327 -0.0827 -0.2300
  481loPI   C5A 7691   2.663  16.636   8.319 -0.4292 -0.0711 -0.3008
  481loPI   C6A 7692   2.410  16.804   8.014  0.3487 -0.1367  0.0779
  481loPI   C1B 7693   2.313  17.052   9.917 -0.1644 -0.1099 -0.1121
  481loPI   C2B 7694   2.350  17.114   9.473 -0.0129 -0.2186  0.2168
  481loPI   C3B 7695   2.306  17.115   9.015 -0.0051  0.2183 -0.3702
  481loPI   C4B 7696   2.317  17.075   8.589 -0.0183  0.1758  0.0325
  482loPI    C1 7697   5.434   6.226  11.192 -0.0184  0.1180  0.1933
  482loPI    C2 7698   5.244   6.193  11.542 -0.1617 -0.1426  0.0941
  482loPI    C3 7699   5.554   5.954  11.460 -0.1766 -0.1339  0.0127
  482loPI   PO4 7700   5.202   6.181  11.012  0.0320  0.0604  0.1297
  482loPI   GL1 7701   5.139   6.281  10.545 -0.1413 -0.0476 -0.1744
  482loPI   GL2 7702   4.925   6.424  10.496 -0.0253  0.3552  0.0860
  482loPI   C1A 7703   5.535   6.355  10.160 -0.1162  0.1076  0.1021
  482loPI   C2A 7704   5.618   6.479   9.776  0.2268 -0.0321 -0.1311
  482loPI   C3A 7705   5.574   6.597   9.363  0.2160 -0.3960 -0.0460
  482loPI   C4A 7706   5.589   6.642   8.849  0.1784  0.0119  0.1517
  482loPI   C5A 7707   5.424   6.937   8.483  0.0826 -0.1368  0.1334
  482loPI   C6A 7708   5.015   6.971   8.405 -0.0714 -0.1245  0.1682
  482loPI   C1B 7709   5.024   6.418  10.000  0.1411  0.0792  0.3649
  482loPI   C2B 7710   5.084   6.490   9.519  0.0588  0.0978 -0.0159
  482loPI   C3B 7711   5.109   6.555   9.102 -0.0321 -0.1171 -0.0476
  482loPI   C4B 7712   4.959   6.549   8.720  0.1070  0.1597 -0.4119
  483loPI    C1 7713  11.464   0.097  10.657  0.0283  0.2365 -0.1586
  483loPI    C2 7714  11.742   0.372  10.572  0.0832  0.2815  0.1569
  483loPI    C3 7715  11.663   0.277  10.953 -0.2087  0.1390  0.0638
  483loPI   PO4 7716  11.299   0.133  10.507 -0.0847 -0.1044  0.2098
  483loPI   GL1 7717  11.189  -0.044  10.053 -0.0895 -0.0839  0.2307
  483loPI   GL2 7718  10.906   0.124   9.899  0.0591 -0.2201 -0.1377
  483loPI   C1A 7719  11.352   0.125   9.709  0.2169 -0.0358  0.0225
  483loPI   C2A 7720  11.287   0.086   9.326 -0.1217  0.1331 -0.2102
  483loPI   C3A 7721  11.295  -0.012   8.945 -0.4015  0.1552 -0.0717
  483loPI   C4A 7722  11.296   0.021   8.535  0.0487 -0.2416 -0.1327
  483loPI   C5A 7723  11.300   0.118   8.094 -0.1348 -0.2622 -0.0236
  483loPI   C6A 7724  10.977   0.137   7.875  0.1076  0.0958 -0.1172
  483loPI   C1B 7725  10.843   0.034   9.559  0.3458 -0.0062  0.1578
  483loPI   C2B 7726  10.822   0.029   9.170  0.0957 -0.0557  0.2421
  483loPI   C3B 7727  10.804  -0.107   8.772  0.1767 -0.1748 -0.0936
  483loPI   C4B 7728  10.812  -0.094   8.295 -0.0106  0.0864  0.0197
  484loPI    C1 7729  15.799  15.445  11.103 -0.0674  0.0646  0.0213
  484loPI    C2 7730  15.869  15.832  11.175 -0.0369  0.0377  0.1381
  484loPI    C3 7731  15.550  15.653  11.337 -0.1438  0.0542 -0.0504
  484loPI   PO4 7732  15.923  15.437  10.798  0.3704  0.3554  0.2208
  484loPI   GL1 7733  15.981  15.537  10.370 -0.0621  0.0124  0.0189
  484loPI   GL2 7734  16.027  15.198  10.313 -0.1960 -0.1475  0.0935
  484loPI   C1A 7735  16.151  15.541   9.980  0.0731 -0.1916 -0.2503
  484loPI   C2A 7736  16.187  15.556   9.540  0.1636 -0.2887  0.0241
  484loPI   C3A 7737  16.256  15.659   9.122 -0.0378 -0.1175  0.1286
  484loPI   C4A 7738  16.167  15.676   8.663 -0.2387  0.0274 -0.0036
  484loPI   C5A 7739  16.296  15.749   8.285 -0.1544  0.0047  0.0445
  484loPI   C6A 7740  16.466  15.505   7.942 -0.1689 -0.0074  0.2633
  484loPI   C1B 7741  15.980  15.116   9.789  0.2178  0.1075  0.0559
  484loPI   C2B 7742  15.861  15.133   9.341 -0.0915 -0.1747 -0.2160
  484loPI   C3B 7743  15.995  15.189   8.997 -0.0720 -0.2375 -0.1850
  484loPI   C4B 7744  15.881  15.176   8.567 -0.2721  0.0290  0.1896
  485loPI    C1 7745   1.422   3.619  10.955  0.2157  0.0245 -0.1420
  485loPI    C2 7746   1.412   3.222  11.000 -0.0184  0.0105 -0.2969
  485loPI    C3 7747   1.561   3.453  11.291 -0.1094 -0.1735 -0.1013
  485loPI   PO4 7748   1.200   3.673  10.842  0.2809 -0.1433 -0.2845
  485loPI   GL1 7749   0.967   3.733  10.448 -0.2412 -0.0478 -0.2034
  485loPI   GL2 7750   1.200   3.909  10.401 -0.0989  0.1743  0.3015
  485loPI   C1A 7751   0.840   4.047  10.033  0.4280 -0.0750 -0.1866
  485loPI   C2A 7752   0.829   4.074   9.550  0.0870 -0.1432  0.0565
  485loPI   C3A 7753   0.897   4.117   9.135  0.0555 -0.2720  0.1156
  485loPI   C4A 7754   0.796   4.212   8.817 -0.1777 -0.2259 -0.2161
  485loPI   C5A 7755   0.988   4.081   8.415  0.0118  0.3563  0.0598
  485loPI   C6A 7756   0.987   4.077   7.985  0.3109 -0.0529 -0.0707
  485loPI   C1B 7757   1.354   4.000  10.042 -0.5308 -0.1167 -0.0678
  485loPI   C2B 7758   1.342   4.187   9.609  0.1410 -0.5361 -0.0113
  485loPI   C3B 7759   1.358   4.146   9.164  0.0680 -0.4848 -0.0572
  485loPI   C4B 7760   1.366   4.099   8.779  0.0119  0.0079 -0.1304
  486loPI    C1 7761  13.897  11.215  11.266 -0.4973  0.2588 -0.0888
  486loPI    C2 7762  14.237  11.419  11.215 -0.2779 -0.0572  0.0779
  486loPI    C3 7763  13.968  11.542  11.484 -0.2221  0.1026  0.0612
  486loPI   PO4 7764  13.956  11.031  11.071 -0.0061 -0.1081 -0.0846
  486loPI   GL1 7765  14.042  11.028  10.615  0.1682  0.1843  0.0296
  486loPI   GL2 7766  14.290  10.950  10.418  0.0817 -0.0215 -0.0366
  486loPI   C1A 7767  13.848  10.902  10.264  0.0916 -0.0168 -0.2174
  486loPI   C2A 7768  13.831  10.892   9.808 -0.2165 -0.1058 -0.1662
  486loPI   C3A 7769  13.852  10.987   9.368  0.4055 -0.0268 -0.0403
  486loPI   C4A 7770  13.849  11.021   8.907 -0.3928 -0.1022  0.1193
  486loPI   C5A 7771  13.769  10.927   8.458 -0.0356 -0.0861 -0.0402
  486loPI   C6A 7772  13.882  10.635   8.131  0.1880 -0.2436 -0.0267
  486loPI   C1B 7773  14.293  10.992  10.007 -0.2856 -0.1457  0.2125
  486loPI   C2B 7774  14.389  11.021   9.596 -0.3277  0.2883  0.2619
  486loPI   C3B 7775  14.297  10.953   9.176 -0.3950  0.0589  0.1150
  486loPI   C4B 7776  14.312  10.983   8.693  0.4549  0.0359 -0.0211
  487loPI    C1 7777  15.664  17.313  10.679  0.1041  0.2572 -0.0012
  487loPI    C2 7778  15.764  17.370  11.062  0.2055 -0.2384  0.0529
  487loPI    C3 7779  15.399  17.238  10.969  0.1981 -0.1676 -0.0186
  487loPI   PO4 7780  15.856  17.454  10.537  0.2982  0.1710 -0.1198
  487loPI   GL1 7781  15.900  17.579  10.090 -0.1901 -0.2711  0.2255
  487loPI   GL2 7782  16.001  17.276   9.988 -0.1978 -0.0469  0.3398
  487loPI   C1A 7783  15.784  17.774   9.725 -0.1633  0.0158  0.2619
  487loPI   C2A 7784  15.823  17.840   9.291 -0.2581  0.1258  0.1988
  487loPI   C3A 7785  15.806  17.875   8.856 -0.3810  0.0929 -0.2416
  487loPI   C4A 7786  15.761  17.893   8.407 -0.1998 -0.1461  0.0183
  487loPI   C5A 7787  15.760  17.980   8.013  0.0208 -0.2012  0.3034
  487loPI   C6A 7788  15.973  17.852   7.653  0.2688  0.1966  0.2422
  487loPI   C1B 7789  16.094  17.402   9.522  0.4459 -0.1226 -0.1223
  487loPI   C2B 7790  16.101  17.363   9.100 -0.0564  0.2109 -0.0197
  487loPI   C3B 7791  16.072  17.441   8.625 -0.0284 -0.3911 -0.0149
  487loPI   C4B 7792  15.936  17.514   8.115 -0.1355 -0.1445 -0.2152
  488loPI    C1 7793   5.394  11.270  11.270 -0.1759  0.1269  0.0197
  488loPI    C2 7794   5.712  11.387  11.481 -0.0072 -0.0457 -0.1353
  488loPI    C3 7795   5.349  11.393  11.648  0.1057 -0.0578  0.1164
  488loPI   PO4 7796   5.487  11.218  11.083 -0.2186  0.1348 -0.1151
  488loPI   GL1 7797   5.279  11.054  10.700 -0.0073  0.1282 -0.1922
  488loPI   GL2 7798   5.006  11.310  10.514 -0.2257  0.2250 -0.2186
  488loPI   C1A 7799   5.373  11.004  10.330 -0.1415  0.3563  0.1739
  488loPI   C2A 7800   5.326  10.987   9.903  0.1404  0.1320  0.4036
  488loPI   C3A 7801   5.341  11.014   9.379  0.1405  0.0635 -0.0545
  488loPI   C4A 7802   5.356  11.004   8.907  0.1419 -0.4228 -0.0278
  488loPI   C5A 7803   5.283  10.987   8.536  0.2189 -0.1625 -0.0767
  488loPI   C6A 7804   5.745  11.022   8.306  0.3194 -0.0480 -0.1244
  488loPI   C1B 7805   5.127  11.394  10.084 -0.0386 -0.2178 -0.0194
  488loPI   C2B 7806   5.083  11.446   9.643  0.2925  0.3273  0.0094
  488loPI   C3B 7807   5.005  11.499   9.188  0.0977  0.0714  0.0219
  488loPI   C4B 7808   5.024  11.538   8.732 -0.1489  0.0900 -0.1952
  489loPI    C1 7809  14.652   4.487  11.040 -0.1070  0.2391 -0.1097
  489loPI    C2 7810  14.325   4.340  11.218  0.2551 -0.3339  0.1080
  489loPI    C3 7811  14.668   4.370  11.422  0.3349  0.3178 -0.0991
  489loPI   PO4 7812  14.525   4.724  10.885 -0.1381 -0.2176  0.2302
  489loPI   GL1 7813  14.509   4.566  10.538  0.1995  0.1368  0.2792
  489loPI   GL2 7814  14.669   4.641  10.254 -0.2526  0.3410  0.1133
  489loPI   C1A 7815  14.191   4.553  10.215 -0.1252  0.0675  0.4170
  489loPI   C2A 7816  14.209   4.736   9.846 -0.2148  0.0715  0.0913
  489loPI   C3A 7817  14.209   4.759   9.380  0.1623  0.1221 -0.0151
  489loPI   C4A 7818  14.183   4.724   8.917  0.0457 -0.0454  0.0613
  489loPI   C5A 7819  14.201   4.721   8.490  0.0597  0.1905  0.4225
  489loPI   C6A 7820  14.473   4.836   8.104 -0.0080  0.4850 -0.3455
  489loPI   C1B 7821  14.812   4.605   9.903  0.2833  0.0272  0.1215
  489loPI   C2B 7822  14.734   4.663   9.461  0.0687  0.0149 -0.3144
  489loPI   C3B 7823  14.712   4.666   9.067  0.0027  0.0379  0.2074
  489loPI   C4B 7824  14.648   4.704   8.691 -0.2697  0.2039  0.4267
  490loPI    C1 7825   5.642  12.956  11.167 -0.0897 -0.1594 -0.0798
  490loPI    C2 7826   5.842  12.631  11.286  0.0950 -0.0510 -0.0902
  490loPI    C3 7827   5.796  12.940  11.535  0.1282  0.0118 -0.1614
  490loPI   PO4 7828   5.773  12.975  10.857 -0.3181 -0.1557 -0.3084
  490loPI   GL1 7829   5.683  13.114  10.383  0.2247 -0.1203  0.2208
  490loPI   GL2 7830   5.512  13.325  10.301 -0.0207 -0.1132  0.1884
  490loPI   C1A 7831   5.905  13.224   9.970 -0.0562  0.1022  0.2806
  490loPI   C2A 7832   6.044  13.223   9.572  0.0539 -0.2518 -0.1583
  490loPI   C3A 7833   5.955  13.208   9.169 -0.0666 -0.1334 -0.2432
  490loPI   C4A 7834   5.773  13.243   8.797 -0.1272  0.1261 -0.1078
  490loPI   C5A 7835   5.629  13.155   8.408  0.0784  0.0457  0.1082
  490loPI   C6A 7836   5.222  13.079   8.226 -0.0155 -0.0886 -0.2314
  490loPI   C1B 7837   5.416  13.186   9.931 -0.0197 -0.2326 -0.4121
  490loPI   C2B 7838   5.510  13.181   9.450 -0.1182 -0.0834 -0.2713
  490loPI   C3B 7839   5.344  13.301   9.107 -0.0097 -0.3302  0.2215
  490loPI   C4B 7840   5.285  13.307   8.704  0.2159  0.1765 -0.2306
  491loPI    C1 7841   0.096   6.794  10.742 -0.0774 -0.1857  0.0581
  491loPI    C2 7842  -0.243   6.665  10.909 -0.0973 -0.2109 -0.0016
  491loPI    C3 7843   0.110   6.562  11.067 -0.1185 -0.1345  0.0965
  491loPI   PO4 7844   0.148   6.726  10.468 -0.1952  0.1947 -0.0958
  491loPI   GL1 7845   0.015   6.755  10.024  0.1453  0.1230 -0.1654
  491loPI   GL2 7846  -0.043   7.086  10.066 -0.1553  0.0114 -0.0902
  491loPI   C1A 7847   0.100   6.677   9.590  0.2563  0.1211  0.3133
  491loPI   C2A 7848   0.061   6.705   9.094 -0.0699 -0.0396  0.3948
  491loPI   C3A 7849   0.096   6.716   8.641 -0.3567 -0.1316  0.3139
  491loPI   C4A 7850   0.007   6.817   8.207  0.1102  0.0824  0.1628
  491loPI   C5A 7851  -0.142   7.085   8.005  0.2121 -0.0543 -0.0587
  491loPI   C6A 7852  -0.362   7.358   7.672 -0.0127  0.1012  0.0187
  491loPI   C1B 7853  -0.190   7.101   9.690 -0.0944  0.1762 -0.1058
  491loPI   C2B 7854  -0.162   7.161   9.289  0.1313 -0.3458  0.1798
  491loPI   C3B 7855  -0.237   7.263   8.854  0.1976  0.0840 -0.0091
  491loPI   C4B 7856  -0.241   7.213   8.507  0.3447 -0.1857  0.3701
  492loPI    C1 7857  11.671   3.599  11.044  0.0121 -0.2355 -0.0831
  492loPI    C2 7858  11.588   3.401  11.382 -0.1446  0.0979  0.0791
  492loPI    C3 7859  11.702   3.784  11.398 -0.1093  0.1040 -0.2450
  492loPI   PO4 7860  11.643   3.354  10.823  0.0348  0.1714  0.0816
  492loPI   GL1 7861  11.431   3.366  10.420 -0.0504  0.2439  0.1547
  492loPI   GL2 7862  11.661   3.492  10.164  0.1152 -0.4630 -0.1175
  492loPI   C1A 7863  11.210   3.543  10.030 -0.0558  0.0225 -0.1480
  492loPI   C2A 7864  11.244   3.726   9.613 -0.0600 -0.2432 -0.0271
  492loPI   C3A 7865  11.203   3.686   9.217  0.3486 -0.0291 -0.0317
  492loPI   C4A 7866  11.130   3.637   8.765 -0.0047 -0.2748  0.0017
  492loPI   C5A 7867  11.053   3.835   8.354  0.2084  0.2210  0.1525
  492loPI   C6A 7868  10.638   3.742   8.186 -0.0108 -0.0161  0.1032
  492loPI   C1B 7869  11.713   3.709   9.719 -0.0320  0.1144  0.0286
  492loPI   C2B 7870  11.720   3.715   9.314  0.1528  0.3503 -0.1989
  492loPI   C3B 7871  11.617   3.682   8.864 -0.0436  0.1887  0.0862
  492loPI   C4B 7872  11.656   3.796   8.459  0.0397 -0.0136  0.2646
  493loPI    C1 7873  10.705  14.335  10.875  0.1012  0.0536 -0.0502
  493loPI    C2 7874  10.333  14.461  10.951  0.0579  0.1209 -0.3600
  493loPI    C3 7875  10.639  14.602  11.166 -0.1084 -0.0467 -0.0034
  493loPI   PO4 7876  10.702  14.361  10.617  0.1042 -0.2381 -0.0415
  493loPI   GL1 7877  10.618  14.585  10.282  0.1014  0.1301  0.1478
  493loPI   GL2 7878  10.490  14.896  10.233  0.0310  0.2243  0.1588
  493loPI   C1A 7879  10.603  14.499   9.847 -0.1761  0.1048  0.0345
  493loPI   C2A 7880  10.549  14.443   9.395  0.2525  0.0221  0.5408
  493loPI   C3A 7881  10.547  14.418   8.923  0.0257 -0.2280  0.1126
  493loPI   C4A 7882  10.448  14.437   8.520  0.0354 -0.1190  0.2239
  493loPI   C5A 7883  10.515  14.475   8.123  0.0398 -0.0871  0.0659
  493loPI   C6A 7884  10.463  14.709   7.811  0.1727 -0.1727  0.1621
  493loPI   C1B 7885  10.236  14.873   9.863  0.1830  0.0341  0.1866
  493loPI   C2B 7886  10.314  14.887   9.519 -0.1397 -0.2661  0.0706
  493loPI   C3B 7887  10.291  14.842   9.100 -0.2482 -0.0397 -0.0980
  493loPI   C4B 7888  10.261  14.841   8.753  0.1441  0.1085 -0.1650
  494loPI    C1 7889  17.055   9.032  10.955 -0.0984  0.1772  0.1744
  494loPI    C2 7890  17.281   8.788  11.176  0.0183 -0.0858 -0.2240
  494loPI    C3 7891  16.884   8.745  11.174  0.0351 -0.2455 -0.2577
  494loPI   PO4 7892  17.183   9.053  10.552 -0.1267 -0.1689  0.2655
  494loPI   GL1 7893  17.203   8.924  10.267 -0.0671 -0.1191  0.0538
  494loPI   GL2 7894  16.897   8.813  10.164 -0.3889  0.0748  0.0014
  494loPI   C1A 7895  17.353   8.780   9.966  0.0477 -0.2940  0.0145
  494loPI   C2A 7896  17.326   8.915   9.638 -0.2770 -0.1953 -0.0750
  494loPI   C3A 7897  17.355   8.865   9.241  0.0894 -0.0746  0.2073
  494loPI   C4A 7898  17.357   8.947   8.857 -0.0856 -0.0752  0.0559
  494loPI   C5A 7899  17.168   8.911   8.436  0.2102  0.1933 -0.1757
  494loPI   C6A 7900  16.911   9.291   8.297 -0.0378  0.0003 -0.3217
  494loPI   C1B 7901  16.796   8.845   9.778  0.0523  0.3247  0.0503
  494loPI   C2B 7902  16.819   8.840   9.336 -0.0698 -0.0160  0.0357
  494loPI   C3B 7903  16.814   8.880   8.862 -0.2157  0.0134 -0.2235
  494loPI   C4B 7904  16.666   8.802   8.479  0.0957 -0.0925  0.2534
  495loPI    C1 7905  12.116  15.986  10.320 -0.0592  0.0657 -0.0207
  495loPI    C2 7906  12.202  16.231  10.624 -0.0263  0.0238  0.0037
  495loPI    C3 7907  12.039  15.872  10.695 -0.2043  0.0946 -0.0410
  495loPI   PO4 7908  12.001  16.275  10.147  0.2180 -0.0269  0.0267
  495loPI   GL1 7909  11.748  16.348   9.766 -0.2200 -0.1185 -0.1228
  495loPI   GL2 7910  11.898  16.707   9.833  0.0409  0.0990 -0.0702
  495loPI   C1A 7911  11.554  16.237   9.370  0.3416  0.0380 -0.1517
  495loPI   C2A 7912  11.389  16.180   8.939 -0.1906  0.2754  0.0332
  495loPI   C3A 7913  11.488  16.232   8.524 -0.2800  0.0840 -0.2217
  495loPI   C4A 7914  11.431  16.269   8.086 -0.0604  0.0251 -0.0289
  495loPI   C5A 7915  11.122  16.472   7.883 -0.0132  0.1926  0.0388
  495loPI   C6A 7916  11.137  16.898   7.838  0.0823 -0.1712  0.0636
  495loPI   C1B 7917  11.783  16.727   9.403 -0.1145  0.0887  0.2088
  495loPI   C2B 7918  11.738  16.689   8.976 -0.1639  0.2642 -0.0034
  495loPI   C3B 7919  11.698  16.671   8.447  0.0511 -0.1997  0.0538
  495loPI   C4B 7920  11.582  16.720   7.954 -0.0791 -0.2817 -0.2946
  496loPI    C1 7921  13.745   4.654  10.603  0.0588 -0.0341  0.4211
  496loPI    C2 7922  14.050   4.903  10.673  0.0821  0.0237  0.1273
  496loPI    C3 7923  14.012   4.568  10.889  0.2338  0.1192  0.3061
  496loPI   PO4 7924  13.545   4.772  10.646 -0.2339  0.0844  0.1602
  496loPI   GL1 7925  13.302   4.767  10.277  0.0935 -0.1561  0.1590
  496loPI   GL2 7926  13.390   5.157  10.344  0.0737 -0.0592 -0.1527
  496loPI   C1A 7927  13.130   4.652   9.826  0.2313 -0.0823  0.1628
  496loPI   C2A 7928  13.216   4.695   9.386  0.2306 -0.1595  0.1279
  496loPI   C3A 7929  13.176   4.667   8.926  0.2489 -0.2075 -0.0780
  496loPI   C4A 7930  13.164   4.631   8.556 -0.0851  0.0116 -0.0832
  496loPI   C5A 7931  13.008   4.657   8.135 -0.1424 -0.1273 -0.1680
  496loPI   C6A 7932  12.901   4.623   7.760  0.2458 -0.1769  0.3742
  496loPI   C1B 7933  13.350   5.098   9.909 -0.0802  0.0064 -0.1369
  496loPI   C2B 7934  13.460   5.125   9.514 -0.0959 -0.1943  0.2080
  496loPI   C3B 7935  13.368   5.109   9.137 -0.0096  0.0054 -0.2020
  496loPI   C4B 7936  13.400   5.080   8.676 -0.0398  0.0470 -0.0928
  497loPI    C1 7937  10.538   1.056  10.767 -0.0353 -0.1789 -0.1804
  497loPI    C2 7938  10.210   0.861  10.888 -0.1492  0.0946 -0.0400
  497loPI    C3 7939  10.508   0.931  11.146 -0.1340  0.1559 -0.0741
  497loPI   PO4 7940  10.425   1.157  10.572  0.1569 -0.0259  0.0142
  497loPI   GL1 7941  10.095   0.905  10.323  0.1721  0.1283 -0.1984
  497loPI   GL2 7942  10.350   0.885  10.138 -0.0166 -0.1948 -0.4474
  497loPI   C1A 7943   9.873   0.844   9.906  0.3752 -0.1692  0.0879
  497loPI   C2A 7944   9.770   0.790   9.426  0.1289  0.0475  0.2207
  497loPI   C3A 7945   9.729   0.881   9.003 -0.4121  0.1283  0.3427
  497loPI   C4A 7946   9.750   0.747   8.508  0.1614  0.1353 -0.1359
  497loPI   C5A 7947   9.574   0.818   8.057 -0.1248 -0.1567 -0.0016
  497loPI   C6A 7948   9.256   0.782   7.669  0.0103 -0.2100 -0.0605
  497loPI   C1B 7949  10.340   0.924   9.705 -0.0945 -0.2814 -0.5654
  497loPI   C2B 7950  10.276   0.884   9.286  0.1039 -0.4104 -0.1478
  497loPI   C3B 7951  10.290   0.834   8.851  0.0901  0.0345 -0.2546
  497loPI   C4B 7952  10.217   0.960   8.373  0.0344 -0.0342 -0.0157
  498loPI    C1 7953   0.745  16.213  10.880 -0.1169  0.1368 -0.1410
  498loPI    C2 7954   0.383  16.110  10.744 -0.0860  0.1148 -0.2065
  498loPI    C3 7955   0.465  16.082  11.135 -0.1723  0.1709 -0.1841
  498loPI   PO4 7956   0.913  16.096  10.730  0.2051  0.0248 -0.0535
  498loPI   GL1 7957   0.755  16.142  10.415  0.1944 -0.1256  0.1430
  498loPI   GL2 7958   0.608  16.513  10.509 -0.0608 -0.3145 -0.1091
  498loPI   C1A 7959   0.930  16.104   9.967 -0.1036 -0.0322 -0.2447
  498loPI   C2A 7960   0.920  16.110   9.506  0.0738 -0.0719 -0.0127
  498loPI   C3A 7961   0.824  16.150   9.101  0.1370  0.3726 -0.1409
  498loPI   C4A 7962   0.840  16.199   8.663 -0.0022  0.1550  0.0612
  498loPI   C5A 7963   1.142  16.111   8.297  0.2168 -0.3757  0.2174
  498loPI   C6A 7964   1.335  16.067   7.893  0.1835 -0.1160 -0.0649
  498loPI   C1B 7965   0.652  16.515  10.014 -0.1120 -0.0046 -0.0983
  498loPI   C2B 7966   0.546  16.580   9.652  0.1192  0.0850 -0.0136
  498loPI   C3B 7967   0.598  16.649   9.254 -0.2294  0.1287 -0.0961
  498loPI   C4B 7968   0.486  16.657   8.860 -0.0869 -0.1751 -0.0278
  499loPI    C1 7969   0.300   1.021  10.849  0.0107  0.1012  0.0677
  499loPI    C2 7970   0.016   1.169  11.087  0.1184 -0.0824  0.3148
  499loPI    C3 7971   0.400   1.191  11.196  0.1589 -0.2749  0.2149
  499loPI   PO4 7972   0.131   0.982  10.603  0.0076 -0.2412 -0.3567
  499loPI   GL1 7973   0.070   0.958  10.199 -0.2314  0.2268 -0.2142
  499loPI   GL2 7974  -0.091   1.203  10.232  0.0127  0.1816 -0.2274
  499loPI   C1A 7975   0.285   0.668   9.968 -0.2126 -0.3306 -0.1470
  499loPI   C2A 7976   0.257   0.729   9.522  0.1042  0.2233  0.2547
  499loPI   C3A 7977   0.272   0.746   9.085 -0.0357  0.2339  0.0255
  499loPI   C4A 7978   0.195   0.902   8.681 -0.0989 -0.1402 -0.0157
  499loPI   C5A 7979   0.054   0.822   8.243 -0.1546  0.0052 -0.0376
  499loPI   C6A 7980  -0.104   0.607   7.944 -0.1625 -0.0965 -0.2723
  499loPI   C1B 7981   0.014   1.160   9.744 -0.0928  0.3858  0.0770
  499loPI   C2B 7982   0.006   1.143   9.299  0.1342 -0.4538  0.2493
  499loPI   C3B 7983   0.043   1.325   8.867  0.2452 -0.1584 -0.2153
  499loPI   C4B 7984   0.138   1.413   8.431 -0.0658 -0.2008  0.0422
  500loPI    C1 7985  15.571   5.434  10.916 -0.1293  0.0388  0.1393
  500loPI    C2 7986  15.709   5.801  10.992 -0.3067  0.1052  0.1440
  500loPI    C3 7987  15.619   5.555  11.294 -0.0743  0.0136  0.1405
  500loPI   PO4 7988  15.515   5.476  10.592 -0.0966 -0.6230  0.0649
  500loPI   GL1 7989  15.488   5.435  10.226 -0.0490 -0.1648  0.0926
  500loPI   GL2 7990  15.519   5.738  10.166 -0.1384  0.0542  0.2031
  500loPI   C1A 7991  15.389   5.247   9.845 -0.3327  0.1353  0.0435
  500loPI   C2A 7992  15.468   5.221   9.528  0.1129 -0.0315 -0.4622
  500loPI   C3A 7993  15.384   5.246   9.151  0.0733 -0.3072  0.0456
  500loPI   C4A 7994  15.371   5.173   8.717 -0.2335  0.0365  0.2787
  500loPI   C5A 7995  15.318   5.280   8.314  0.2577  0.0778 -0.0749
  500loPI   C6A 7996  15.243   5.445   7.880  0.2935  0.0109  0.2030
  500loPI   C1B 7997  15.637   5.725   9.800  0.0574  0.2171 -0.4674
  500loPI   C2B 7998  15.636   5.737   9.332 -0.2281  0.1077 -0.1891
  500loPI   C3B 7999  15.620   5.649   8.945 -0.0528  0.2217 -0.0291
  500loPI   C4B 8000  15.687   5.650   8.485  0.2857  0.2721 -0.0375
  501loPI    C1 8001   5.382   0.408  10.796  0.1487  0.2681  0.0324
  501loPI    C2 8002   5.076   0.615  10.951 -0.1642 -0.0664 -0.1237
  501loPI    C3 8003   5.380   0.500  11.185 -0.2846  0.0439  0.0890
  501loPI   PO4 8004   5.358   0.470  10.460  0.0736  0.2141 -0.1893
  501loPI   GL1 8005   5.079   0.651  10.147  0.1161  0.0538 -0.4444
  501loPI   GL2 8006   5.111   0.376  10.029  0.0325  0.0545 -0.1010
  501loPI   C1A 8007   5.302   0.876   9.876 -0.3054  0.0174 -0.0141
  501loPI   C2A 8008   5.412   0.877   9.495  0.1656  0.1362 -0.5089
  501loPI   C3A 8009   5.321   0.867   9.103  0.1524 -0.1206  0.0044
  501loPI   C4A 8010   5.361   0.962   8.665  0.1771  0.0281  0.2407
  501loPI   C5A 8011   5.447   0.950   8.213 -0.1065 -0.1637  0.0423
  501loPI   C6A 8012   5.589   0.855   7.773  0.0759 -0.0716  0.2361
  501loPI   C1B 8013   5.138   0.461   9.584  0.0382  0.1036  0.3451
  501loPI   C2B 8014   5.080   0.459   9.083 -0.1550  0.3573  0.0666
  501loPI   C3B 8015   5.088   0.562   8.623 -0.3263  0.1851  0.1904
  501loPI   C4B 8016   5.025   0.606   8.216 -0.0758 -0.0816  0.2247
  502loPI    C1 8017   8.619   5.529  10.831  0.0410  0.0559  0.0075
  502loPI    C2 8018   8.422   5.803  11.046 -0.1962 -0.0677 -0.0488
  502loPI    C3 8019   8.548   5.464  11.219  0.3369  0.1880  0.0870
  502loPI   PO4 8020   8.747   5.639  10.662 -0.2214  0.1191 -0.0172
  502loPI   GL1 8021   9.099   5.539  10.328 -0.1109 -0.1983  0.2013
  502loPI   GL2 8022   8.995   5.249  10.153  0.2035 -0.0838 -0.1391
  502loPI   C1A 8023   8.744   5.690   9.993  0.1678 -0.1278 -0.1501
  502loPI   C2A 8024   8.701   5.798   9.612  0.0210 -0.3080 -0.0019
  502loPI   C3A 8025   8.669   5.723   9.179  0.0364  0.2632  0.1941
  502loPI   C4A 8026   8.640   5.643   8.712 -0.2472  0.0989 -0.2857
  502loPI   C5A 8027   8.352   5.794   8.409 -0.0572 -0.3566  0.1088
  502loPI   C6A 8028   8.181   6.088   8.130  0.0812  0.0370 -0.3585
  502loPI   C1B 8029   9.093   5.271   9.811  0.1598  0.0954 -0.2713
  502loPI   C2B 8030   8.972   5.382   9.348  0.3034 -0.0058 -0.1336
  502loPI   C3B 8031   9.018   5.291   8.909 -0.2841  0.2531 -0.1214
  502loPI   C4B 8032   9.151   5.318   8.437  0.0855 -0.0789 -0.0470
  503loPI    C1 8033   3.213   4.771  10.855  0.0186  0.1125 -0.0600
  503loPI    C2 8034   3.535   4.865  11.073  0.0738  0.2706 -0.2065
  503loPI    C3 8035   3.170   4.963  11.203  0.1038  0.3322 -0.1683
  503loPI   PO4 8036   3.260   4.694  10.634  0.0531 -0.1035 -0.0116
  503loPI   GL1 8037   3.313   4.629  10.271  0.0206 -0.1846 -0.3162
  503loPI   GL2 8038   3.370   5.013  10.198  0.0000 -0.0637  0.0807
  503loPI   C1A 8039   3.046   4.587   9.858  0.2063  0.1459 -0.0490
  503loPI   C2A 8040   3.006   4.728   9.418 -0.1632  0.4996 -0.2049
  503loPI   C3A 8041   3.123   4.695   9.068  0.1022 -0.1709 -0.3048
  503loPI   C4A 8042   3.219   4.684   8.576 -0.2615 -0.0684 -0.0058
  503loPI   C5A 8043   3.095   4.658   8.211 -0.1087 -0.1041  0.0896
  503loPI   C6A 8044   3.182   4.256   7.961  0.1821 -0.3265 -0.2215
  503loPI   C1B 8045   3.273   5.028   9.762 -0.0712  0.1857 -0.1176
  503loPI   C2B 8046   3.294   5.175   9.270  0.1865  0.0872  0.1172
  503loPI   C3B 8047   3.389   5.119   8.834 -0.0183  0.1039  0.0010
  503loPI   C4B 8048   3.561   5.201   8.488 -0.0686 -0.0521 -0.2456
  504loPI    C1 8049  14.654   6.014  11.093 -0.2877  0.0649  0.0972
  504loPI    C2 8050  14.812   5.668  11.216  0.0428  0.1356 -0.1150
  504loPI    C3 8051  14.524   5.844  11.430  0.0752 -0.1234  0.1472
  504loPI   PO4 8052  14.782   6.036  10.874  0.0151 -0.0845  0.1098
  504loPI   GL1 8053  14.731   6.091  10.412 -0.1972 -0.1157  0.0221
  504loPI   GL2 8054  14.303   6.037  10.239  0.3577 -0.2388  0.0500
  504loPI   C1A 8055  14.865   6.127   9.987 -0.3349 -0.1065  0.0026
  504loPI   C2A 8056  14.784   6.074   9.503  0.3870 -0.0727 -0.2207
  504loPI   C3A 8057  14.887   6.115   9.060  0.1762  0.0174  0.1697
  504loPI   C4A 8058  14.919   6.041   8.637  0.1247 -0.1462 -0.0636
  504loPI   C5A 8059  14.840   6.302   8.338  0.0906  0.1314 -0.1868
  504loPI   C6A 8060  14.365   6.271   8.105  0.0038 -0.2102  0.0342
  504loPI   C1B 8061  14.415   6.074   9.820 -0.0696 -0.3193  0.0405
  504loPI   C2B 8062  14.321   6.204   9.419 -0.2645 -0.0199  0.0667
  504loPI   C3B 8063  14.339   6.024   9.064  0.2037  0.0003  0.0256
  504loPI   C4B 8064  14.372   6.069   8.600 -0.1792 -0.1444  0.1210
  505loPI    C1 8065  17.589   9.783  11.150  0.0778  0.2262  0.1551
  505loPI    C2 8066  17.645  10.091  11.399 -0.1399  0.1570  0.2923
  505loPI    C3 8067  17.451   9.765  11.525 -0.0631  0.0334  0.0953
  505loPI   PO4 8068  17.521   9.916  10.913  0.0453  0.1069 -0.0587
  505loPI   GL1 8069  17.729   9.785  10.538 -0.0389  0.1258  0.1067
  505loPI   GL2 8070  17.514  10.008  10.416 -0.1297  0.0144  0.0167
  505loPI   C1A 8071  17.760   9.722  10.073 -0.1245 -0.2053 -0.0383
  505loPI   C2A 8072  17.718   9.804   9.674 -0.0026  0.0587  0.2069
  505loPI   C3A 8073  17.744   9.766   9.282  0.2017  0.0049  0.2612
  505loPI   C4A 8074  17.791   9.789   8.820  0.2487  0.1609  0.0021
  505loPI   C5A 8075  17.688   9.791   8.429  0.0934  0.3375  0.0388
  505loPI   C6A 8076  17.595  10.162   8.192  0.0166  0.5136  0.2420
  505loPI   C1B 8077  17.490  10.217  10.033  0.1898  0.0071 -0.1700
  505loPI   C2B 8078  17.461  10.217   9.544  0.1993  0.0785  0.0953
  505loPI   C3B 8079  17.403  10.153   9.111  0.0490  0.0803  0.3672
  505loPI   C4B 8080  17.437  10.247   8.655  0.1178  0.0386 -0.1349
  506loPI    C1 8081  13.563  12.413  11.027 -0.1491 -0.0051 -0.1055
  506loPI    C2 8082  13.746  12.598  11.331  0.0778 -0.0132 -0.2347
  506loPI    C3 8083  13.507  12.285  11.402  0.0577  0.0411 -0.0576
  506loPI   PO4 8084  13.714  12.383  10.810  0.0515  0.1314 -0.0781
  506loPI   GL1 8085  13.734  12.236  10.443  0.0346 -0.2263 -0.1261
  506loPI   GL2 8086  13.991  12.282  10.237  0.0612 -0.2150  0.0419
  506loPI   C1A 8087  13.491  12.242  10.010  0.2082 -0.1029  0.2807
  506loPI   C2A 8088  13.459  12.304   9.548 -0.0522 -0.0339  0.0401
  506loPI   C3A 8089  13.512  12.279   9.119 -0.0203 -0.5440  0.4234
  506loPI   C4A 8090  13.527  12.375   8.616  0.0960  0.0287  0.0139
  506loPI   C5A 8091  13.723  12.305   8.189 -0.3117  0.2328 -0.0450
  506loPI   C6A 8092  14.069  12.399   8.004  0.0163  0.0694 -0.2627
  506loPI   C1B 8093  14.039  12.312   9.808  0.1938 -0.4032  0.0546
  506loPI   C2B 8094  14.012  12.286   9.386  0.0040  0.1784  0.1439
  506loPI   C3B 8095  14.035  12.285   8.973  0.1160 -0.0500 -0.1162
  506loPI   C4B 8096  14.099  12.288   8.516 -0.2340 -0.0240  0.1113
  507loPI    C1 8097  12.932  12.653  10.897  0.1104  0.1849 -0.0097
  507loPI    C2 8098  12.951  13.039  10.999  0.0480  0.1594  0.0997
  507loPI    C3 8099  13.108  12.761  11.239 -0.2014  0.0895  0.1849
  507loPI   PO4 8100  12.964  12.719  10.535 -0.0090 -0.1127  0.1351
  507loPI   GL1 8101  12.665  12.671  10.159 -0.2964 -0.3524 -0.1023
  507loPI   GL2 8102  12.980  12.409  10.129 -0.1201  0.2394  0.1917
  507loPI   C1A 8103  12.596  12.702   9.739 -0.0320 -0.0247  0.3146
  507loPI   C2A 8104  12.544  12.699   9.308 -0.2427  0.2371 -0.2792
  507loPI   C3A 8105  12.727  12.613   8.931 -0.0992  0.0559  0.0599
  507loPI   C4A 8106  12.797  12.566   8.536 -0.1276 -0.0502 -0.2793
  507loPI   C5A 8107  12.897  12.648   8.072 -0.0109 -0.1624  0.0554
  507loPI   C6A 8108  13.276  12.366   7.860 -0.1060  0.0551 -0.0225
  507loPI   C1B 8109  12.971  12.275   9.616 -0.0015  0.1320  0.2365
  507loPI   C2B 8110  12.913  12.229   9.165 -0.1939 -0.1302 -0.1955
  507loPI   C3B 8111  13.032  12.195   8.782  0.0449  0.0765 -0.0960
  507loPI   C4B 8112  13.137  12.231   8.374 -0.1275  0.2339  0.3614
  508loPI    C1 8113   5.320   3.958  10.859 -0.1202  0.1159 -0.0166
  508loPI    C2 8114   5.598   3.737  11.044 -0.0503 -0.0381 -0.3004
  508loPI    C3 8115   5.269   3.850  11.241  0.0238 -0.1961 -0.0819
  508loPI   PO4 8116   5.500   3.811  10.555  0.2773 -0.1289  0.3237
  508loPI   GL1 8117   5.622   3.976  10.200 -0.0765 -0.0632 -0.0833
  508loPI   GL2 8118   5.397   4.223  10.082  0.1974  0.1453  0.0505
  508loPI   C1A 8119   5.900   4.233   9.876 -0.1226 -0.3241 -0.0387
  508loPI   C2A 8120   5.936   4.294   9.425  0.1124 -0.0318  0.1602
  508loPI   C3A 8121   5.984   4.305   8.981 -0.0383  0.2336  0.0778
  508loPI   C4A 8122   5.923   4.325   8.503 -0.1434  0.0723  0.2912
  508loPI   C5A 8123   6.236   4.260   8.241  0.0394  0.1485 -0.2671
  508loPI   C6A 8124   6.486   4.423   7.987  0.1441  0.2060  0.1181
  508loPI   C1B 8125   5.421   4.230   9.671 -0.0472 -0.0361  0.0900
  508loPI   C2B 8126   5.441   4.271   9.261 -0.3139 -0.0081 -0.0844
  508loPI   C3B 8127   5.511   4.241   8.793 -0.2106 -0.2052 -0.0986
  508loPI   C4B 8128   5.425   4.303   8.390 -0.0901 -0.3103  0.1261
  509loPI    C1 8129   7.458   6.387  10.842 -0.0139  0.0317  0.0476
  509loPI    C2 8130   7.535   6.138  11.146 -0.1529 -0.0840 -0.0103
  509loPI    C3 8131   7.305   6.461  11.204  0.0993  0.0814  0.0856
  509loPI   PO4 8132   7.528   6.270  10.662 -0.1034 -0.1946 -0.1540
  509loPI   GL1 8133   7.734   6.288  10.285 -0.1195 -0.1100 -0.1517
  509loPI   GL2 8134   7.541   6.017  10.277 -0.0078 -0.0399  0.4110
  509loPI   C1A 8135   7.715   6.558  10.079 -0.3072  0.2102  0.2851
  509loPI   C2A 8136   7.545   6.609   9.651 -0.2789 -0.1841 -0.1576
  509loPI   C3A 8137   7.589   6.586   9.250  0.2642 -0.0861  0.0126
  509loPI   C4A 8138   7.509   6.667   8.928  0.2665 -0.3145 -0.2894
  509loPI   C5A 8139   7.647   6.669   8.543  0.0202 -0.1727  0.1481
  509loPI   C6A 8140   7.595   6.636   8.069  0.1958 -0.1506 -0.4837
  509loPI   C1B 8141   7.422   6.081   9.816 -0.1007 -0.0117 -0.1655
  509loPI   C2B 8142   7.346   6.203   9.403 -0.0509  0.0870  0.1672
  509loPI   C3B 8143   7.314   6.192   9.031 -0.1805  0.0296  0.3013
  509loPI   C4B 8144   7.392   6.233   8.678  0.0709  0.0124 -0.2746
  510loPI    C1 8145  15.683   9.390  11.282 -0.2964  0.2952  0.1799
  510loPI    C2 8146  15.964   9.670  11.332  0.0370 -0.0271  0.1566
  510loPI    C3 8147  15.995   9.320  11.523 -0.2879 -0.1131  0.0572
  510loPI   PO4 8148  15.556   9.360  10.993 -0.0484  0.1236  0.0319
  510loPI   GL1 8149  15.615   9.514  10.536  0.2634  0.1008 -0.0728
  510loPI   GL2 8150  15.438   9.297  10.328 -0.1620  0.1429  0.0434
  510loPI   C1A 8151  15.594   9.671  10.120  0.1038  0.0669  0.2352
  510loPI   C2A 8152  15.642   9.717   9.666  0.1167 -0.0861 -0.0212
  510loPI   C3A 8153  15.624   9.659   9.192  0.0043 -0.0205 -0.0434
  510loPI   C4A 8154  15.646   9.752   8.735 -0.2041  0.1724 -0.0019
  510loPI   C5A 8155  15.743   9.982   8.374  0.0963  0.1449  0.0219
  510loPI   C6A 8156  15.803   9.793   8.107 -0.1050  0.1653 -0.0250
  510loPI   C1B 8157  15.366   9.247   9.892 -0.1262  0.1524  0.1558
  510loPI   C2B 8158  15.474   9.216   9.448  0.2815  0.1064 -0.2750
  510loPI   C3B 8159  15.495   9.232   9.008  0.2107  0.0784  0.2024
  510loPI   C4B 8160  15.391   9.303   8.655 -0.1605 -0.1346  0.0332
  511loPI    C1 8161  10.643   9.000  11.221  0.1136  0.1648  0.0288
  511loPI    C2 8162  10.291   9.011  11.412  0.0968  0.1235  0.0004
  511loPI    C3 8163  10.625   9.127  11.599  0.0906  0.0180  0.0778
  511loPI   PO4 8164  10.696   8.793  11.081 -0.1103  0.0396 -0.0089
  511loPI   GL1 8165  10.603   8.740  10.613 -0.2550 -0.1354 -0.1151
  511loPI   GL2 8166  10.532   8.538  10.430 -0.0484 -0.0008  0.5014
  511loPI   C1A 8167  10.425   8.983  10.271 -0.2137  0.1172 -0.2192
  511loPI   C2A 8168  10.345   8.941   9.833  0.1776 -0.4678  0.4019
  511loPI   C3A 8169  10.291   9.032   9.374  0.0978  0.2039  0.0238
  511loPI   C4A 8170  10.244   8.915   8.916 -0.1170 -0.0702 -0.4553
  511loPI   C5A 8171  10.310   8.964   8.526  0.0074 -0.0945  0.1103
  511loPI   C6A 8172   9.840   9.056   8.275 -0.3606 -0.0168 -0.2264
  511loPI   C1B 8173  10.570   8.543  10.015 -0.3142 -0.1096 -0.2579
  511loPI   C2B 8174  10.581   8.615   9.580 -0.0002  0.1839 -0.1077
  511loPI   C3B 8175  10.586   8.597   9.163 -0.2668  0.1509 -0.0186
  511loPI   C4B 8176  10.563   8.505   8.736  0.1451  0.2451 -0.1192
  512loPI    C1 8177   4.412  12.695  11.580 -0.0151 -0.1359 -0.0324
  512loPI    C2 8178   4.293  12.421  11.845 -0.1530  0.0758  0.1279
  512loPI    C3 8179   4.406  12.783  11.970 -0.0630  0.1242 -0.0901
  512loPI   PO4 8180   4.203  12.644  11.316 -0.0605 -0.0291  0.1860
  512loPI   GL1 8181   4.364  12.531  10.828 -0.0491 -0.2696 -0.0298
  512loPI   GL2 8182   4.521  12.663  10.483  0.0306  0.2833 -0.3777
  512loPI   C1A 8183   4.125  12.244  10.581 -0.2680  0.1153  0.0724
  512loPI   C2A 8184   3.960  12.241  10.181 -0.0650 -0.1584  0.2008
  512loPI   C3A 8185   4.009  12.252   9.732  0.1694  0.0266 -0.1592
  512loPI   C4A 8186   3.909  12.254   9.312 -0.1468  0.2223 -0.1095
  512loPI   C5A 8187   3.915  12.238   8.830  0.0957 -0.2184  0.1403
  512loPI   C6A 8188   3.851  11.847   8.543 -0.1733 -0.1088 -0.3585
  512loPI   C1B 8189   4.751  12.675  10.078  0.4820  0.0483 -0.0671
  512loPI   C2B 8190   4.740  12.756   9.616  0.0635  0.1607 -0.0485
  512loPI   C3B 8191   4.598  12.750   9.171  0.0215  0.2583  0.1349
  512loPI   C4B 8192   4.437  12.744   8.744 -0.2882  0.1123  0.1234
  513loPI    C1 8193   2.764  15.931  10.528  0.0531 -0.0789  0.1162
  513loPI    C2 8194   2.740  16.185  10.836  0.1049  0.1360 -0.0550
  513loPI    C3 8195   2.682  16.317  10.462  0.0840 -0.1144 -0.1418
  513loPI   PO4 8196   2.557  15.784  10.598 -0.2468  0.0489  0.0083
  513loPI   GL1 8197   2.227  15.729  10.254  0.4148  0.1169 -0.0611
  513loPI   GL2 8198   2.665  15.801  10.100 -0.1203  0.2207 -0.2774
  513loPI   C1A 8199   2.215  15.788   9.825  0.1298 -0.1026 -0.0598
  513loPI   C2A 8200   2.159  15.717   9.417  0.0913 -0.0323 -0.2177
  513loPI   C3A 8201   2.119  15.795   9.020 -0.3664  0.2097 -0.2130
  513loPI   C4A 8202   2.214  15.822   8.584 -0.0031 -0.1474 -0.0502
  513loPI   C5A 8203   2.144  15.730   8.092 -0.3693 -0.1218  0.1811
  513loPI   C6A 8204   2.234  15.508   7.678 -0.4770  0.1738 -0.2465
  513loPI   C1B 8205   2.725  15.699   9.649  0.3416  0.0508 -0.1601
  513loPI   C2B 8206   2.646  15.685   9.238  0.0273  0.3163  0.1088
  513loPI   C3B 8207   2.692  15.846   8.848 -0.0364  0.2289  0.3508
  513loPI   C4B 8208   2.699  15.794   8.426 -0.1530 -0.0724  0.0883
  514loPI    C1 8209   6.903  10.119  11.245  0.0209 -0.1858 -0.2145
  514loPI    C2 8210   6.989   9.850  11.529  0.0940 -0.1217 -0.1755
  514loPI    C3 8211   6.622  10.010  11.508  0.0676 -0.1803 -0.1622
  514loPI   PO4 8212   6.937  10.035  11.009 -0.0329  0.0133  0.1652
  514loPI   GL1 8213   6.985  10.113  10.565 -0.2174 -0.1717 -0.0734
  514loPI   GL2 8214   6.697  10.113  10.563  0.0109 -0.0597 -0.1182
  514loPI   C1A 8215   6.959  10.145  10.137  0.0914 -0.1355  0.2449
  514loPI   C2A 8216   6.937  10.173   9.684  0.4342  0.1578 -0.0581
  514loPI   C3A 8217   6.969  10.244   9.208 -0.0233  0.1287  0.1674
  514loPI   C4A 8218   6.994  10.237   8.772 -0.1633  0.5071  0.0769
  514loPI   C5A 8219   6.942  10.003   8.433  0.1689 -0.0077 -0.2372
  514loPI   C6A 8220   7.011   9.864   8.111  0.1880 -0.1022 -0.0810
  514loPI   C1B 8221   6.430  10.133  10.058  0.1125 -0.1009 -0.0262
  514loPI   C2B 8222   6.449  10.162   9.648 -0.2283 -0.2970 -0.1231
  514loPI   C3B 8223   6.349  10.183   9.263  0.0815 -0.0558 -0.1485
  514loPI   C4B 8224   6.470  10.258   8.813  0.0768  0.3528  0.2340
  515loPI    C1 8225   8.730   7.744  11.040 -0.0548  0.1026 -0.1467
  515loPI    C2 8226   8.530   8.002  11.270 -0.0269  0.1076 -0.1280
  515loPI    C3 8227   8.429   7.957  10.886 -0.2789 -0.1297 -0.0372
  515loPI   PO4 8228   8.974   7.855  10.951  0.1164 -0.3885 -0.1009
  515loPI   GL1 8229   9.183   7.874  10.567 -0.0859 -0.2460 -0.0708
  515loPI   GL2 8230   9.349   8.040  10.368  0.2729 -0.3202 -0.2361
  515loPI   C1A 8231   9.045   7.642  10.193  0.0473  0.0124 -0.0397
  515loPI   C2A 8232   9.105   7.592   9.756 -0.3730  0.1219  0.1424
  515loPI   C3A 8233   9.104   7.564   9.272  0.2162 -0.3083  0.0232
  515loPI   C4A 8234   9.034   7.605   8.873 -0.2932 -0.0699  0.0971
  515loPI   C5A 8235   9.052   7.458   8.452  0.1222 -0.0036 -0.2837
  515loPI   C6A 8236   8.784   7.412   8.174  0.2470  0.0367  0.0660
  515loPI   C1B 8237   9.277   8.137   9.955  0.0608 -0.3809  0.0461
  515loPI   C2B 8238   9.323   8.090   9.517 -0.0274  0.0016 -0.3619
  515loPI   C3B 8239   9.311   8.023   9.021  0.1072 -0.2752  0.0582
  515loPI   C4B 8240   9.263   7.906   8.559  0.1926  0.0686  0.2021
  516loPI    C1 8241   9.772   4.347  10.978 -0.1205 -0.0898 -0.1703
  516loPI    C2 8242   9.606   4.009  10.842 -0.0076 -0.2154 -0.0001
  516loPI    C3 8243   9.879   3.995  11.135  0.0370  0.0196 -0.0280
  516loPI   PO4 8244   9.868   4.434  10.827  0.0802 -0.2182 -0.1841
  516loPI   GL1 8245   9.741   4.293  10.419 -0.1729  0.0594 -0.0075
  516loPI   GL2 8246   9.506   4.466  10.278 -0.2531 -0.2181 -0.0849
  516loPI   C1A 8247   9.897   4.061  10.057 -0.0959  0.2492  0.0117
  516loPI   C2A 8248   9.789   4.073   9.717 -0.0097 -0.0594  0.1799
  516loPI   C3A 8249   9.926   4.036   9.353  0.1875 -0.1245 -0.5038
  516loPI   C4A 8250   9.865   4.135   8.884 -0.2475 -0.0221 -0.0932
  516loPI   C5A 8251   9.888   4.083   8.504  0.0925  0.0388  0.0538
  516loPI   C6A 8252  10.112   3.914   8.215  0.0869  0.0076  0.3000
  516loPI   C1B 8253   9.668   4.524   9.921 -0.1519 -0.1007 -0.1130
  516loPI   C2B 8254   9.542   4.532   9.521  0.1172  0.0442 -0.1898
  516loPI   C3B 8255   9.548   4.452   9.084 -0.0759 -0.0446 -0.1310
  516loPI   C4B 8256   9.525   4.392   8.625  0.3235 -0.1461  0.2969
  517loPI    C1 8257  10.605   2.343  10.912 -0.1147  0.2520  0.1776
  517loPI    C2 8258  10.968   2.338  11.081 -0.0771  0.1829  0.0951
  517loPI    C3 8259  10.647   2.230  11.294 -0.0187  0.0104  0.0976
  517loPI   PO4 8260  10.600   2.199  10.685 -0.1813  0.2478 -0.0852
  517loPI   GL1 8261  10.721   2.073  10.417  0.1145 -0.0126  0.4061
  517loPI   GL2 8262  10.683   1.830  10.348  0.1571 -0.0034  0.1227
  517loPI   C1A 8263  10.621   2.164  10.003  0.4674  0.0291  0.2842
  517loPI   C2A 8264  10.505   2.182   9.541  0.3587  0.0965 -0.5665
  517loPI   C3A 8265  10.512   2.251   9.166  0.3528  0.2218  0.0081
  517loPI   C4A 8266  10.409   2.103   8.684 -0.0319  0.0679 -0.0609
  517loPI   C5A 8267  10.068   1.996   8.397  0.1219  0.1348 -0.0720
  517loPI   C6A 8268   9.964   1.564   8.237 -0.0048  0.5359 -0.1351
  517loPI   C1B 8269  10.363   1.770   9.913 -0.1680  0.0617 -0.2618
  517loPI   C2B 8270  10.284   1.718   9.483  0.0353 -0.0999  0.3137
  517loPI   C3B 8271  10.268   1.767   9.073 -0.1261 -0.0752 -0.2872
  517loPI   C4B 8272  10.236   1.631   8.656 -0.2025  0.1204 -0.1209
  518loPI    C1 8273  12.310   0.182  10.453  0.0038  0.0547 -0.0929
  518loPI    C2 8274  12.203   0.542  10.592  0.2231  0.0229  0.1663
  518loPI    C3 8275  12.155   0.217  10.820 -0.0579 -0.1281 -0.1009
  518loPI   PO4 8276  12.159   0.048  10.265  0.1033  0.2029 -0.1110
  518loPI   GL1 8277  12.072   0.068   9.817  0.1573 -0.0849 -0.2200
  518loPI   GL2 8278  12.280  -0.161   9.750 -0.1705 -0.0716 -0.2467
  518loPI   C1A 8279  11.760  -0.030   9.557 -0.0855  0.1525 -0.1657
  518loPI   C2A 8280  11.734  -0.040   9.156  0.1000 -0.1657  0.1608
  518loPI   C3A 8281  11.801  -0.030   8.776 -0.0350 -0.1635  0.0016
  518loPI   C4A 8282  11.777   0.078   8.368 -0.0320 -0.3154  0.2035
  518loPI   C5A 8283  11.829   0.033   8.040  0.2747 -0.0301 -0.0679
  518loPI   C6A 8284  11.624   0.221   7.626  0.1397  0.0325 -0.0912
  518loPI   C1B 8285  12.243  -0.048   9.272  0.1503  0.2325 -0.0852
  518loPI   C2B 8286  12.323  -0.015   8.758 -0.0599  0.0204 -0.2535
  518loPI   C3B 8287  12.334   0.026   8.309 -0.0047 -0.0190  0.1840
  518loPI   C4B 8288  12.294   0.189   7.897 -0.0652  0.1218 -0.3706
  519loPI    C1 8289  15.321  13.958  10.965 -0.3047 -0.1571  0.3084
  519loPI    C2 8290  15.589  14.045  11.249 -0.3029  0.1634  0.2126
  519loPI    C3 8291  15.226  14.213  11.259 -0.2099  0.3940 -0.1225
  519loPI   PO4 8292  15.451  13.953  10.723 -0.1068  0.0963 -0.2752
  519loPI   GL1 8293  15.579  13.798  10.386  0.2209 -0.0876  0.0112
  519loPI   GL2 8294  15.339  13.639  10.204  0.0242 -0.1651 -0.1360
  519loPI   C1A 8295  15.780  13.847   9.898 -0.0716  0.0085 -0.2852
  519loPI   C2A 8296  15.741  13.706   9.482  0.0383 -0.2592 -0.0380
  519loPI   C3A 8297  15.613  13.788   9.118 -0.1434 -0.0247 -0.0806
  519loPI   C4A 8298  15.690  13.726   8.662 -0.0573 -0.0776  0.0887
  519loPI   C5A 8299  15.774  13.768   8.237 -0.0531  0.1495  0.2496
  519loPI   C6A 8300  16.061  13.620   7.968 -0.0205 -0.1873  0.0992
  519loPI   C1B 8301  15.296  13.764   9.862  0.3453  0.2272  0.3289
  519loPI   C2B 8302  15.193  13.778   9.498  0.3433 -0.0937  0.0262
  519loPI   C3B 8303  15.158  13.736   9.084  0.3872 -0.2570  0.0835
  519loPI   C4B 8304  15.192  13.753   8.709 -0.1094 -0.0766 -0.0683
  520loPI    C1 8305   9.900  17.352  10.907  0.1022  0.0206  0.2844
  520loPI    C2 8306   9.566  17.525  11.042 -0.1022 -0.0252 -0.1445
  520loPI    C3 8307   9.887  17.498  11.279 -0.2456  0.4403  0.1161
  520loPI   PO4 8308  10.015  17.423  10.642 -0.0423 -0.0486 -0.1521
  520loPI   GL1 8309   9.822  17.354  10.196 -0.1077  0.1594 -0.2977
  520loPI   GL2 8310  10.071  17.131  10.020 -0.0782  0.2790  0.1772
  520loPI   C1A 8311   9.658  17.501   9.988  0.0269 -0.0150  0.1908
  520loPI   C2A 8312   9.572  17.555   9.563  0.0402  0.1780 -0.1517
  520loPI   C3A 8313   9.582  17.529   9.137  0.3016 -0.1214 -0.0425
  520loPI   C4A 8314   9.603  17.513   8.776 -0.0371 -0.0888 -0.0018
  520loPI   C5A 8315   9.548  17.605   8.301  0.1073  0.1539  0.1552
  520loPI   C6A 8316   9.757  18.001   8.140 -0.0556 -0.1479  0.0089
  520loPI   C1B 8317   9.835  17.132   9.548 -0.1979  0.2764  0.1520
  520loPI   C2B 8318   9.868  17.092   9.020  0.1246 -0.2752 -0.2124
  520loPI   C3B 8319   9.827  17.139   8.576  0.3989 -0.1389  0.0258
  520loPI   C4B 8320   9.831  17.210   8.109 -0.1453  0.1957  0.0053
  521loPI    C1 8321  12.340   1.374  10.607 -0.1086 -0.0367 -0.1067
  521loPI    C2 8322  12.262   0.993  10.702 -0.1242 -0.0268 -0.0799
  521loPI    C3 8323  12.471   1.224  10.954 -0.2261  0.0196 -0.0372
  521loPI   PO4 8324  12.112   1.347  10.374 -0.0895 -0.3094  0.1841
  521loPI   GL1 8325  11.939   1.617  10.025  0.0353 -0.0913  0.3040
  521loPI   GL2 8326  12.121   1.354   9.847  0.3630  0.1237 -0.2545
  521loPI   C1A 8327  11.814   1.798   9.652  0.0127  0.0527  0.2233
  521loPI   C2A 8328  11.704   1.876   9.225 -0.0107 -0.3367  0.2747
  521loPI   C3A 8329  11.753   1.948   8.909  0.0953  0.0777 -0.0715
  521loPI   C4A 8330  11.760   1.792   8.539  0.0662 -0.0221 -0.2700
  521loPI   C5A 8331  11.619   1.892   8.134 -0.2451 -0.1840 -0.3635
  521loPI   C6A 8332  11.382   2.303   8.009 -0.1983 -0.1314 -0.1996
  521loPI   C1B 8333  12.119   1.443   9.460  0.0315  0.4142  0.2064
  521loPI   C2B 8334  12.089   1.386   9.058  0.1280 -0.1421  0.1371
  521loPI   C3B 8335  12.057   1.384   8.631 -0.0792  0.0836 -0.1916
  521loPI   C4B 8336  12.013   1.443   8.210 -0.1885  0.0201 -0.3437
  522loPI    C1 8337   4.488   2.752  10.473  0.1851  0.0554 -0.0830
  522loPI    C2 8338   4.158   2.845  10.679  0.3542  0.2262  0.1158
  522loPI    C3 8339   4.128   2.693  10.310  0.0505  0.0368  0.2152
  522loPI   PO4 8340   4.682   2.991  10.449  0.2060  0.0116 -0.1362
  522loPI   GL1 8341   4.804   3.093  10.009 -0.0059  0.1664  0.4611
  522loPI   GL2 8342   4.925   3.396   9.898  0.0067  0.1696 -0.1445
  522loPI   C1A 8343   4.721   2.807   9.509 -0.1073 -0.3461  0.2900
  522loPI   C2A 8344   4.709   2.772   9.140  0.1603 -0.1567 -0.3647
  522loPI   C3A 8345   4.789   2.895   8.749  0.0115  0.2062 -0.1256
  522loPI   C4A 8346   4.806   2.918   8.316  0.1142 -0.2050  0.1671
  522loPI   C5A 8347   4.578   2.600   8.027 -0.2643  0.1122 -0.1997
  522loPI   C6A 8348   4.437   2.222   8.119  0.1846  0.2588 -0.0715
  522loPI   C1B 8349   4.936   3.299   9.375  0.0210  0.0223 -0.3753
  522loPI   C2B 8350   4.981   3.322   8.951  0.2736 -0.1413 -0.0422
  522loPI   C3B 8351   4.960   3.440   8.521 -0.2208 -0.0608 -0.1032
  522loPI   C4B 8352   5.142   3.235   8.051 -0.0605  0.0385 -0.1533
  523loPI    C1 8353   8.831   6.090  11.030  0.0846  0.0462 -0.1203
  523loPI    C2 8354   9.126   6.192  11.280 -0.0991 -0.2587  0.2329
  523loPI    C3 8355   8.939   5.842  11.325 -0.3683 -0.1669 -0.1248
  523loPI   PO4 8356   8.874   6.145  10.830  0.1837 -0.1846 -0.1253
  523loPI   GL1 8357   8.935   6.147  10.466  0.1234 -0.3958 -0.3098
  523loPI   GL2 8358   8.847   6.017  10.344  0.1797  0.1857 -0.0174
  523loPI   C1A 8359   9.021   6.226   9.989  0.1147 -0.3235  0.1049
  523loPI   C2A 8360   8.956   6.224   9.665  0.1033  0.0493  0.3159
  523loPI   C3A 8361   8.846   6.251   9.246 -0.0625 -0.1825  0.2447
  523loPI   C4A 8362   8.881   6.071   8.803  0.0423 -0.1441  0.1083
  523loPI   C5A 8363   8.900   5.760   8.340  0.0187  0.1606 -0.0956
  523loPI   C6A 8364   8.955   5.646   7.927 -0.0110 -0.0068  0.2903
  523loPI   C1B 8365   8.562   6.124  10.007  0.0466  0.0708  0.0250
  523loPI   C2B 8366   8.416   6.223   9.663  0.0792  0.2091 -0.0404
  523loPI   C3B 8367   8.352   6.268   9.190  0.2901 -0.0834 -0.0171
  523loPI   C4B 8368   8.391   6.226   8.820  0.0698 -0.1790  0.0320
  524loPI    C1 8369   0.810   6.252  11.007 -0.1562 -0.3431 -0.1522
  524loPI    C2 8370   0.945   6.200  11.380 -0.0967 -0.1285 -0.1423
  524loPI    C3 8371   0.581   6.356  11.319  0.0748  0.2706 -0.1736
  524loPI   PO4 8372   0.984   6.363  10.883  0.1340  0.1747 -0.0529
  524loPI   GL1 8373   1.114   6.350  10.548  0.0386  0.0328 -0.2638
  524loPI   GL2 8374   0.810   6.393  10.384  0.2426 -0.0157 -0.0908
  524loPI   C1A 8375   1.461   6.365  10.262  0.2701  0.3908 -0.0207
  524loPI   C2A 8376   1.408   6.370   9.783 -0.0571  0.0272 -0.1274
  524loPI   C3A 8377   1.413   6.347   9.282 -0.0054 -0.1432  0.1260
  524loPI   C4A 8378   1.356   6.383   8.797 -0.3625 -0.1257 -0.2042
  524loPI   C5A 8379   1.450   6.354   8.264 -0.0601  0.2445 -0.0538
  524loPI   C6A 8380   1.138   6.119   8.060 -0.0729 -0.0209 -0.2534
  524loPI   C1B 8381   0.885   6.321   9.962 -0.3369 -0.0004 -0.0132
  524loPI   C2B 8382   0.903   6.313   9.527 -0.1842 -0.0955  0.1236
  524loPI   C3B 8383   0.908   6.329   9.054  0.1103 -0.0126 -0.1695
  524loPI   C4B 8384   0.837   6.350   8.619  0.0992 -0.0821  0.2519
  525loPI    C1 8385   8.146  17.855  10.748 -0.2187 -0.0647 -0.0797
  525loPI    C2 8386   7.959  17.998  11.071 -0.1636  0.1775 -0.1526
  525loPI    C3 8387   8.250  17.727  11.113 -0.1433  0.2223  0.0025
  525loPI   PO4 8388   7.987  17.734  10.517  0.2037 -0.0997  0.1179
  525loPI   GL1 8389   7.557  17.680  10.393 -0.1655  0.2166  0.1431
  525loPI   GL2 8390   7.696  17.924  10.185 -0.0954 -0.0131 -0.0737
  525loPI   C1A 8391   7.545  17.504   9.974  0.0255  0.4274 -0.0043
  525loPI   C2A 8392   7.518  17.429   9.524  0.0480 -0.1040 -0.1027
  525loPI   C3A 8393   7.537  17.392   9.029 -0.2815  0.0757 -0.0239
  525loPI   C4A 8394   7.574  17.372   8.640 -0.0575 -0.1550 -0.1994
  525loPI   C5A 8395   7.640  17.596   8.260 -0.3486  0.1092 -0.0566
  525loPI   C6A 8396   7.712  17.900   7.965 -0.0212 -0.1325 -0.3348
  525loPI   C1B 8397   7.808  17.881   9.686 -0.2647  0.4419 -0.0008
  525loPI   C2B 8398   7.836  17.946   9.277  0.1129 -0.1123 -0.0320
  525loPI   C3B 8399   7.817  17.981   8.829 -0.1159 -0.0117 -0.0788
  525loPI   C4B 8400   7.882  18.056   8.458 -0.2554 -0.3420 -0.3237
  526loPI    C1 8401  16.907   0.084  10.892 -0.0179 -0.1503  0.0390
  526loPI    C2 8402  17.015   0.240  11.244  0.0091 -0.1457  0.0288
  526loPI    C3 8403  16.851  -0.125  11.229 -0.3464  0.0074  0.0863
  526loPI   PO4 8404  17.099   0.113  10.744 -0.3651  0.1171  0.1228
  526loPI   GL1 8405  17.183   0.112  10.333 -0.1516 -0.0984  0.0425
  526loPI   GL2 8406  17.180   0.462  10.369 -0.2035  0.0068  0.1749
  526loPI   C1A 8407  17.069   0.206   9.911 -0.1045 -0.2101  0.0168
  526loPI   C2A 8408  17.076   0.206   9.476 -0.2714 -0.0171 -0.1152
  526loPI   C3A 8409  17.058   0.320   9.134  0.3759  0.1930  0.1802
  526loPI   C4A 8410  16.976   0.326   8.710  0.1020  0.0079 -0.2159
  526loPI   C5A 8411  16.821   0.412   8.269  0.1598  0.0211  0.3731
  526loPI   C6A 8412  16.497   0.383   8.169  0.1232  0.1558  0.0614
  526loPI   C1B 8413  17.328   0.647  10.025  0.2778 -0.1432  0.2296
  526loPI   C2B 8414  17.262   0.676   9.582 -0.0868 -0.0353 -0.3340
  526loPI   C3B 8415  17.334   0.741   9.183  0.0004  0.2815  0.0480
  526loPI   C4B 8416  17.222   0.798   8.684 -0.2149 -0.0671  0.2435
  527loPI    C1 8417  13.698   5.838  11.032 -0.0246 -0.1072  0.1337
  527loPI    C2 8418  13.315   5.924  10.952 -0.0424 -0.0992  0.2266
  527loPI    C3 8419  13.550   6.199  11.122  0.0569 -0.0384 -0.0054
  527loPI   PO4 8420  13.815   5.800  10.802  0.1649  0.0950  0.1920
  527loPI   GL1 8421  13.850   5.800  10.354 -0.2656  0.1196 -0.1070
  527loPI   GL2 8422  13.782   6.046  10.129 -0.0319 -0.1335 -0.2039
  527loPI   C1A 8423  14.080   5.699   9.946  0.1151 -0.1843 -0.3040
  527loPI   C2A 8424  14.159   5.619   9.523  0.1100  0.1844  0.1847
  527loPI   C3A 8425  14.173   5.537   9.013  0.1963  0.0861  0.1445
  527loPI   C4A 8426  14.120   5.612   8.598 -0.0449 -0.0422 -0.1817
  527loPI   C5A 8427  14.258   5.792   8.147  0.1840 -0.0189 -0.0845
  527loPI   C6A 8428  14.408   5.861   7.757  0.1538  0.2533 -0.0033
  527loPI   C1B 8429  13.886   6.116   9.698 -0.3240  0.0502 -0.1595
  527loPI   C2B 8430  13.859   6.081   9.244  0.1205  0.0721  0.1333
  527loPI   C3B 8431  13.844   6.008   8.801  0.0003 -0.2156  0.0116
  527loPI   C4B 8432  13.864   6.088   8.318  0.1156 -0.0914  0.1110
  528loPI    C1 8433   7.603  15.240  11.003 -0.0124  0.0916 -0.0743
  528loPI    C2 8434   7.887  15.455  11.187 -0.0605  0.1323 -0.0472
  528loPI    C3 8435   7.562  15.339  11.389 -0.1115  0.1732 -0.1051
  528loPI   PO4 8436   7.635  15.257  10.792  0.2486  0.1710 -0.0734
  528loPI   GL1 8437   7.365  15.046  10.437  0.0655  0.0367  0.1531
  528loPI   GL2 8438   7.299  14.697  10.390  0.1857  0.0002  0.0927
  528loPI   C1A 8439   7.437  15.134  10.043 -0.0308 -0.3170 -0.1726
  528loPI   C2A 8440   7.446  15.119   9.610  0.1876 -0.0148 -0.0640
  528loPI   C3A 8441   7.387  15.152   9.158 -0.2574  0.0408  0.2796
  528loPI   C4A 8442   7.425  15.097   8.742  0.3011  0.0921 -0.0443
  528loPI   C5A 8443   7.400  15.019   8.321 -0.0996 -0.0971 -0.1296
  528loPI   C6A 8444   7.368  15.292   7.939 -0.0012 -0.0812  0.2348
  528loPI   C1B 8445   7.235  14.711   9.903  0.0555 -0.0025  0.0419
  528loPI   C2B 8446   7.206  14.631   9.450 -0.0661  0.0240  0.1653
  528loPI   C3B 8447   7.134  14.730   9.023 -0.1394 -0.0376 -0.2081
  528loPI   C4B 8448   7.247  14.616   8.610  0.0741 -0.0864 -0.0326
  529loPI    C1 8449   8.632   8.741  10.770  0.0201  0.2410 -0.1566
  529loPI    C2 8450   8.453   8.396  10.675 -0.0450  0.2812 -0.1811
  529loPI    C3 8451   8.576   8.460  11.050  0.1312  0.1584 -0.2166
  529loPI   PO4 8452   8.770   8.781  10.634 -0.2390 -0.1479  0.1847
  529loPI   GL1 8453   8.918   8.997  10.369 -0.0851  0.1453 -0.1315
  529loPI   GL2 8454   8.734   9.258  10.423  0.1134  0.1508 -0.0272
  529loPI   C1A 8455   8.769   8.898   9.996 -0.2144  0.5883  0.2236
  529loPI   C2A 8456   8.837   8.899   9.514 -0.2413  0.2412 -0.1229
  529loPI   C3A 8457   8.802   8.891   9.037 -0.0589 -0.2336 -0.0318
  529loPI   C4A 8458   8.694   9.051   8.637 -0.0886 -0.0265  0.1524
  529loPI   C5A 8459   8.573   8.894   8.272 -0.3350 -0.2183  0.0024
  529loPI   C6A 8460   8.407   8.725   7.817 -0.0335  0.2041  0.2241
  529loPI   C1B 8461   8.628   9.409   9.987 -0.1056  0.0701  0.0695
  529loPI   C2B 8462   8.555   9.344   9.556 -0.0235  0.0626  0.2003
  529loPI   C3B 8463   8.557   9.377   9.128 -0.1031 -0.2768 -0.2567
  529loPI   C4B 8464   8.406   9.466   8.663 -0.1525 -0.3430  0.1840
  530loPI    C1 8465  15.173   4.051  11.087 -0.0010 -0.0231 -0.0645
  530loPI    C2 8466  15.196   3.709  11.293  0.1770 -0.0345 -0.1019
  530loPI    C3 8467  14.851   3.909  11.277  0.1244 -0.1073  0.0881
  530loPI   PO4 8468  15.334   4.044  10.791 -0.0299  0.0549  0.0384
  530loPI   GL1 8469  15.085   4.245  10.388  0.1356 -0.2497 -0.2382
  530loPI   GL2 8470  15.315   4.518  10.401 -0.4522 -0.0429  0.0131
  530loPI   C1A 8471  14.987   4.185  10.033  0.1960 -0.1413  0.0175
  530loPI   C2A 8472  15.083   4.280   9.627  0.1013 -0.2770  0.0018
  530loPI   C3A 8473  15.024   4.301   9.317  0.0444 -0.0883 -0.0629
  530loPI   C4A 8474  14.993   4.234   8.903  0.0273 -0.0752 -0.1638
  530loPI   C5A 8475  14.946   4.358   8.475  0.0898 -0.1856  0.2337
  530loPI   C6A 8476  15.036   4.768   8.250 -0.1409  0.1328  0.0222
  530loPI   C1B 8477  15.359   4.725  10.022  0.3291  0.1948 -0.0017
  530loPI   C2B 8478  15.242   4.834   9.563  0.1804  0.0671  0.0604
  530loPI   C3B 8479  15.231   4.785   9.135  0.2495 -0.4200  0.0424
  530loPI   C4B 8480  15.139   4.739   8.806 -0.2382  0.2588 -0.0635
  531loPI    C1 8481  16.174   2.310  11.040 -0.1843  0.0462  0.0741
  531loPI    C2 8482  15.862   2.075  11.124 -0.2100  0.0267 -0.0736
  531loPI    C3 8483  15.914   2.417  11.325 -0.1304 -0.1397  0.1953
  531loPI   PO4 8484  16.226   2.227  10.759 -0.1986 -0.0534  0.3543
  531loPI   GL1 8485  16.220   2.272  10.330  0.0690 -0.0849  0.3841
  531loPI   GL2 8486  16.308   1.944  10.316  0.0023  0.5454  0.3127
  531loPI   C1A 8487  16.176   2.590  10.020  0.2568 -0.0609 -0.2177
  531loPI   C2A 8488  16.215   2.453   9.598  0.3277 -0.0626  0.2088
  531loPI   C3A 8489  16.203   2.546   9.199  0.3084 -0.1322 -0.2209
  531loPI   C4A 8490  16.120   2.613   8.780  0.1733  0.2426  0.0361
  531loPI   C5A 8491  16.217   2.721   8.307  0.2194  0.0807  0.2590
  531loPI   C6A 8492  16.264   2.877   7.870  0.0314 -0.0209 -0.0629
  531loPI   C1B 8493  16.441   1.986   9.912  0.0303 -0.0343  0.2469
  531loPI   C2B 8494  16.468   2.015   9.558  0.0099 -0.2966 -0.0142
  531loPI   C3B 8495  16.393   2.129   9.096  0.2397 -0.1135  0.1545
  531loPI   C4B 8496  16.434   2.190   8.663  0.0760 -0.2884 -0.1753
  532loPI    C1 8497   7.339  15.961  10.719  0.1068  0.2085 -0.0474
  532loPI    C2 8498   7.564  16.080  11.028  0.0838  0.0214  0.0429
  532loPI    C3 8499   7.405  15.713  11.026 -0.1608  0.1257 -0.0543
  532loPI   PO4 8500   7.348  16.041  10.565  0.2437 -0.0313  0.0228
  532loPI   GL1 8501   7.532  16.111  10.167  0.0342  0.2451  0.1444
  532loPI   GL2 8502   7.765  16.289  10.111  0.2502 -0.1834 -0.1666
  532loPI   C1A 8503   7.381  16.040   9.743 -0.2168 -0.0146 -0.1036
  532loPI   C2A 8504   7.288  16.103   9.329  0.1459 -0.1035  0.0341
  532loPI   C3A 8505   7.367  16.019   8.878 -0.4182 -0.2246 -0.3516
  532loPI   C4A 8506   7.484  16.016   8.439  0.2396  0.3273 -0.2519
  532loPI   C5A 8507   7.763  16.069   8.095 -0.0982 -0.0239 -0.0143
  532loPI   C6A 8508   8.278  16.001   8.000 -0.3046 -0.0469 -0.1540
  532loPI   C1B 8509   7.891  16.107   9.819  0.0786 -0.0650 -0.1420
  532loPI   C2B 8510   7.886  16.074   9.445  0.1999 -0.1595 -0.0568
  532loPI   C3B 8511   7.868  16.002   9.076 -0.0014  0.0685 -0.0981
  532loPI   C4B 8512   7.936  16.095   8.637  0.0571  0.0139  0.3383
  533loPI    C1 8513   8.589   1.550  10.970 -0.0402  0.1990 -0.1856
  533loPI    C2 8514   8.337   1.788  11.169 -0.2237  0.0199 -0.1999
  533loPI    C3 8515   8.631   1.602  11.364 -0.1955  0.1097 -0.1562
  533loPI   PO4 8516   8.704   1.720  10.847  0.1769 -0.0708 -0.0806
  533loPI   GL1 8517   9.088   1.495  10.615  0.2448 -0.3057 -0.0251
  533loPI   GL2 8518   9.329   1.698  10.466 -0.1944  0.0519 -0.0133
  533loPI   C1A 8519   9.099   1.262  10.195  0.0241  0.0002  0.3826
  533loPI   C2A 8520   9.073   1.217   9.802  0.2486  0.3663  0.1413
  533loPI   C3A 8521   8.965   1.256   9.423 -0.0559 -0.3848  0.0769
  533loPI   C4A 8522   9.027   1.241   9.015 -0.1884 -0.0036 -0.2071
  533loPI   C5A 8523   9.195   1.265   8.542 -0.1849 -0.2657 -0.1973
  533loPI   C6A 8524   9.189   1.640   8.363  0.1808  0.1870  0.1739
  533loPI   C1B 8525   9.301   1.680  10.088  0.0602 -0.1359  0.0139
  533loPI   C2B 8526   9.242   1.754   9.720  0.1382  0.1720  0.0059
  533loPI   C3B 8527   9.241   1.709   9.317 -0.3501 -0.0302 -0.2958
  533loPI   C4B 8528   9.202   1.707   8.872  0.1904 -0.0878  0.1093
  534loPI    C1 8529  14.268  15.884  10.399  0.0571 -0.2269 -0.0350
  534loPI    C2 8530  14.149  15.772  10.764 -0.0734 -0.0607 -0.0251
  534loPI    C3 8531  13.879  15.831  10.475  0.0171 -0.0463 -0.1073
  534loPI   PO4 8532  14.585  16.007  10.337 -0.1699 -0.0724  0.0969
  534loPI   GL1 8533  14.855  15.850   9.960 -0.2994  0.0572 -0.1588
  534loPI   GL2 8534  14.669  15.557   9.859  0.2057 -0.2255 -0.0459
  534loPI   C1A 8535  14.922  16.041   9.593  0.3722 -0.0070  0.2066
  534loPI   C2A 8536  14.880  16.018   9.188 -0.1684 -0.2379 -0.2575
  534loPI   C3A 8537  14.816  16.048   8.750 -0.2154 -0.3022  0.1365
  534loPI   C4A 8538  14.863  16.026   8.325 -0.1819  0.2810  0.0644
  534loPI   C5A 8539  15.003  15.906   8.011  0.2310 -0.0492 -0.2719
  534loPI   C6A 8540  15.376  15.913   7.737 -0.0779  0.2062  0.3158
  534loPI   C1B 8541  14.728  15.496   9.429 -0.0043  0.2360  0.1252
  534loPI   C2B 8542  14.695  15.574   8.943  0.3607 -0.2974  0.1350
  534loPI   C3B 8543  14.585  15.540   8.583  0.0533  0.1768  0.0098
  534loPI   C4B 8544  14.693  15.467   8.153 -0.2342 -0.1287 -0.1461
  535loPI    C1 8545   2.579  11.406  11.334 -0.1063 -0.0218 -0.3602
  535loPI    C2 8546   2.739  11.697  11.557 -0.2073 -0.1359 -0.1349
  535loPI    C3 8547   2.348  11.702  11.472 -0.1765 -0.1137 -0.2790
  535loPI   PO4 8548   2.679  11.398  11.126 -0.0037  0.1231  0.0433
  535loPI   GL1 8549   2.610  11.381  10.761 -0.1124  0.1231  0.0581
  535loPI   GL2 8550   2.773  11.637  10.667 -0.2331  0.0642  0.1080
  535loPI   C1A 8551   2.456  11.214  10.354 -0.3970 -0.0790  0.0748
  535loPI   C2A 8552   2.476  11.269   9.957 -0.1123 -0.2631 -0.1161
  535loPI   C3A 8553   2.441  11.268   9.529  0.0694 -0.1510 -0.2757
  535loPI   C4A 8554   2.427  11.197   9.033  0.1233 -0.0969  0.1112
  535loPI   C5A 8555   2.366  11.279   8.580 -0.1045 -0.2257 -0.1523
  535loPI   C6A 8556   2.347  11.554   8.227  0.0278 -0.1149  0.1101
  535loPI   C1B 8557   2.750  11.647  10.222  0.1001 -0.1890 -0.2710
  535loPI   C2B 8558   2.644  11.774   9.816 -0.3276 -0.1115  0.1969
  535loPI   C3B 8559   2.699  11.723   9.358  0.0536  0.0755 -0.0281
  535loPI   C4B 8560   2.679  11.687   9.003 -0.1383 -0.0413  0.3460
  536loPI    C1 8561  16.994  11.022  11.046  0.1739  0.1437  0.0267
  536loPI    C2 8562  16.891  11.049  11.432  0.0245  0.0582 -0.0066
  536loPI    C3 8563  16.842  11.363  11.190 -0.0521  0.0544  0.0037
  536loPI   PO4 8564  16.950  10.800  10.959 -0.1471 -0.1057  0.0831
  536loPI   GL1 8565  16.827  10.840  10.558  0.2498 -0.1232  0.0398
  536loPI   GL2 8566  17.032  10.953  10.377 -0.1094  0.0309 -0.0917
  536loPI   C1A 8567  16.647  10.596  10.156 -0.0233 -0.2166  0.0397
  536loPI   C2A 8568  16.688  10.557   9.749 -0.0882  0.3218 -0.0563
  536loPI   C3A 8569  16.640  10.669   9.379  0.3116  0.1402 -0.0736
  536loPI   C4A 8570  16.645  10.626   8.916 -0.0825 -0.0781  0.1370
  536loPI   C5A 8571  16.755  10.778   8.508  0.0443 -0.0018 -0.1361
  536loPI   C6A 8572  16.871  11.211   8.370 -0.0720  0.1850  0.0272
  536loPI   C1B 8573  16.865  11.006   9.996 -0.2481  0.3069 -0.2938
  536loPI   C2B 8574  16.966  11.087   9.653 -0.1683  0.0406  0.0466
  536loPI   C3B 8575  16.865  11.167   9.264  0.1387 -0.1729 -0.1436
  536loPI   C4B 8576  16.888  11.157   8.860  0.0344 -0.0877  0.2597
  537loPI    C1 8577   0.466   2.541  10.662 -0.0621 -0.1352  0.1257
  537loPI    C2 8578   0.144   2.548  10.900 -0.0616  0.2032  0.1212
  537loPI    C3 8579   0.121   2.696  10.529 -0.0005 -0.1154 -0.0123
  537loPI   PO4 8580   0.603   2.322  10.575  0.1145  0.0046  0.3969
  537loPI   GL1 8581   0.586   2.058  10.171  0.1010 -0.0019  0.0255
  537loPI   GL2 8582   0.866   2.031  10.182 -0.2277  0.0663 -0.3295
  537loPI   C1A 8583   0.496   2.205   9.676 -0.0835  0.3605  0.0091
  537loPI   C2A 8584   0.497   2.203   9.192  0.2401  0.2509 -0.0508
  537loPI   C3A 8585   0.469   2.304   8.674  0.0788  0.3089  0.1778
  537loPI   C4A 8586   0.653   2.638   8.460 -0.1110 -0.0161 -0.2046
  537loPI   C5A 8587   0.592   3.055   8.302 -0.1668 -0.0158  0.0204
  537loPI   C6A 8588   0.350   3.320   8.193  0.2134 -0.1410  0.1239
  537loPI   C1B 8589   0.959   2.084   9.731 -0.0744  0.0390  0.0909
  537loPI   C2B 8590   0.972   2.180   9.325  0.0070  0.3585 -0.0339
  537loPI   C3B 8591   1.235   2.072   9.000 -0.4429  0.1222 -0.0326
  537loPI   C4B 8592   1.488   2.135   8.746  0.2668  0.0023  0.1318
  538loPI    C1 8593  11.709   2.225  10.756  0.1890  0.0563 -0.0084
  538loPI    C2 8594  11.756   1.882  10.957 -0.2277  0.0271  0.0485
  538loPI    C3 8595  11.704   2.225  11.156  0.0434  0.1042 -0.0097
  538loPI   PO4 8596  11.604   2.147  10.564  0.2578 -0.1473  0.1518
  538loPI   GL1 8597  11.401   2.309  10.224 -0.3756 -0.1169 -0.0743
  538loPI   GL2 8598  11.167   2.167  10.098  0.1674  0.3883  0.0414
  538loPI   C1A 8599  11.270   2.624   9.903 -0.2967 -0.2191  0.3840
  538loPI   C2A 8600  11.270   2.836   9.529  0.3656 -0.3262 -0.0699
  538loPI   C3A 8601  11.143   2.777   9.172  0.0488  0.0545 -0.0052
  538loPI   C4A 8602  11.132   2.738   8.777 -0.0348 -0.0907 -0.2485
  538loPI   C5A 8603  11.145   2.883   8.386  0.0487 -0.1420  0.1235
  538loPI   C6A 8604  11.114   2.751   8.048 -0.1971  0.1151  0.0784
  538loPI   C1B 8605  10.973   2.273   9.728  0.3087 -0.0470 -0.0831
  538loPI   C2B 8606  10.990   2.223   9.330 -0.0379 -0.4119 -0.1108
  538loPI   C3B 8607  10.916   2.226   8.817 -0.0024  0.0511  0.0608
  538loPI   C4B 8608  11.032   2.374   8.415  0.0261  0.0776  0.0649
  539loPI    C1 8609   9.097  16.145  10.991 -0.0201 -0.0038  0.0378
  539loPI    C2 8610   8.864  16.412  11.177  0.1738  0.1806  0.0209
  539loPI    C3 8611   9.014  16.101  11.379 -0.2221 -0.0359 -0.0080
  539loPI   PO4 8612   8.930  16.116  10.726 -0.1290  0.2898 -0.0568
  539loPI   GL1 8613   8.914  15.888  10.366  0.0404  0.2736 -0.1660
  539loPI   GL2 8614   8.664  16.076  10.327 -0.2290  0.1031 -0.1338
  539loPI   C1A 8615   9.126  15.850  10.015  0.2940 -0.1053  0.0293
  539loPI   C2A 8616   9.199  15.729   9.677 -0.1994  0.3107  0.1036
  539loPI   C3A 8617   9.187  15.664   9.243  0.0249  0.1180  0.1189
  539loPI   C4A 8618   9.054  15.728   8.875  0.1754 -0.0410  0.0332
  539loPI   C5A 8619   9.153  15.727   8.341  0.0802 -0.1531  0.0797
  539loPI   C6A 8620   9.242  15.781   7.822  0.1722  0.1928  0.2063
  539loPI   C1B 8621   8.842  16.195   9.936  0.2461 -0.2989  0.1677
  539loPI   C2B 8622   8.909  16.108   9.493  0.0236  0.2768 -0.0104
  539loPI   C3B 8623   8.883  16.189   8.988 -0.1807  0.2191  0.1512
  539loPI   C4B 8624   9.004  16.163   8.520  0.0605  0.1645  0.1421
  540loPI    C1 8625   1.198  15.353  11.151 -0.0250  0.1228 -0.0220
  540loPI    C2 8626   1.576  15.405  11.031  0.0119  0.0444  0.0594
  540loPI    C3 8627   1.443  15.591  11.359 -0.0005  0.0180  0.0693
  540loPI   PO4 8628   1.093  15.391  10.895  0.0875 -0.0157  0.0759
  540loPI   GL1 8629   1.080  15.219  10.457  0.0732  0.0109  0.1246
  540loPI   GL2 8630   0.754  15.383  10.445 -0.1283  0.6397 -0.2124
  540loPI   C1A 8631   0.927  15.227   9.969 -0.3165  0.1229  0.1839
  540loPI   C2A 8632   0.937  15.250   9.487  0.0734  0.0475  0.0826
  540loPI   C3A 8633   0.939  15.214   9.013  0.1296  0.2728 -0.1173
  540loPI   C4A 8634   0.905  15.191   8.620  0.0595  0.4657 -0.0223
  540loPI   C5A 8635   0.692  15.535   8.347  0.2318  0.0987  0.0858
  540loPI   C6A 8636   0.718  15.854   8.287 -0.0375 -0.0896 -0.2771
  540loPI   C1B 8637   0.675  15.657  10.068 -0.0537 -0.0512 -0.1973
  540loPI   C2B 8638   0.627  15.735   9.650  0.1888  0.4753  0.1226
  540loPI   C3B 8639   0.647  15.626   9.262  0.1357 -0.0478 -0.4465
  540loPI   C4B 8640   0.643  15.704   8.853 -0.1923 -0.3741  0.0166
  541loPI    C1 8641  15.682  12.314  10.907 -0.0382  0.2057  0.0393
  541loPI    C2 8642  15.961  12.584  10.998  0.0485  0.1056  0.0723
  541loPI    C3 8643  15.831  12.329  11.277  0.0403  0.0470  0.0151
  541loPI   PO4 8644  15.709  12.247  10.628  0.2047  0.0650  0.0646
  541loPI   GL1 8645  15.949  11.973  10.294  0.0176  0.4709 -0.1361
  541loPI   GL2 8646  16.011  12.294  10.135  0.0487  0.4650 -0.2058
  541loPI   C1A 8647  15.814  11.831   9.956  0.1964  0.2502  0.0984
  541loPI   C2A 8648  15.724  11.924   9.594  0.0843  0.1169 -0.1887
  541loPI   C3A 8649  15.934  11.997   9.177  0.1193  0.1866 -0.3100
  541loPI   C4A 8650  15.782  11.999   8.721  0.0508  0.1337 -0.0445
  541loPI   C5A 8651  15.734  12.058   8.210  0.0342  0.4361 -0.0607
  541loPI   C6A 8652  15.888  12.364   7.899  0.1614 -0.3556 -0.1021
  541loPI   C1B 8653  16.017  12.365   9.723 -0.0464 -0.1739 -0.3135
  541loPI   C2B 8654  16.071  12.457   9.301  0.1082  0.1545 -0.1287
  541loPI   C3B 8655  16.020  12.410   8.903 -0.0426  0.1471  0.0377
  541loPI   C4B 8656  16.015  12.460   8.483  0.0514  0.1547  0.1541
  542loPI    C1 8657  14.547   7.872  11.132  0.1047  0.3687  0.1278
  542loPI    C2 8658  14.924   7.775  11.225  0.0462 -0.0190 -0.0196
  542loPI    C3 8659  14.632   7.725  11.494  0.0508 -0.0322 -0.0171
  542loPI   PO4 8660  14.477   7.764  10.915  0.1721  0.2777  0.4066
  542loPI   GL1 8661  14.409   7.640  10.501 -0.0679  0.2660  0.1753
  542loPI   GL2 8662  14.526   7.419  10.377  0.2748  0.2553  0.3529
  542loPI   C1A 8663  14.356   7.776  10.098  0.1765  0.0023  0.0064
  542loPI   C2A 8664  14.345   7.844   9.630 -0.0132 -0.1957  0.0956
  542loPI   C3A 8665  14.262   7.869   9.173 -0.1127 -0.1545  0.4459
  542loPI   C4A 8666  14.249   7.832   8.643 -0.2179 -0.1880  0.2760
  542loPI   C5A 8667  13.928   7.968   8.297  0.2447  0.1980  0.0289
  542loPI   C6A 8668  13.857   7.837   7.936 -0.0224 -0.3474 -0.0558
  542loPI   C1B 8669  14.595   7.417   9.894  0.1004 -0.1975 -0.1051
  542loPI   C2B 8670  14.585   7.494   9.427 -0.1684 -0.0419  0.2562
  542loPI   C3B 8671  14.575   7.535   8.923  0.3141  0.2558  0.0667
  542loPI   C4B 8672  14.585   7.451   8.459  0.0385  0.2243 -0.2682
  543loPI    C1 8673  13.557  11.919  10.847  0.1608 -0.0850  0.0025
  543loPI    C2 8674  13.217  11.863  11.051  0.0861  0.1748 -0.0464
  543loPI    C3 8675  13.570  11.802  11.229  0.0164 -0.0343  0.0236
  543loPI   PO4 8676  13.505  11.798  10.633 -0.2361 -0.1051 -0.0314
  543loPI   GL1 8677  13.548  11.769  10.245 -0.1658  0.2653 -0.0220
  543loPI   GL2 8678  13.148  11.872  10.250  0.1557  0.3011  0.2998
  543loPI   C1A 8679  13.746  11.847   9.911  0.0604  0.1212  0.2957
  543loPI   C2A 8680  13.664  11.859   9.395 -0.0914 -0.0879  0.2697
  543loPI   C3A 8681  13.792  11.819   8.978 -0.1872 -0.0197  0.2299
  543loPI   C4A 8682  13.745  11.889   8.556  0.1919 -0.1063  0.0073
  543loPI   C5A 8683  13.401  11.859   8.088  0.0988  0.0348 -0.0929
  543loPI   C6A 8684  13.080  11.962   7.738  0.0767 -0.0911 -0.0708
  543loPI   C1B 8685  13.232  11.858   9.806  0.1514  0.1650 -0.3874
  543loPI   C2B 8686  13.193  11.879   9.394  0.1442 -0.0425  0.0758
  543loPI   C3B 8687  13.286  11.794   8.977  0.0935 -0.1570 -0.2732
  543loPI   C4B 8688  13.249  11.788   8.560  0.1544  0.2030 -0.1589
  544loPI    C1 8689  13.441   2.355  10.706 -0.0245 -0.1586  0.1214
  544loPI    C2 8690  13.230   2.545  10.987 -0.0145  0.0306  0.0023
  544loPI    C3 8691  13.624   2.493  11.034  0.0277  0.2627 -0.0784
  544loPI   PO4 8692  13.383   2.469  10.421  0.2100  0.3514  0.0679
  544loPI   GL1 8693  13.294   2.458   9.913 -0.2951  0.0532  0.1129
  544loPI   GL2 8694  13.632   2.467   9.851  0.1049  0.1356 -0.0934
  544loPI   C1A 8695  13.076   2.467   9.459  0.0024 -0.3192 -0.0356
  544loPI   C2A 8696  12.922   2.402   9.017 -0.1371  0.0310 -0.1458
  544loPI   C3A 8697  13.040   2.371   8.645  0.2427 -0.1345 -0.1024
  544loPI   C4A 8698  12.987   2.357   8.216 -0.0559  0.3017 -0.2349
  544loPI   C5A 8699  13.063   2.250   7.816  0.2397 -0.1309 -0.1360
  544loPI   C6A 8700  13.235   2.087   7.430 -0.1163 -0.0200 -0.0793
  544loPI   C1B 8701  13.549   2.555   9.375  0.1442 -0.1694  0.0019
  544loPI   C2B 8702  13.548   2.381   8.992 -0.0089 -0.1148 -0.1574
  544loPI   C3B 8703  13.500   2.452   8.513 -0.1037  0.2040  0.1111
  544loPI   C4B 8704  13.643   2.455   8.040  0.1899  0.0355 -0.3283
  545loPI    C1 8705  17.936   0.716  10.929 -0.1366 -0.0766 -0.1237
  545loPI    C2 8706  17.997   0.732  11.324 -0.2847 -0.3709 -0.0864
  545loPI    C3 8707  17.685   0.922  11.161  0.0521  0.1646 -0.1299
  545loPI   PO4 8708  18.085   0.547  10.835  0.0209 -0.2183 -0.3201
  545loPI   GL1 8709  17.927   0.219  10.524  0.2989  0.0580  0.2722
  545loPI   GL2 8710  17.652   0.206  10.453 -0.0776  0.1402  0.2769
  545loPI   C1A 8711  18.104   0.193  10.181 -0.1220 -0.1851  0.0538
  545loPI   C2A 8712  18.108   0.222   9.805  0.1923  0.0843 -0.1053
  545loPI   C3A 8713  18.067   0.286   9.384 -0.1517  0.1776 -0.1175
  545loPI   C4A 8714  18.072   0.339   8.979 -0.0952 -0.1197 -0.0181
  545loPI   C5A 8715  18.096   0.353   8.495  0.2738  0.0303  0.2672
  545loPI   C6A 8716  17.925   0.106   8.195 -0.1440  0.1273  0.2392
  545loPI   C1B 8717  17.629   0.224  10.106  0.1235  0.1227 -0.0472
  545loPI   C2B 8718  17.580   0.276   9.644  0.0331  0.0913 -0.1377
  545loPI   C3B 8719  17.588   0.269   9.206  0.2859 -0.1265 -0.2178
  545loPI   C4B 8720  17.542   0.372   8.820 -0.1477 -0.0847 -0.1469
  546loPI    C1 8721  11.363   6.028  11.111 -0.1660  0.0154  0.0700
  546loPI    C2 8722  11.075   5.829  11.303 -0.0847  0.0823  0.2642
  546loPI    C3 8723  11.458   5.770  11.402 -0.0591  0.3242  0.3143
  546loPI   PO4 8724  11.271   5.997  10.850 -0.2644 -0.4128  0.4123
  546loPI   GL1 8725  11.347   6.151  10.465  0.2248 -0.2950 -0.1283
  546loPI   GL2 8726  11.614   6.161  10.309  0.2052 -0.0880 -0.1659
  546loPI   C1A 8727  11.054   6.264  10.131 -0.0950 -0.1718 -0.0789
  546loPI   C2A 8728  10.955   6.370   9.637 -0.1863  0.2155  0.2145
  546loPI   C3A 8729  11.066   6.299   9.328 -0.1674  0.0416  0.0727
  546loPI   C4A 8730  10.981   6.366   8.913 -0.0563 -0.2137 -0.0868
  546loPI   C5A 8731  10.871   6.117   8.560  0.0653  0.2378  0.1504
  546loPI   C6A 8732  10.879   5.711   8.213 -0.3231 -0.1805  0.2320
  546loPI   C1B 8733  11.553   6.345   9.910 -0.0283 -0.3926 -0.2205
  546loPI   C2B 8734  11.568   6.411   9.459 -0.0749 -0.1126 -0.4366
  546loPI   C3B 8735  11.524   6.394   8.995  0.1961 -0.3622 -0.2665
  546loPI   C4B 8736  11.404   6.230   8.635  0.0346  0.0509  0.1585
  547loPI    C1 8737   4.654   3.457  10.403  0.1803 -0.0153 -0.1746
  547loPI    C2 8738   4.380   3.372  10.681  0.0089  0.3887 -0.2135
  547loPI    C3 8739   4.766   3.396  10.782  0.0504 -0.2703 -0.1755
  547loPI   PO4 8740   4.557   3.602  10.293  0.1063  0.1152 -0.1925
  547loPI   GL1 8741   4.576   3.897  10.071  0.3906  0.1652  0.0234
  547loPI   GL2 8742   4.383   4.119  10.227 -0.1088 -0.0480  0.1666
  547loPI   C1A 8743   4.624   3.821   9.605  0.2385  0.0185  0.0060
  547loPI   C2A 8744   4.674   3.739   9.229 -0.0408 -0.2361  0.3696
  547loPI   C3A 8745   4.712   3.857   8.850 -0.1508  0.2170  0.0421
  547loPI   C4A 8746   4.670   3.892   8.456  0.1043 -0.0112  0.0676
  547loPI   C5A 8747   4.726   3.698   8.163  0.2438  0.0677  0.1411
  547loPI   C6A 8748   5.071   3.849   7.915  0.0845  0.4919  0.1564
  547loPI   C1B 8749   4.400   4.253   9.690 -0.1952 -0.2575  0.2320
  547loPI   C2B 8750   4.373   4.243   9.174  0.3318  0.1840 -0.2151
  547loPI   C3B 8751   4.480   4.252   8.746 -0.0876 -0.0354 -0.2842
  547loPI   C4B 8752   4.465   4.261   8.215  0.0922  0.0821 -0.2372
  548loPI    C1 8753   7.031   8.422  10.955 -0.2182 -0.0618 -0.1061
  548loPI    C2 8754   7.279   8.539  10.663 -0.3160 -0.0080 -0.1681
  548loPI    C3 8755   7.175   8.795  10.952 -0.1093 -0.1023 -0.0074
  548loPI   PO4 8756   6.946   8.210  10.856  0.1241  0.0764  0.4197
  548loPI   GL1 8757   6.831   8.230  10.509  0.0495 -0.0574  0.0657
  548loPI   GL2 8758   6.544   8.307  10.397  0.0269  0.1407 -0.1584
  548loPI   C1A 8759   7.027   8.357  10.245 -0.1144 -0.1489  0.0589
  548loPI   C2A 8760   7.027   8.395   9.735 -0.2925 -0.1319  0.2375
  548loPI   C3A 8761   6.959   8.409   9.207  0.3553  0.0034 -0.0290
  548loPI   C4A 8762   6.961   8.500   8.787  0.1840  0.0524 -0.2336
  548loPI   C5A 8763   6.797   8.643   8.378 -0.0168  0.0264  0.1100
  548loPI   C6A 8764   6.854   8.617   7.875  0.3671 -0.0625  0.1471
  548loPI   C1B 8765   6.505   8.341   9.934  0.4166  0.0451 -0.0041
  548loPI   C2B 8766   6.550   8.361   9.501  0.0496 -0.2352  0.0107
  548loPI   C3B 8767   6.511   8.464   9.024 -0.0915 -0.0046 -0.1056
  548loPI   C4B 8768   6.418   8.453   8.656  0.0001  0.0737  0.2112
  549loPI    C1 8769  14.258   3.573  10.779  0.3181 -0.0603  0.1969
  549loPI    C2 8770  14.372   3.807  11.083 -0.0934  0.0586  0.2664
  549loPI    C3 8771  13.993   3.683  11.058 -0.0425 -0.0270 -0.1505
  549loPI   PO4 8772  14.368   3.736  10.555 -0.0268 -0.1420  0.0980
  549loPI   GL1 8773  14.191   3.942  10.153 -0.1893  0.4300 -0.0016
  549loPI   GL2 8774  14.545   4.147  10.271  0.2543  0.0217 -0.2742
  549loPI   C1A 8775  14.241   3.814   9.678 -0.1905  0.0720 -0.2418
  549loPI   C2A 8776  14.273   3.788   9.298 -0.0473  0.1084  0.1104
  549loPI   C3A 8777  14.294   3.723   8.879 -0.1895 -0.2782  0.0294
  549loPI   C4A 8778  14.233   3.724   8.487 -0.0064  0.0950  0.2972
  549loPI   C5A 8779  14.331   3.801   8.023 -0.3510 -0.1314 -0.1248
  549loPI   C6A 8780  14.675   3.925   7.748  0.2493  0.2068 -0.2159
  549loPI   C1B 8781  14.455   4.289   9.844 -0.2346 -0.1188  0.4181
  549loPI   C2B 8782  14.507   4.217   9.518 -0.0497 -0.0012  0.2530
  549loPI   C3B 8783  14.450   4.263   9.151 -0.1312  0.0951  0.1879
  549loPI   C4B 8784  14.454   4.224   8.794  0.1884 -0.1079 -0.2392
  550loPI    C1 8785   0.345   3.461  11.187 -0.1385 -0.1446 -0.0319
  550loPI    C2 8786   0.299   3.840  11.306  0.0019 -0.0850 -0.1640
  550loPI    C3 8787   0.616   3.629  11.429 -0.1908 -0.2331  0.0893
  550loPI   PO4 8788   0.240   3.495  10.966  0.1366  0.0099  0.0880
  550loPI   GL1 8789   0.451   3.675  10.506 -0.2790 -0.0666 -0.1789
  550loPI   GL2 8790   0.208   3.617  10.456 -0.0646 -0.3471  0.0515
  550loPI   C1A 8791   0.648   3.564  10.084 -0.3680 -0.0795 -0.1311
  550loPI   C2A 8792   0.587   3.638   9.774  0.0487 -0.0822 -0.2298
  550loPI   C3A 8793   0.636   3.682   9.325  0.0877 -0.0036 -0.0832
  550loPI   C4A 8794   0.646   3.684   8.871 -0.3507 -0.2723  0.0378
  550loPI   C5A 8795   0.645   3.599   8.473  0.0777  0.0469 -0.0450
  550loPI   C6A 8796   0.716   3.592   8.055 -0.0055 -0.0858  0.1215
  550loPI   C1B 8797   0.110   3.534   9.993 -0.0536 -0.1355  0.1208
  550loPI   C2B 8798   0.096   3.587   9.556 -0.0515 -0.0634  0.2547
  550loPI   C3B 8799   0.071   3.671   9.071  0.1634 -0.1767 -0.1075
  550loPI   C4B 8800   0.211   3.710   8.638  0.1679  0.0228 -0.2383
  551loPI    C1 8801   7.704   4.318  11.034 -0.0478 -0.0511 -0.2009
  551loPI    C2 8802   8.060   4.300  11.216 -0.0287 -0.2613 -0.2565
  551loPI    C3 8803   7.724   4.295  11.433  0.0027  0.1341 -0.1920
  551loPI   PO4 8804   7.730   4.485  10.841  0.0760 -0.1509 -0.0567
  551loPI   GL1 8805   7.781   4.328  10.448 -0.2050  0.2346 -0.0816
  551loPI   GL2 8806   7.733   4.039  10.376  0.0211 -0.0538  0.3319
  551loPI   C1A 8807   7.975   4.386   9.999  0.3252  0.2604  0.0129
  551loPI   C2A 8808   8.090   4.415   9.638 -0.2522  0.0297  0.1721
  551loPI   C3A 8809   8.026   4.327   9.277 -0.4883  0.0254  0.0905
  551loPI   C4A 8810   8.005   4.249   8.900  0.1273 -0.1694  0.0534
  551loPI   C5A 8811   8.028   4.395   8.526  0.0832 -0.1312  0.0360
  551loPI   C6A 8812   8.157   4.759   8.242 -0.3397  0.3633  0.1795
  551loPI   C1B 8813   7.838   3.884  10.004 -0.0575 -0.4557 -0.0976
  551loPI   C2B 8814   7.888   3.925   9.576  0.1801  0.1827 -0.0368
  551loPI   C3B 8815   7.769   3.866   9.157  0.0341  0.0013 -0.1554
  551loPI   C4B 8816   7.696   3.872   8.786  0.0877 -0.0972 -0.2270
  552loPI    C1 8817   1.100  17.172  11.020  0.0178  0.0441 -0.1100
  552loPI    C2 8818   1.188  16.858  11.251  0.2946  0.0876 -0.1519
  552loPI    C3 8819   1.142  17.220  11.415  0.0539  0.0419 -0.1135
  552loPI   PO4 8820   1.250  17.279  10.799  0.1272  0.0476  0.1318
  552loPI   GL1 8821   1.224  17.288  10.380  0.2145  0.1165 -0.1872
  552loPI   GL2 8822   1.077  17.596  10.387  0.1856 -0.0266  0.1923
  552loPI   C1A 8823   1.324  17.047  10.155  0.1657  0.0409 -0.0786
  552loPI   C2A 8824   1.308  17.015   9.703 -0.2208  0.0412  0.0467
  552loPI   C3A 8825   1.224  17.088   9.241 -0.0328 -0.1829 -0.0029
  552loPI   C4A 8826   1.250  17.101   8.842 -0.0284  0.0558  0.1221
  552loPI   C5A 8827   1.373  17.083   8.451 -0.0239  0.0150 -0.0852
  552loPI   C6A 8828   1.087  17.281   8.080 -0.3400  0.0814  0.2915
  552loPI   C1B 8829   1.096  17.491   9.907  0.2203 -0.1788 -0.1721
  552loPI   C2B 8830   1.020  17.539   9.461  0.1542  0.2044 -0.1333
  552loPI   C3B 8831   0.993  17.535   8.978 -0.1042  0.2640 -0.1135
  552loPI   C4B 8832   0.945  17.658   8.516 -0.2332  0.2643  0.2211
  553loPI    C1 8833   2.568   9.144  11.393 -0.2014  0.0499  0.1134
  553loPI    C2 8834   2.887   9.221  11.623 -0.2089  0.0593  0.1206
  553loPI    C3 8835   2.655   8.905  11.702 -0.2114  0.0624  0.1258
  553loPI   PO4 8836   2.644   9.209  11.140  0.0890  0.2420  0.2495
  553loPI   GL1 8837   2.634   9.127  10.718  0.2243 -0.3755 -0.1608
  553loPI   GL2 8838   2.461   8.905  10.528 -0.3680 -0.1916  0.1105
  553loPI   C1A 8839   2.656   9.450  10.277  0.1192 -0.4338  0.2063
  553loPI   C2A 8840   2.616   9.466   9.822 -0.2787 -0.3740 -0.1907
  553loPI   C3A 8841   2.609   9.507   9.429 -0.1491  0.1066 -0.1290
  553loPI   C4A 8842   2.557   9.517   9.002 -0.2455 -0.1147 -0.1539
  553loPI   C5A 8843   2.594   9.555   8.597 -0.0886 -0.0046 -0.3869
  553loPI   C6A 8844   2.885   9.613   8.234  0.3208 -0.0722 -0.1373
  553loPI   C1B 8845   2.358   9.073  10.031 -0.0547  0.1274 -0.0463
  553loPI   C2B 8846   2.279   9.058   9.612  0.2810  0.0483  0.0650
  553loPI   C3B 8847   2.379   9.114   9.192 -0.0250  0.1143  0.0647
  553loPI   C4B 8848   2.354   9.095   8.768  0.5158 -0.0097  0.0402
  554loPI    C1 8849  17.004  10.332  10.950  0.0750  0.1534  0.1056
  554loPI    C2 8850  17.152  10.103  11.243  0.1022  0.1384  0.0805
  554loPI    C3 8851  16.851  10.356  11.319 -0.0700 -0.0568  0.0611
  554loPI   PO4 8852  17.277  10.296  10.721 -0.0739  0.3336  0.0335
  554loPI   GL1 8853  17.156  10.436  10.370 -0.3208  0.1056  0.3736
  554loPI   GL2 8854  17.028  10.073  10.251 -0.1459  0.0235  0.1277
  554loPI   C1A 8855  17.138  10.578   9.960  0.0694  0.0525  0.2958
  554loPI   C2A 8856  17.154  10.623   9.533 -0.2282  0.0183 -0.0897
  554loPI   C3A 8857  17.215  10.647   9.136 -0.0682  0.0383 -0.0833
  554loPI   C4A 8858  17.192  10.731   8.685 -0.3797  0.1001  0.1358
  554loPI   C5A 8859  17.202  10.823   8.290 -0.3198  0.0537 -0.0621
  554loPI   C6A 8860  16.870  10.862   8.022 -0.0297  0.0622 -0.0048
  554loPI   C1B 8861  16.932  10.139   9.793 -0.4255 -0.2656 -0.1934
  554loPI   C2B 8862  16.955  10.183   9.351 -0.0566  0.2702  0.0149
  554loPI   C3B 8863  16.944  10.216   8.867 -0.1737 -0.1925  0.0405
  554loPI   C4B 8864  16.758  10.258   8.406  0.2738  0.0529  0.1585
  555loPI    C1 8865   3.850   6.672  11.292 -0.1017  0.2249  0.0474
  555loPI    C2 8866   4.002   6.570  11.647 -0.0181 -0.1806 -0.1002
  555loPI    C3 8867   3.606   6.592  11.598 -0.0268  0.1244  0.0811
  555loPI   PO4 8868   3.974   6.480  11.079  0.1919  0.0098 -0.1717
  555loPI   GL1 8869   4.004   6.495  10.703 -0.1019  0.2496 -0.0778
  555loPI   GL2 8870   4.346   6.557  10.628  0.2181  0.0728 -0.2557
  555loPI   C1A 8871   4.010   6.435  10.324  0.0380 -0.0282  0.0519
  555loPI   C2A 8872   3.985   6.382   9.846  0.1827  0.0939 -0.1681
  555loPI   C3A 8873   4.007   6.494   9.370 -0.2055  0.1534 -0.1458
  555loPI   C4A 8874   3.932   6.532   8.986 -0.0333 -0.0625 -0.2370
  555loPI   C5A 8875   4.218   6.551   8.543 -0.0413 -0.0319  0.0200
  555loPI   C6A 8876   4.624   6.558   8.403  0.2208 -0.0395 -0.1307
  555loPI   C1B 8877   4.541   6.489  10.209 -0.3607 -0.0828 -0.0053
  555loPI   C2B 8878   4.542   6.472   9.780 -0.4706 -0.1337  0.0879
  555loPI   C3B 8879   4.548   6.518   9.302 -0.0260 -0.1613 -0.1351
  555loPI   C4B 8880   4.508   6.444   8.946 -0.1334 -0.0160 -0.1188
  556loPI    C1 8881   7.459  16.971  10.737  0.0938 -0.1941 -0.1161
  556loPI    C2 8882   7.735  16.991  11.025  0.0096  0.0790 -0.0518
  556loPI    C3 8883   7.360  17.108  11.100 -0.0970 -0.1773 -0.1733
  556loPI   PO4 8884   7.531  17.091  10.590  0.0709 -0.1589 -0.2266
  556loPI   GL1 8885   7.428  16.953  10.233  0.0393 -0.2145  0.2647
  556loPI   GL2 8886   7.356  16.632  10.238 -0.0697 -0.1358 -0.2404
  556loPI   C1A 8887   7.285  16.923   9.783 -0.1783  0.0491  0.1676
  556loPI   C2A 8888   7.362  16.986   9.331 -0.1166  0.0828 -0.0851
  556loPI   C3A 8889   7.343  16.909   8.906 -0.0698 -0.1017 -0.0024
  556loPI   C4A 8890   7.443  16.940   8.507 -0.2215  0.2833  0.0918
  556loPI   C5A 8891   7.534  17.150   8.058  0.1613  0.0759 -0.0015
  556loPI   C6A 8892   7.658  17.050   7.607 -0.2981 -0.0506 -0.1244
  556loPI   C1B 8893   7.565  16.492   9.731  0.0634  0.1696  0.1735
  556loPI   C2B 8894   7.591  16.497   9.342 -0.1304  0.1427 -0.0012
  556loPI   C3B 8895   7.616  16.477   8.917  0.2971  0.3033 -0.3059
  556loPI   C4B 8896   7.681  16.496   8.547  0.1787 -0.2085  0.0953
  557loPI    C1 8897  11.262   6.970  10.745 -0.0603  0.2975  0.2050
  557loPI    C2 8898  11.467   7.021  11.085  0.2488 -0.0471  0.0775
  557loPI    C3 8899  11.110   6.840  11.092  0.1673  0.1163  0.2395
  557loPI   PO4 8900  11.389   7.144  10.628  0.1372  0.0618  0.1583
  557loPI   GL1 8901  11.421   7.330  10.253  0.2437  0.3312  0.2247
  557loPI   GL2 8902  11.163   7.566  10.240  0.1051  0.0501 -0.1987
  557loPI   C1A 8903  11.408   7.193   9.856 -0.2190 -0.0085 -0.1057
  557loPI   C2A 8904  11.482   7.161   9.412  0.2493 -0.1458  0.3547
  557loPI   C3A 8905  11.444   7.268   9.049 -0.0571  0.2885  0.1829
  557loPI   C4A 8906  11.446   7.242   8.634  0.0897  0.2452  0.3352
  557loPI   C5A 8907  11.247   7.186   8.212  0.1636  0.1104  0.2063
  557loPI   C6A 8908  11.292   7.401   7.818 -0.1772  0.0612  0.0390
  557loPI   C1B 8909  11.076   7.640   9.832  0.1317  0.0039  0.0139
  557loPI   C2B 8910  11.199   7.623   9.315  0.0129 -0.0898 -0.0475
  557loPI   C3B 8911  11.182   7.619   8.867 -0.0079  0.0751 -0.0179
  557loPI   C4B 8912  11.054   7.656   8.518 -0.0166  0.2038  0.0679
  558loPI    C1 8913  11.061   7.796  11.021 -0.3301  0.2942 -0.0251
  558loPI    C2 8914  11.392   8.016  11.068 -0.2208  0.1144  0.0580
  558loPI    C3 8915  11.073   8.081  11.302 -0.1150  0.0470  0.2228
  558loPI   PO4 8916  11.004   7.887  10.777 -0.0168 -0.2735 -0.1976
  558loPI   GL1 8917  10.984   8.094  10.446  0.1160 -0.2208  0.2107
  558loPI   GL2 8918  11.284   8.050  10.345  0.1104  0.3771  0.1884
  558loPI   C1A 8919  10.856   8.069  10.083  0.1787 -0.1134  0.1112
  558loPI   C2A 8920  10.861   8.141   9.608 -0.0109 -0.0168 -0.1688
  558loPI   C3A 8921  10.970   8.010   9.149  0.3159 -0.0084 -0.2762
  558loPI   C4A 8922  10.942   8.097   8.844  0.3587  0.0275  0.3576
  558loPI   C5A 8923  10.802   8.106   8.426 -0.1614 -0.1204  0.1531
  558loPI   C6A 8924  10.937   8.258   7.989 -0.0013 -0.1595 -0.0659
  558loPI   C1B 8925  11.388   8.084   9.928 -0.0398  0.0812 -0.1198
  558loPI   C2B 8926  11.373   8.043   9.475 -0.1648  0.0482  0.1521
  558loPI   C3B 8927  11.400   8.038   9.010 -0.1927 -0.0966  0.3563
  558loPI   C4B 8928  11.325   8.177   8.570 -0.0168  0.2175  0.3394
  559loPI    C1 8929  14.662   9.329  11.189 -0.1436 -0.0870 -0.1458
  559loPI    C2 8930  14.413   9.324  11.502  0.0366  0.1761  0.0042
  559loPI    C3 8931  14.756   9.118  11.515 -0.0644 -0.0008 -0.1125
  559loPI   PO4 8932  14.694   9.235  10.916 -0.0235 -0.1131  0.1530
  559loPI   GL1 8933  14.802   9.158  10.398  0.1863  0.0907 -0.1984
  559loPI   GL2 8934  14.666   9.476  10.411  0.1687  0.2573 -0.0476
  559loPI   C1A 8935  14.909   9.148   9.999 -0.2161  0.1675 -0.1712
  559loPI   C2A 8936  14.959   9.271   9.582 -0.0120  0.2325  0.1656
  559loPI   C3A 8937  15.003   9.331   9.188  0.0950 -0.0301  0.0421
  559loPI   C4A 8938  14.940   9.295   8.808 -0.0541  0.1086 -0.2180
  559loPI   C5A 8939  14.919   9.076   8.476  0.1065 -0.0344 -0.2905
  559loPI   C6A 8940  15.290   9.128   8.141 -0.2315 -0.0938 -0.0543
  559loPI   C1B 8941  14.645   9.597   9.973  0.2035  0.0345 -0.1261
  559loPI   C2B 8942  14.699   9.715   9.526 -0.0292  0.0888  0.2591
  559loPI   C3B 8943  14.713   9.676   8.991  0.1798  0.0922  0.3297
  559loPI   C4B 8944  14.600   9.677   8.516 -0.0058  0.1603 -0.1035
  560loPI    C1 8945   3.106  12.779  11.435 -0.1965 -0.0700  0.0628
  560loPI    C2 8946   3.056  13.158  11.550 -0.0534  0.0063 -0.1209
  560loPI    C3 8947   3.197  12.888  11.808 -0.2123  0.0635  0.0282
  560loPI   PO4 8948   3.224  12.782  11.220 -0.1922 -0.0713 -0.0183
  560loPI   GL1 8949   3.423  12.876  10.739 -0.1052  0.3539 -0.3357
  560loPI   GL2 8950   3.191  12.560  10.725  0.0425  0.3381  0.1978
  560loPI   C1A 8951   3.451  13.027  10.365 -0.2459 -0.3311 -0.3151
  560loPI   C2A 8952   3.473  13.019   9.907 -0.1611 -0.3066  0.0559
  560loPI   C3A 8953   3.427  13.113   9.419 -0.1448 -0.1492 -0.1053
  560loPI   C4A 8954   3.268  13.188   9.087 -0.1402  0.2627  0.2295
  560loPI   C5A 8955   3.213  13.069   8.627 -0.0799 -0.1654 -0.1812
  560loPI   C6A 8956   2.938  12.693   8.458 -0.0701  0.1301  0.0366
  560loPI   C1B 8957   3.147  12.553  10.328  0.0276 -0.2659  0.0324
  560loPI   C2B 8958   3.097  12.625   9.838  0.1267 -0.0297  0.0260
  560loPI   C3B 8959   3.041  12.681   9.289 -0.0224  0.0728  0.1444
  560loPI   C4B 8960   3.005  12.683   9.001  0.0504 -0.1140 -0.3041
  561loPI    C1 8961  13.410  12.791  10.799  0.0942 -0.0790 -0.0601
  561loPI    C2 8962  13.770  12.912  10.925  0.1259 -0.3357  0.1039
  561loPI    C3 8963  13.449  13.143  10.983  0.2526 -0.1353  0.0158
  561loPI   PO4 8964  13.485  12.685  10.505  0.1789 -0.0242 -0.2602
  561loPI   GL1 8965  13.717  12.811  10.111  0.0526  0.1053  0.2643
  561loPI   GL2 8966  13.337  12.972  10.147 -0.2006  0.0053 -0.0031
  561loPI   C1A 8967  13.765  12.661   9.627 -0.0096  0.1129  0.1119
  561loPI   C2A 8968  13.615  12.735   9.227  0.0102 -0.2748  0.3437
  561loPI   C3A 8969  13.790  12.794   8.838 -0.2107  0.2484  0.3109
  561loPI   C4A 8970  13.831  12.761   8.397 -0.2317 -0.1705 -0.0640
  561loPI   C5A 8971  13.827  13.105   8.142 -0.1072 -0.0263  0.1113
  561loPI   C6A 8972  13.823  13.195   7.742  0.0443 -0.4015 -0.2163
  561loPI   C1B 8973  13.254  12.734   9.739  0.1412 -0.1395  0.2797
  561loPI   C2B 8974  13.140  12.635   9.269  0.2460  0.0407 -0.0870
  561loPI   C3B 8975  13.249  12.705   8.829 -0.2161 -0.2125 -0.1473
  561loPI   C4B 8976  13.270  12.752   8.413 -0.4841 -0.0863  0.3617
  562loPI    C1 8977  17.913  10.819  10.868 -0.2926 -0.3329  0.3096
  562loPI    C2 8978  18.046  11.149  11.051 -0.2103 -0.1562 -0.0578
  562loPI    C3 8979  18.140  10.788  11.196  0.3477 -0.0305 -0.0860
  562loPI   PO4 8980  17.952  10.819  10.691  0.0351 -0.2444  0.0861
  562loPI   GL1 8981  18.162  11.101  10.416 -0.1091  0.2081 -0.2620
  562loPI   GL2 8982  18.503  11.120  10.405 -0.2238  0.0734  0.0321
  562loPI   C1A 8983  17.954  11.106   9.988 -0.1125  0.1384  0.1430
  562loPI   C2A 8984  17.938  11.120   9.594  0.0883 -0.2380  0.2211
  562loPI   C3A 8985  17.851  11.109   9.148  0.2533  0.2649 -0.1142
  562loPI   C4A 8986  17.973  11.191   8.735  0.4490  0.2192 -0.1253
  562loPI   C5A 8987  18.007  11.345   8.402 -0.0275  0.0164  0.0184
  562loPI   C6A 8988  18.137  11.570   8.050 -0.0077  0.0733  0.1714
  562loPI   C1B 8989  18.455  11.197   9.938  0.0351  0.1807 -0.0722
  562loPI   C2B 8990  18.487  11.214   9.483  0.0889 -0.0151 -0.1571
  562loPI   C3B 8991  18.347  11.182   9.115 -0.0692  0.1628  0.2695
  562loPI   C4B 8992  18.531  11.303   8.734  0.1413  0.0074  0.0816
  563loPI    C1 8993   5.279   8.912  11.044 -0.0690 -0.1550  0.0879
  563loPI    C2 8994   5.102   8.596  11.213 -0.0066 -0.1228  0.2150
  563loPI    C3 8995   5.341   8.832  11.431  0.1542 -0.1376  0.0574
  563loPI   PO4 8996   5.141   8.959  10.878  0.1286  0.2841  0.0365
  563loPI   GL1 8997   5.019   8.760  10.479 -0.1100 -0.0163  0.1450
  563loPI   GL2 8998   5.229   8.822  10.332  0.1359  0.0129  0.2169
  563loPI   C1A 8999   4.740   8.693  10.155 -0.1032  0.1163 -0.0162
  563loPI   C2A 9000   4.645   8.757   9.721 -0.3632  0.0146 -0.0192
  563loPI   C3A 9001   4.655   8.718   9.254 -0.1195  0.6334  0.2239
  563loPI   C4A 9002   4.647   8.820   8.731  0.3971 -0.2721  0.2744
  563loPI   C5A 9003   4.256   8.784   8.452  0.0762 -0.1224 -0.4132
  563loPI   C6A 9004   3.948   8.646   8.183  0.1316 -0.0571 -0.1636
  563loPI   C1B 9005   5.198   8.831   9.792 -0.0585  0.2710 -0.0518
  563loPI   C2B 9006   5.118   8.709   9.503  0.3013  0.0936  0.4662
  563loPI   C3B 9007   5.184   8.706   9.083  0.0464 -0.0008  0.3250
  563loPI   C4B 9008   5.187   8.915   8.770  0.2520 -0.1168 -0.2276
  564loPI    C1 9009  12.477  17.667  10.210  0.0433  0.2406  0.1654
  564loPI    C2 9010  12.639  17.533  10.550 -0.0827 -0.1490  0.0775
  564loPI    C3 9011  12.320  17.774  10.562  0.2405  0.2842  0.2414
  564loPI   PO4 9012  12.736  17.731  10.019  0.1118  0.1567  0.2737
  564loPI   GL1 9013  12.811  17.840   9.683 -0.3406  0.1227  0.3316
  564loPI   GL2 9014  12.709  17.624   9.500 -0.0996 -0.1381  0.1380
  564loPI   C1A 9015  12.684  18.259   9.420  0.3281 -0.2425 -0.3495
  564loPI   C2A 9016  12.709  18.251   8.956 -0.1730 -0.2312 -0.0121
  564loPI   C3A 9017  12.829  18.228   8.551 -0.2136 -0.1811  0.0387
  564loPI   C4A 9018  12.854  18.151   8.139  0.0322  0.0150 -0.2335
  564loPI   C5A 9019  12.737  18.328   7.771 -0.0362  0.1463 -0.1755
  564loPI   C6A 9020  12.823  18.826   7.457  0.0504  0.0958  0.0222
  564loPI   C1B 9021  12.691  17.758   9.144 -0.2573 -0.0754 -0.7498
  564loPI   C2B 9022  12.688  17.750   8.741 -0.0191 -0.0320  0.0424
  564loPI   C3B 9023  12.656  17.643   8.286 -0.3360  0.0974 -0.1876
  564loPI   C4B 9024  12.705  17.681   7.818 -0.0505  0.0226 -0.2501
  565loPI    C1 9025   3.683  16.726  11.045 -0.2598 -0.2712 -0.2333
  565loPI    C2 9026   3.505  16.653  11.396 -0.1250 -0.0207 -0.1100
  565loPI    C3 9027   3.875  16.518  11.328  0.0789  0.4248  0.0738
  565loPI   PO4 9028   3.390  16.720  10.932  0.1584  0.2017  0.1223
  565loPI   GL1 9029   3.378  16.735  10.485  0.0866  0.1469 -0.1417
  565loPI   GL2 9030   3.589  16.533  10.247 -0.0328  0.1889  0.0582
  565loPI   C1A 9031   3.131  16.632  10.083  0.1506 -0.3904 -0.0800
  565loPI   C2A 9032   3.119  16.607   9.608 -0.0238  0.6160  0.1855
  565loPI   C3A 9033   3.185  16.678   9.258  0.0540 -0.0300  0.0572
  565loPI   C4A 9034   3.170  16.771   8.682  0.1658  0.0234 -0.3855
  565loPI   C5A 9035   3.222  16.716   8.280 -0.0348  0.3451 -0.2292
  565loPI   C6A 9036   3.521  16.644   8.093  0.2455 -0.0356 -0.3931
  565loPI   C1B 9037   3.680  16.686   9.867  0.1827  0.0206 -0.1917
  565loPI   C2B 9038   3.676  16.654   9.426  0.0695 -0.2388 -0.2151
  565loPI   C3B 9039   3.641  16.722   8.977 -0.3099 -0.0352 -0.0428
  565loPI   C4B 9040   3.712  16.784   8.510  0.1798  0.1151 -0.4408
  566loPI    C1 9041   3.964  17.510  10.963 -0.0262  0.3663 -0.1000
  566loPI    C2 9042   3.708  17.353  11.228 -0.0307  0.2452 -0.1751
  566loPI    C3 9043   3.979  17.623  11.347  0.0452  0.1038 -0.0235
  566loPI   PO4 9044   3.852  17.525  10.774 -0.2713 -0.2283 -0.2688
  566loPI   GL1 9045   3.919  17.566  10.455  0.0076  0.1524  0.1800
  566loPI   GL2 9046   3.754  17.334  10.312 -0.1822  0.0248 -0.0761
  566loPI   C1A 9047   4.156  17.546  10.026  0.0434 -0.1785 -0.4364
  566loPI   C2A 9048   4.091  17.590   9.607 -0.1092  0.2015 -0.0375
  566loPI   C3A 9049   4.191  17.655   9.179 -0.0309  0.1875  0.1780
  566loPI   C4A 9050   4.097  17.690   8.747  0.1539 -0.0953  0.1744
  566loPI   C5A 9051   4.220  17.658   8.291  0.2578 -0.1583  0.1204
  566loPI   C6A 9052   4.226  17.713   7.810 -0.1760  0.0596 -0.1219
  566loPI   C1B 9053   3.547  17.559   9.976 -0.1321 -0.0596  0.1706
  566loPI   C2B 9054   3.554  17.604   9.512  0.2395 -0.0779  0.0573
  566loPI   C3B 9055   3.623  17.588   9.049 -0.2132  0.0026 -0.3286
  566loPI   C4B 9056   3.648  17.729   8.597  0.1244  0.1071 -0.1006
  567loPI    C1 9057  17.058  12.351  11.030  0.1473 -0.5138 -0.0924
  567loPI    C2 9058  16.872  12.503  11.349  0.1964 -0.2612 -0.1819
  567loPI    C3 9059  16.789  12.131  11.228 -0.0375 -0.2537 -0.0501
  567loPI   PO4 9060  17.008  12.555  10.780 -0.0473 -0.0954 -0.1818
  567loPI   GL1 9061  17.152  12.719  10.414  0.3142  0.0921  0.1913
  567loPI   GL2 9062  17.057  12.388  10.303 -0.0588 -0.1192 -0.1099
  567loPI   C1A 9063  17.279  12.841   9.991 -0.1460  0.0762  0.0179
  567loPI   C2A 9064  17.300  12.841   9.572 -0.1286 -0.1801 -0.0005
  567loPI   C3A 9065  17.251  12.861   9.144  0.2015 -0.0616 -0.3488
  567loPI   C4A 9066  17.213  12.913   8.787 -0.0503 -0.0589 -0.1973
  567loPI   C5A 9067  17.315  12.966   8.303 -0.2081  0.3154 -0.3263
  567loPI   C6A 9068  17.216  13.221   8.011 -0.2117 -0.2121  0.1211
  567loPI   C1B 9069  17.089  12.392   9.820 -0.1837 -0.4739 -0.0924
  567loPI   C2B 9070  17.045  12.478   9.349 -0.1401  0.0095 -0.0298
  567loPI   C3B 9071  17.055  12.418   8.974 -0.2998  0.1974 -0.0845
  567loPI   C4B 9072  17.083  12.487   8.621 -0.1275  0.0410 -0.2203
  568loPI    C1 9073   1.130   0.713  10.812 -0.0414  0.0917 -0.0799
  568loPI    C2 9074   0.809   0.878  10.986 -0.1765 -0.1560 -0.0890
  568loPI    C3 9075   0.974   0.549  11.142  0.0317 -0.0708 -0.1256
  568loPI   PO4 9076   1.079   0.663  10.621 -0.0322  0.0978  0.1780
  568loPI   GL1 9077   1.214   0.757  10.188 -0.0186  0.1082 -0.1499
  568loPI   GL2 9078   0.882   0.872  10.084  0.0399 -0.1223 -0.1231
  568loPI   C1A 9079   1.278   0.810   9.767 -0.1387 -0.3571  0.0677
  568loPI   C2A 9080   1.289   0.757   9.360  0.1154 -0.3362  0.1281
  568loPI   C3A 9081   1.239   0.690   8.937  0.0318 -0.3597 -0.0750
  568loPI   C4A 9082   1.250   0.813   8.587  0.1309  0.1127 -0.0138
  568loPI   C5A 9083   0.977   0.829   8.174  0.1939 -0.0622 -0.3133
  568loPI   C6A 9084   0.900   0.732   7.665 -0.1130 -0.0714  0.1673
  568loPI   C1B 9085   0.738   0.729   9.756  0.0851  0.0253 -0.0040
  568loPI   C2B 9086   0.733   0.676   9.307  0.0306 -0.2941 -0.0481
  568loPI   C3B 9087   0.732   0.718   8.917 -0.0496 -0.0383 -0.1900
  568loPI   C4B 9088   0.748   0.893   8.582 -0.0992 -0.0945  0.0147
  569loPI    C1 9089  12.030   8.118  11.046  0.0460  0.2502 -0.1132
  569loPI    C2 9090  12.398   8.023  11.172 -0.1172 -0.2845 -0.0118
  569loPI    C3 9091  12.108   8.094  11.438 -0.0962  0.1279 -0.0916
  569loPI   PO4 9092  11.848   7.997  10.838  0.1082 -0.1234  0.0077
  569loPI   GL1 9093  11.802   8.188  10.342  0.1067 -0.2662  0.0893
  569loPI   GL2 9094  11.991   7.875  10.369  0.0594 -0.0122  0.0129
  569loPI   C1A 9095  11.933   8.160   9.932 -0.1384  0.0171 -0.0679
  569loPI   C2A 9096  11.925   8.099   9.568 -0.1488 -0.1215 -0.0088
  569loPI   C3A 9097  11.908   8.155   9.104  0.1079  0.1013  0.3472
  569loPI   C4A 9098  11.820   8.123   8.634  0.0861 -0.1154  0.0972
  569loPI   C5A 9099  11.844   8.153   8.251 -0.2064  0.4283  0.0824
  569loPI   C6A 9100  12.265   8.207   7.944  0.2419  0.1502 -0.0390
  569loPI   C1B 9101  12.204   7.732  10.133 -0.0833 -0.3039 -0.2704
  569loPI   C2B 9102  12.210   7.701   9.722  0.0599 -0.0321  0.1754
  569loPI   C3B 9103  12.245   7.736   9.280 -0.2557  0.0445 -0.3279
  569loPI   C4B 9104  12.278   7.652   8.891 -0.0966  0.0115  0.0931
  570loPI    C1 9105  15.654   7.222  10.826  0.1282  0.0616  0.0382
  570loPI    C2 9106  15.548   7.591  10.938  0.0151 -0.0047  0.1533
  570loPI    C3 9107  15.750   7.355  11.190 -0.1217 -0.1063  0.1692
  570loPI   PO4 9108  15.672   7.340  10.542 -0.1779 -0.0067 -0.0655
  570loPI   GL1 9109  15.473   7.451  10.167  0.0584 -0.2129  0.0865
  570loPI   GL2 9110  15.084   7.435  10.081  0.1392 -0.3151 -0.2944
  570loPI   C1A 9111  15.671   7.425   9.813  0.0017 -0.0785 -0.0851
  570loPI   C2A 9112  15.546   7.447   9.445  0.0811  0.3484  0.0595
  570loPI   C3A 9113  15.568   7.381   9.022 -0.2101 -0.0305 -0.0640
  570loPI   C4A 9114  15.540   7.562   8.583  0.1529  0.1075  0.0015
  570loPI   C5A 9115  15.604   7.479   8.237 -0.1582  0.3080 -0.1423
  570loPI   C6A 9116  15.922   7.556   7.853  0.1227  0.3803  0.1846
  570loPI   C1B 9117  15.055   7.420   9.617  0.1815  0.1912  0.0797
  570loPI   C2B 9118  15.046   7.508   9.181  0.0382 -0.3120  0.0139
  570loPI   C3B 9119  15.071   7.523   8.744  0.0411  0.2106 -0.0205
  570loPI   C4B 9120  15.154   7.548   8.238  0.0890  0.0921 -0.1242
  571loPI    C1 9121   7.886  14.908  11.236  0.0854 -0.2352 -0.2517
  571loPI    C2 9122   7.520  14.749  11.218  0.0353 -0.1562  0.0277
  571loPI    C3 9123   7.684  14.834  11.573  0.3520 -0.2521 -0.0926
  571loPI   PO4 9124   7.924  14.873  10.942 -0.2511 -0.0034 -0.1621
  571loPI   GL1 9125   7.879  14.970  10.473 -0.3326  0.1120  0.2300
  571loPI   GL2 9126   7.854  15.257  10.357 -0.1423  0.2589  0.0365
  571loPI   C1A 9127   7.745  14.744  10.079 -0.0438  0.1606  0.0055
  571loPI   C2A 9128   7.703  14.669   9.640 -0.3828 -0.2019  0.1121
  571loPI   C3A 9129   7.676  14.732   9.246 -0.2748 -0.1712  0.2767
  571loPI   C4A 9130   7.662  14.690   8.805  0.1214  0.0675 -0.0150
  571loPI   C5A 9131   7.729  14.617   8.356  0.1981 -0.4609 -0.0989
  571loPI   C6A 9132   7.812  14.722   7.912  0.2810  0.0237  0.0892
  571loPI   C1B 9133   7.932  15.156   9.877 -0.2488 -0.1697 -0.0279
  571loPI   C2B 9134   7.946  15.145   9.415 -0.2214 -0.0452 -0.1010
  571loPI   C3B 9135   7.911  15.142   8.993  0.0425 -0.0656  0.0810
  571loPI   C4B 9136   7.972  15.169   8.586  0.1813  0.2891 -0.0584
  572loPI    C1 9137   8.362   0.293  10.950  0.0456 -0.2163  0.0205
  572loPI    C2 9138   8.394   0.096  11.296  0.1627  0.0418  0.1596
  572loPI    C3 9139   8.245   0.467  11.290  0.2376  0.0698 -0.0565
  572loPI   PO4 9140   8.295   0.282  10.736 -0.0404  0.0347  0.2242
  572loPI   GL1 9141   8.132   0.116  10.341 -0.0731 -0.3343  0.1484
  572loPI   GL2 9142   8.254  -0.137  10.155  0.1426  0.2253  0.2163
  572loPI   C1A 9143   7.980   0.241   9.955 -0.1240 -0.2098 -0.0938
  572loPI   C2A 9144   8.067   0.248   9.530 -0.0305 -0.0322  0.5563
  572loPI   C3A 9145   8.001   0.316   9.217  0.0729  0.1911  0.0626
  572loPI   C4A 9146   8.124   0.329   8.772  0.0259  0.0492 -0.0084
  572loPI   C5A 9147   8.289   0.434   8.314  0.1482 -0.0064  0.1779
  572loPI   C6A 9148   8.617   0.214   8.132  0.0836  0.0179  0.1012
  572loPI   C1B 9149   8.329  -0.135   9.751 -0.2160  0.0584  0.2152
  572loPI   C2B 9150   8.308  -0.166   9.354  0.3100 -0.4130  0.0935
  572loPI   C3B 9151   8.317  -0.091   8.922  0.4307 -0.1461 -0.2529
  572loPI   C4B 9152   8.332  -0.133   8.544  0.1705 -0.3848  0.2418
  573loPI    C1 9153   8.414   5.097  10.938 -0.0956  0.1597  0.2079
  573loPI    C2 9154   8.417   4.789  11.193 -0.0514  0.1688  0.2184
  573loPI    C3 9155   8.747   5.008  11.141  0.0615 -0.0785 -0.1447
  573loPI   PO4 9156   8.369   5.026  10.697  0.1719 -0.1278  0.1311
  573loPI   GL1 9157   8.196   5.243  10.326 -0.2616  0.0097 -0.1348
  573loPI   GL2 9158   8.489   5.286  10.321  0.0009  0.0519  0.4897
  573loPI   C1A 9159   8.012   5.197   9.960 -0.1544  0.2532 -0.2286
  573loPI   C2A 9160   7.942   5.315   9.531 -0.0186 -0.0016 -0.2181
  573loPI   C3A 9161   7.974   5.326   9.175 -0.1525  0.2356 -0.3092
  573loPI   C4A 9162   7.836   5.183   8.818 -0.2449 -0.1424 -0.0360
  573loPI   C5A 9163   8.002   5.174   8.420  0.0736 -0.0730 -0.1926
  573loPI   C6A 9164   7.945   5.568   8.212  0.0305  0.2268 -0.0916
  573loPI   C1B 9165   8.588   5.208   9.895 -0.2103  0.0335 -0.0088
  573loPI   C2B 9166   8.421   5.326   9.486 -0.1021  0.3080  0.1570
  573loPI   C3B 9167   8.417   5.254   9.090 -0.2679  0.1017  0.2375
  573loPI   C4B 9168   8.519   5.188   8.633  0.1521  0.3263 -0.0137
  574loPI    C1 9169   1.235   4.584  10.937  0.0293  0.2932  0.2617
  574loPI    C2 9170   1.414   4.318  11.177  0.0974  0.0377 -0.0662
  574loPI    C3 9171   1.049   4.456  11.267  0.1060 -0.0852  0.1622
  574loPI   PO4 9172   1.324   4.527  10.713  0.0792 -0.3087 -0.0887
  574loPI   GL1 9173   1.401   4.662  10.323  0.0087 -0.3182 -0.1427
  574loPI   GL2 9174   1.155   4.386  10.273 -0.1374 -0.3976 -0.0256
  574loPI   C1A 9175   1.523   4.479   9.931 -0.0137 -0.0011 -0.1914
  574loPI   C2A 9176   1.596   4.595   9.461 -0.0969 -0.0870 -0.0549
  574loPI   C3A 9177   1.560   4.582   8.973  0.1882  0.1106 -0.1074
  574loPI   C4A 9178   1.694   4.624   8.556 -0.1898  0.0916  0.1949
  574loPI   C5A 9179   1.906   4.761   8.163 -0.4755  0.0707 -0.0092
  574loPI   C6A 9180   1.904   4.994   7.748 -0.0277  0.0998  0.0877
  574loPI   C1B 9181   1.002   4.502   9.915 -0.0087 -0.0447  0.1800
  574loPI   C2B 9182   1.053   4.568   9.467 -0.2203 -0.0503 -0.0574
  574loPI   C3B 9183   1.054   4.594   9.098 -0.4474  0.1129  0.0367
  574loPI   C4B 9184   1.127   4.556   8.594  0.0485  0.2994  0.1349
  575loPI    C1 9185   6.178   9.548  11.394  0.2629  0.0381  0.0283
  575loPI    C2 9186   5.873   9.601  11.647 -0.0691  0.0859 -0.3696
  575loPI    C3 9187   6.231   9.762  11.728 -0.1583  0.0727  0.0781
  575loPI   PO4 9188   6.015   9.563  11.126  0.0866  0.2139 -0.2379
  575loPI   GL1 9189   5.918   9.726  10.791 -0.3135  0.2449  0.2025
  575loPI   GL2 9190   6.356   9.661  10.716 -0.3562  0.0954  0.0746
  575loPI   C1A 9191   5.761   9.584  10.347 -0.0376  0.0767 -0.0846
  575loPI   C2A 9192   5.724   9.640   9.874 -0.0642  0.0041 -0.0294
  575loPI   C3A 9193   5.607   9.614   9.478 -0.0514 -0.1177  0.0229
  575loPI   C4A 9194   5.556   9.713   9.137 -0.1248  0.0220 -0.0217
  575loPI   C5A 9195   5.801   9.693   8.828 -0.0956 -0.6086  0.2257
  575loPI   C6A 9196   6.223   9.785   8.646  0.0928 -0.3122  0.1310
  575loPI   C1B 9197   6.293   9.828  10.355  0.1424  0.0110 -0.2723
  575loPI   C2B 9198   6.197   9.671   9.928 -0.1757 -0.4310 -0.2107
  575loPI   C3B 9199   6.146   9.764   9.525 -0.3340  0.1239 -0.0648
  575loPI   C4B 9200   6.034   9.746   9.215 -0.4321 -0.0994  0.0571
  576loPI    C1 9201   7.587   6.882  11.110 -0.2666 -0.0117  0.1330
  576loPI    C2 9202   7.818   6.571  11.211 -0.0793  0.0844  0.0065
  576loPI    C3 9203   7.885   6.931  11.373 -0.1425  0.1118 -0.0280
  576loPI   PO4 9204   7.661   6.867  10.831 -0.3087 -0.1891 -0.0159
  576loPI   GL1 9205   7.515   6.774  10.480  0.5466 -0.0739 -0.0315
  576loPI   GL2 9206   7.817   6.987  10.315 -0.2394  0.1542  0.1601
  576loPI   C1A 9207   7.365   6.996  10.080  0.1488  0.0017  0.2232
  576loPI   C2A 9208   7.251   7.003   9.656  0.0311  0.1048  0.1009
  576loPI   C3A 9209   7.327   7.063   9.244  0.1895  0.1397 -0.0755
  576loPI   C4A 9210   7.290   7.149   8.763 -0.1603 -0.1303  0.1549
  576loPI   C5A 9211   7.396   7.104   8.320 -0.0831 -0.0811 -0.0217
  576loPI   C6A 9212   6.961   7.078   8.055  0.1029 -0.1178  0.0528
  576loPI   C1B 9213   7.868   6.975   9.864  0.2172 -0.2130 -0.3126
  576loPI   C2B 9214   7.746   7.076   9.494  0.0222  0.0553  0.2226
  576loPI   C3B 9215   7.824   7.067   9.005 -0.1106 -0.0166 -0.2185
  576loPI   C4B 9216   7.773   7.162   8.605 -0.0006 -0.0053  0.0769
  577loPI    C1 9217   6.834   7.218  11.039 -0.0826  0.0095  0.0935
  577loPI    C2 9218   7.005   7.409  11.347 -0.1175  0.0140  0.1100
  577loPI    C3 9219   6.624   7.484  11.251 -0.1187 -0.0164  0.0903
  577loPI   PO4 9220   6.845   7.268  10.789 -0.0107  0.4850  0.2211
  577loPI   GL1 9221   7.171   7.183  10.522  0.0463  0.2531  0.0378
  577loPI   GL2 9222   6.948   6.889  10.359 -0.1500  0.0765  0.2417
  577loPI   C1A 9223   7.086   7.377  10.043  0.1665 -0.0754 -0.3172
  577loPI   C2A 9224   6.972   7.495   9.655  0.0497  0.1217 -0.1191
  577loPI   C3A 9225   7.046   7.543   9.200  0.0622  0.0443  0.1001
  577loPI   C4A 9226   7.017   7.576   8.789 -0.0181 -0.0617 -0.2473
  577loPI   C5A 9227   7.005   7.444   8.369  0.0373 -0.1023 -0.0101
  577loPI   C6A 9228   6.671   7.609   8.047 -0.2233  0.0268  0.1247
  577loPI   C1B 9229   6.808   6.981   9.959  0.0778  0.0393 -0.0723
  577loPI   C2B 9230   6.757   7.007   9.507  0.0429  0.0951 -0.1442
  577loPI   C3B 9231   6.811   7.081   9.087 -0.1090  0.1914 -0.1566
  577loPI   C4B 9232   6.768   7.096   8.665 -0.1581 -0.2318 -0.0191
  578loPI    C1 9233  17.743   4.028  10.889 -0.1041 -0.1225  0.2355
  578loPI    C2 9234  18.116   3.909  10.807 -0.1352 -0.0546 -0.0109
  578loPI    C3 9235  17.910   3.733  11.101  0.0922 -0.0882  0.1307
  578loPI   PO4 9236  17.688   4.110  10.610  0.1410  0.1069  0.0251
  578loPI   GL1 9237  17.571   4.219  10.165 -0.0914 -0.3003  0.2127
  578loPI   GL2 9238  17.813   3.903  10.154  0.0596 -0.2088  0.1267
  578loPI   C1A 9239  17.673   4.449   9.693 -0.4143  0.1702 -0.2893
  578loPI   C2A 9240  17.656   4.484   9.216 -0.2399  0.0684 -0.0130
  578loPI   C3A 9241  17.619   4.472   8.831  0.2018 -0.1276  0.0986
  578loPI   C4A 9242  17.533   4.527   8.358 -0.2286 -0.0706 -0.1527
  578loPI   C5A 9243  17.355   4.916   8.164 -0.1527  0.0706 -0.0332
  578loPI   C6A 9244  17.173   5.227   7.944  0.0608  0.0244 -0.2252
  578loPI   C1B 9245  17.899   4.036   9.755 -0.2096  0.0250  0.0312
  578loPI   C2B 9246  17.892   4.013   9.305  0.2330 -0.1187 -0.0117
  578loPI   C3B 9247  17.880   4.101   8.920  0.1389 -0.0812 -0.0493
  578loPI   C4B 9248  17.923   4.101   8.474 -0.0382  0.2443 -0.2482
  579loPI    C1 9249  16.460   0.384  10.852  0.0574  0.2075  0.0723
  579loPI    C2 9250  16.382   0.141  11.160 -0.0548  0.0410 -0.0852
  579loPI    C3 9251  16.524   0.510  11.226 -0.0125 -0.0178  0.1613
  579loPI   PO4 9252  16.423   0.201  10.673 -0.2325 -0.1039 -0.1526
  579loPI   GL1 9253  16.700   0.069  10.303  0.2288  0.1179 -0.4863
  579loPI   GL2 9254  16.673   0.470  10.337  0.0937 -0.1205 -0.1273
  579loPI   C1A 9255  16.813  -0.225   9.838 -0.3642  0.1829  0.0885
  579loPI   C2A 9256  16.860  -0.252   9.454  0.0283  0.1466  0.0327
  579loPI   C3A 9257  16.862  -0.181   9.071  0.1424 -0.1385 -0.0485
  579loPI   C4A 9258  16.767  -0.153   8.648 -0.0711 -0.1498  0.0411
  579loPI   C5A 9259  16.750  -0.068   8.143  0.0920 -0.1130 -0.3245
  579loPI   C6A 9260  16.287  -0.001   7.954  0.2273  0.0456 -0.2914
  579loPI   C1B 9261  16.820   0.605   9.959  0.0235  0.2183 -0.0762
  579loPI   C2B 9262  16.786   0.696   9.506 -0.3663 -0.1743 -0.0601
  579loPI   C3B 9263  16.851   0.748   9.071  0.0190  0.0502 -0.0906
  579loPI   C4B 9264  16.726   0.778   8.575 -0.2942  0.0398 -0.1082
  580loPI    C1 9265   0.849   9.287  11.021 -0.1570  0.0372  0.1138
  580loPI    C2 9266   0.798   9.136  11.388  0.3779 -0.1523  0.1183
  580loPI    C3 9267   1.027   9.460  11.335  0.0261  0.0803 -0.0124
  580loPI   PO4 9268   0.935   9.128  10.930  0.3652  0.0188  0.4821
  580loPI   GL1 9269   0.811   8.850  10.579 -0.1463  0.0797 -0.2371
  580loPI   GL2 9270   0.996   8.512  10.456 -0.1260  0.3282  0.1121
  580loPI   C1A 9271   0.750   8.919  10.213  0.0382  0.0702  0.1982
  580loPI   C2A 9272   0.792   8.931   9.735 -0.1835 -0.1617  0.1207
  580loPI   C3A 9273   0.734   8.932   9.286  0.1906  0.0460 -0.1392
  580loPI   C4A 9274   0.779   9.019   8.896  0.0975 -0.0956 -0.2479
  580loPI   C5A 9275   0.706   9.049   8.490 -0.2044  0.1194 -0.0285
  580loPI   C6A 9276   0.729   8.765   8.158  0.0113  0.1003  0.2740
  580loPI   C1B 9277   1.069   8.521  10.003 -0.0408 -0.0907 -0.0992
  580loPI   C2B 9278   1.061   8.559   9.627 -0.0774 -0.1803 -0.0045
  580loPI   C3B 9279   1.030   8.486   9.130  0.2102 -0.0864  0.2823
  580loPI   C4B 9280   0.967   8.506   8.717 -0.4325 -0.1723  0.0954
  581loPI    C1 9281   5.707   1.457  10.645  0.0358  0.0162  0.1115
  581loPI    C2 9282   5.364   1.306  10.786 -0.1179  0.0061 -0.2637
  581loPI    C3 9283   5.377   1.468  10.420  0.2208  0.2347 -0.1559
  581loPI   PO4 9284   5.857   1.387  10.576  0.0812  0.0358 -0.1156
  581loPI   GL1 9285   6.010   1.356  10.209  0.1518 -0.2777  0.0205
  581loPI   GL2 9286   6.048   1.113  10.098  0.1498  0.0753 -0.0569
  581loPI   C1A 9287   6.166   1.424   9.745  0.0024  0.0185 -0.3366
  581loPI   C2A 9288   6.134   1.561   9.250  0.0448  0.0917  0.2875
  581loPI   C3A 9289   6.086   1.460   8.892 -0.3507  0.0365 -0.2326
  581loPI   C4A 9290   6.116   1.505   8.404 -0.1619 -0.1390 -0.0882
  581loPI   C5A 9291   6.389   1.535   8.118 -0.2502 -0.1716 -0.1613
  581loPI   C6A 9292   6.571   1.768   7.848  0.0794 -0.0074  0.0889
  581loPI   C1B 9293   5.904   0.995   9.733  0.0324  0.0367 -0.0876
  581loPI   C2B 9294   5.955   1.102   9.369 -0.0075  0.1261  0.1322
  581loPI   C3B 9295   5.825   1.018   8.971 -0.2813  0.3168  0.1907
  581loPI   C4B 9296   5.884   1.044   8.529  0.0168 -0.0595 -0.1743
  582loPI    C1 9297   7.274  14.326  11.205  0.2078  0.3027 -0.0990
  582loPI    C2 9298   6.921  14.208  11.353  0.1482  0.3303 -0.2183
  582loPI    C3 9299   7.247  13.983  11.409  0.1286  0.3461 -0.0357
  582loPI   PO4 9300   7.178  14.369  10.899  0.1879 -0.0558  0.0907
  582loPI   GL1 9301   7.336  14.176  10.582 -0.0950  0.1843  0.0333
  582loPI   GL2 9302   7.131  13.946  10.497 -0.0206 -0.1152  0.0341
  582loPI   C1A 9303   7.492  14.284  10.146  0.1405 -0.2069  0.3019
  582loPI   C2A 9304   7.405  14.214   9.732 -0.0667 -0.0280 -0.1291
  582loPI   C3A 9305   7.506  14.208   9.317  0.3109  0.2121 -0.1867
  582loPI   C4A 9306   7.427  14.253   8.946  0.0889 -0.1500  0.0703
  582loPI   C5A 9307   7.383  14.182   8.456  0.0753  0.1805 -0.0625
  582loPI   C6A 9308   7.090  14.067   8.173 -0.0829  0.3797  0.1580
  582loPI   C1B 9309   7.246  13.826  10.086  0.0985 -0.1412  0.1509
  582loPI   C2B 9310   7.273  13.719   9.741 -0.2398  0.1206  0.1134
  582loPI   C3B 9311   7.292  13.756   9.351 -0.1553 -0.0267  0.1566
  582loPI   C4B 9312   7.169  13.720   8.949 -0.0936 -0.0657  0.1188
  583loPI    C1 9313   9.321  13.320  10.914 -0.2890 -0.0965  0.2542
  583loPI    C2 9314   9.594  13.604  10.844 -0.2262 -0.2167  0.0034
  583loPI    C3 9315   9.615  13.385  11.177  0.0794 -0.3323 -0.0884
  583loPI   PO4 9316   9.170  13.286  10.726 -0.0342  0.0523  0.1294
  583loPI   GL1 9317   8.935  13.246  10.456  0.1008 -0.0354  0.2376
  583loPI   GL2 9318   8.878  12.942  10.435 -0.2454  0.0777  0.1659
  583loPI   C1A 9319   8.889  13.160   9.976  0.0587  0.2831 -0.0127
  583loPI   C2A 9320   8.869  13.042   9.552  0.2545  0.1434 -0.0569
  583loPI   C3A 9321   8.916  12.991   9.054  0.0855  0.1192 -0.1135
  583loPI   C4A 9322   8.766  12.905   8.757  0.0213 -0.0533  0.2330
  583loPI   C5A 9323   8.709  12.763   8.198  0.2669  0.1992  0.3809
  583loPI   C6A 9324   8.534  12.821   7.720  0.1011  0.1391  0.2881
  583loPI   C1B 9325   8.683  12.667  10.049 -0.0625 -0.1895 -0.0119
  583loPI   C2B 9326   8.569  12.576   9.595 -0.0843  0.1545  0.4438
  583loPI   C3B 9327   8.616  12.515   9.082 -0.2293 -0.0739 -0.1061
  583loPI   C4B 9328   8.508  12.508   8.608 -0.1768  0.0973 -0.1195
  584loPI    C1 9329   3.264  17.418  10.997 -0.3246 -0.1043 -0.0791
  584loPI    C2 9330   3.054  17.101  10.873 -0.3128 -0.1459  0.0065
  584loPI    C3 9331   3.256  17.085  11.218  0.0134 -0.1847 -0.1832
  584loPI   PO4 9332   3.335  17.514  10.707 -0.0303 -0.1397  0.2029
  584loPI   GL1 9333   3.274  17.257  10.418 -0.0199  0.1088 -0.2393
  584loPI   GL2 9334   2.909  17.189  10.349 -0.1475 -0.1894  0.1335
  584loPI   C1A 9335   3.342  17.085  10.008 -0.1086  0.1475 -0.0777
  584loPI   C2A 9336   3.427  17.105   9.578 -0.1513  0.1311 -0.0356
  584loPI   C3A 9337   3.466  17.186   9.252  0.1854  0.2282  0.1030
  584loPI   C4A 9338   3.479  17.195   8.786 -0.1680 -0.0507  0.0647
  584loPI   C5A 9339   3.355  17.182   8.373 -0.0381  0.1769  0.2491
  584loPI   C6A 9340   3.512  17.175   7.971  0.0715 -0.0790  0.0093
  584loPI   C1B 9341   2.851  17.080   9.963  0.1690  0.3894  0.0496
  584loPI   C2B 9342   2.879  17.132   9.506  0.0341  0.2503  0.0341
  584loPI   C3B 9343   3.022  17.132   9.077  0.0173  0.1184  0.4990
  584loPI   C4B 9344   2.858  17.173   8.649  0.1179 -0.2652 -0.0708
  585loPI    C1 9345  18.013   7.524  10.982 -0.1504 -0.1568 -0.1048
  585loPI    C2 9346  18.190   7.603  11.331 -0.0238  0.0478 -0.2130
  585loPI    C3 9347  17.793   7.563  11.314  0.0050 -0.4288  0.0335
  585loPI   PO4 9348  18.087   7.648  10.733  0.0894 -0.0457  0.0534
  585loPI   GL1 9349  18.130   7.708  10.347  0.1412 -0.0853  0.0345
  585loPI   GL2 9350  17.993   7.982  10.209 -0.0964  0.0373  0.2000
  585loPI   C1A 9351  18.254   7.578   9.922 -0.2766  0.1502 -0.1531
  585loPI   C2A 9352  18.168   7.590   9.498 -0.1639 -0.0995 -0.0163
  585loPI   C3A 9353  18.132   7.606   9.025  0.4279  0.0418 -0.4020
  585loPI   C4A 9354  18.101   7.654   8.593  0.3166 -0.0092  0.2345
  585loPI   C5A 9355  18.175   7.460   8.269 -0.0197 -0.0015 -0.0234
  585loPI   C6A 9356  18.192   7.586   7.938 -0.1842 -0.0059  0.0189
  585loPI   C1B 9357  17.914   7.978   9.836 -0.1663  0.1303 -0.0261
  585loPI   C2B 9358  17.838   8.023   9.378 -0.0852  0.3914  0.2921
  585loPI   C3B 9359  17.811   8.019   8.961  0.0553 -0.0097 -0.3020
  585loPI   C4B 9360  17.855   8.101   8.614  0.0753 -0.0312  0.2297
  586loPI    C1 9361  17.405   3.421  11.024 -0.0626 -0.1579  0.2663
  586loPI    C2 9362  17.048   3.585  11.101 -0.1440 -0.0791 -0.2394
  586loPI    C3 9363  17.383   3.773  11.213 -0.2489  0.1716 -0.3412
  586loPI   PO4 9364  17.419   3.353  10.737  0.2630  0.1922 -0.1255
  586loPI   GL1 9365  17.458   3.243  10.375  0.0674 -0.0091  0.0256
  586loPI   GL2 9366  17.182   3.229  10.229 -0.0362  0.1329  0.0476
  586loPI   C1A 9367  17.642   3.401   9.987  0.2262  0.1071  0.1270
  586loPI   C2A 9368  17.648   3.540   9.570 -0.0475  0.1740 -0.0585
  586loPI   C3A 9369  17.680   3.552   9.185 -0.2018 -0.1277  0.3394
  586loPI   C4A 9370  17.758   3.576   8.794  0.1499  0.2543  0.1695
  586loPI   C5A 9371  17.609   3.667   8.284 -0.1179 -0.1139 -0.0799
  586loPI   C6A 9372  17.619   4.005   7.993 -0.0789  0.1446 -0.1768
  586loPI   C1B 9373  17.211   3.389   9.731 -0.0540  0.2808 -0.1264
  586loPI   C2B 9374  17.211   3.460   9.312 -0.1082  0.3031 -0.0552
  586loPI   C3B 9375  17.213   3.511   8.879 -0.4722  0.2569 -0.0141
  586loPI   C4B 9376  17.130   3.596   8.507 -0.0249  0.2661  0.2210
  587loPI    C1 9377   5.037  10.936  11.114 -0.0721  0.2121  0.0272
  587loPI    C2 9378   5.310  10.750  11.339  0.0283  0.1607 -0.1359
  587loPI    C3 9379   5.053  11.005  11.508  0.0684  0.0827  0.0450
  587loPI   PO4 9380   4.912  10.735  10.888  0.1731 -0.0082 -0.2595
  587loPI   GL1 9381   4.723  10.813  10.523  0.0176  0.4866  0.0823
  587loPI   GL2 9382   4.565  10.499  10.464 -0.0509  0.0385  0.1285
  587loPI   C1A 9383   4.852  10.958  10.140  0.0648  0.1400 -0.0070
  587loPI   C2A 9384   4.826  10.935   9.750 -0.2286 -0.0393  0.1684
  587loPI   C3A 9385   4.878  10.963   9.321  0.0668 -0.0697 -0.1547
  587loPI   C4A 9386   4.842  11.020   8.945  0.0719  0.3089  0.0935
  587loPI   C5A 9387   4.798  11.077   8.585 -0.0008 -0.2594  0.2173
  587loPI   C6A 9388   4.732  10.917   8.240  0.3428 -0.4289 -0.2277
  587loPI   C1B 9389   4.629  10.466  10.025 -0.2201  0.3822  0.2925
  587loPI   C2B 9390   4.611  10.551   9.537  0.0860  0.0370 -0.0603
  587loPI   C3B 9391   4.587  10.602   9.004  0.1760  0.1990 -0.0722
  587loPI   C4B 9392   4.603  10.609   8.593  0.0011  0.2795  0.1203
  588loPI    C1 9393  13.287   9.931  11.202  0.2077 -0.1612 -0.0842
  588loPI    C2 9394  13.525   9.673  11.394  0.0024 -0.1345  0.2141
  588loPI    C3 9395  13.250   9.880  11.597 -0.0375  0.0990 -0.0701
  588loPI   PO4 9396  13.313   9.853  10.960 -0.2231 -0.0405 -0.1071
  588loPI   GL1 9397  13.229   9.683  10.544  0.1465  0.0950 -0.2965
  588loPI   GL2 9398  13.597   9.567  10.450  0.2122  0.1182 -0.1005
  588loPI   C1A 9399  13.299   9.953  10.260  0.2881  0.0425  0.0952
  588loPI   C2A 9400  13.388  10.095   9.840  0.1333 -0.2262 -0.3405
  588loPI   C3A 9401  13.419  10.082   9.413  0.1027 -0.0319 -0.1704
  588loPI   C4A 9402  13.293  10.028   9.025 -0.1854  0.0187  0.2361
  588loPI   C5A 9403  13.287  10.050   8.617 -0.1234 -0.1128 -0.1412
  588loPI   C6A 9404  13.360  10.271   8.182  0.1709 -0.3085 -0.1710
  588loPI   C1B 9405  13.683   9.614  10.028 -0.0608 -0.0819  0.2751
  588loPI   C2B 9406  13.675   9.609   9.575 -0.2856 -0.0430  0.0411
  588loPI   C3B 9407  13.616   9.684   9.191 -0.0233  0.4040 -0.1918
  588loPI   C4B 9408  13.636   9.697   8.705 -0.0995 -0.2067 -0.0902
  589loPI    C1 9409   1.214   5.250  10.770 -0.0145  0.1386 -0.1689
  589loPI    C2 9410   1.269   5.112  11.141 -0.1905  0.0166 -0.1865
  589loPI    C3 9411   1.238   5.505  11.076 -0.0226  0.0468 -0.0913
  589loPI   PO4 9412   1.137   5.060  10.676  0.1687 -0.0327  0.1079
  589loPI   GL1 9413   1.123   5.044  10.218 -0.0305 -0.0589  0.0548
  589loPI   GL2 9414   1.421   5.207  10.246 -0.2257  0.0042  0.0963
  589loPI   C1A 9415   1.307   4.966   9.819  0.0414 -0.3286 -0.1297
  589loPI   C2A 9416   1.235   5.070   9.342  0.0663  0.0717 -0.1443
  589loPI   C3A 9417   1.246   5.050   8.855 -0.0129 -0.1791  0.3749
  589loPI   C4A 9418   1.242   5.012   8.459 -0.0498 -0.1466 -0.1836
  589loPI   C5A 9419   1.272   5.148   8.103  0.0814  0.3962 -0.2081
  589loPI   C6A 9420   1.377   5.198   7.713 -0.0913  0.1440 -0.1711
  589loPI   C1B 9421   1.467   5.450   9.822  0.0415 -0.0390 -0.1012
  589loPI   C2B 9422   1.513   5.480   9.403 -0.6007  0.0358  0.2852
  589loPI   C3B 9423   1.469   5.533   8.916  0.0763 -0.0210 -0.2200
  589loPI   C4B 9424   1.428   5.484   8.454  0.1369  0.1457  0.1858
  590loPI    C1 9425   1.592  17.167  11.161 -0.0366 -0.0480  0.4013
  590loPI    C2 9426   1.976  17.101  11.254 -0.0080 -0.3905  0.0625
  590loPI    C3 9427   1.718  16.795  11.238 -0.2046 -0.2190 -0.1081
  590loPI   PO4 9428   1.697  17.387  10.934 -0.2553  0.1457  0.2703
  590loPI   GL1 9429   1.709  17.559  10.477  0.3009  0.1822  0.1575
  590loPI   GL2 9430   1.795  17.292  10.437  0.1399 -0.0723  0.1070
  590loPI   C1A 9431   1.576  17.470  10.052  0.3631  0.2174 -0.5680
  590loPI   C2A 9432   1.595  17.547   9.621  0.0241  0.2423 -0.1232
  590loPI   C3A 9433   1.553  17.481   9.166 -0.0289 -0.1480  0.0394
  590loPI   C4A 9434   1.551  17.478   8.683  0.3306  0.0434  0.0387
  590loPI   C5A 9435   1.398  17.625   8.274  0.0967 -0.1568  0.0768
  590loPI   C6A 9436   1.038  17.823   8.083 -0.0270  0.0497  0.2638
  590loPI   C1B 9437   1.816  17.037   9.957 -0.0217  0.1042  0.1936
  590loPI   C2B 9438   1.755  17.094   9.545 -0.2325  0.2207  0.2242
  590loPI   C3B 9439   1.782  17.061   9.106 -0.1688  0.0395 -0.0328
  590loPI   C4B 9440   1.813  17.023   8.669 -0.2859  0.3610  0.0423
  591loPI    C1 9441   5.658   4.284  10.967  0.0413  0.0302  0.0706
  591loPI    C2 9442   5.848   4.492  11.251 -0.1059 -0.0450  0.2257
  591loPI    C3 9443   5.583   4.210  11.353 -0.2299 -0.0079  0.0127
  591loPI   PO4 9444   5.707   4.487  10.765  0.3437 -0.0884  0.0626
  591loPI   GL1 9445   5.700   4.537  10.373  0.3287  0.1994 -0.2054
  591loPI   GL2 9446   5.440   4.689  10.311  0.0637 -0.2302  0.2218
  591loPI   C1A 9447   6.115   4.645  10.056  0.1680 -0.1547  0.0158
  591loPI   C2A 9448   6.143   4.711   9.661 -0.2749 -0.0478 -0.2712
  591loPI   C3A 9449   6.146   4.743   9.280 -0.5467  0.0899 -0.4256
  591loPI   C4A 9450   6.169   4.736   8.770  0.1006 -0.0268 -0.1236
  591loPI   C5A 9451   6.297   4.732   8.355 -0.1542  0.0837  0.0784
  591loPI   C6A 9452   6.081   4.863   8.003 -0.1328 -0.0400  0.0610
  591loPI   C1B 9453   5.627   4.675   9.855  0.1436  0.0820 -0.2088
  591loPI   C2B 9454   5.674   4.679   9.463 -0.1787 -0.0203  0.2215
  591loPI   C3B 9455   5.667   4.729   9.067 -0.1168 -0.2432  0.2678
  591loPI   C4B 9456   5.655   4.726   8.707  0.0966 -0.1460  0.1547
  592loPI    C1 9457   8.102  11.601  11.041  0.0027  0.0337 -0.1492
  592loPI    C2 9458   8.177  11.919  11.272 -0.3487  0.1256 -0.1563
  592loPI    C3 9459   7.858  11.688  11.346 -0.0934 -0.2323 -0.1468
  592loPI   PO4 9460   8.315  11.428  10.907 -0.3993  0.1695  0.0775
  592loPI   GL1 9461   8.321  11.305  10.545 -0.0719 -0.3201 -0.0601
  592loPI   GL2 9462   7.966  11.170  10.473  0.1334  0.3599 -0.0973
  592loPI   C1A 9463   8.425  11.227  10.248  0.0790  0.2332  0.0867
  592loPI   C2A 9464   8.482  11.181   9.863  0.0058  0.1090  0.0702
  592loPI   C3A 9465   8.473  11.208   9.318 -0.0379 -0.0175 -0.1191
  592loPI   C4A 9466   8.476  11.171   8.896 -0.3549  0.1213  0.0561
  592loPI   C5A 9467   8.274  10.815   8.682  0.1936  0.1296 -0.0657
  592loPI   C6A 9468   8.134  10.802   8.255 -0.0513 -0.2390 -0.1880
  592loPI   C1B 9469   7.983  11.201   9.975 -0.1836 -0.1650  0.2049
  592loPI   C2B 9470   8.000  11.139   9.507  0.2134 -0.2361 -0.1232
  592loPI   C3B 9471   7.906  11.107   9.061 -0.1263 -0.0460  0.0868
  592loPI   C4B 9472   7.880  11.083   8.570  0.0311  0.1570 -0.1337
  593loPI    C1 9473   6.527  15.528  10.918 -0.0446  0.1685  0.1119
  593loPI    C2 9474   6.162  15.654  11.021 -0.2600 -0.3033 -0.0475
  593loPI    C3 9475   6.402  15.489  11.296 -0.2915 -0.2875 -0.0104
  593loPI   PO4 9476   6.536  15.408  10.616  0.2281 -0.2473  0.3605
  593loPI   GL1 9477   6.899  15.322  10.365 -0.0790  0.2447  0.3928
  593loPI   GL2 9478   6.871  15.006  10.455 -0.1732 -0.1194 -0.2657
  593loPI   C1A 9479   6.990  15.158   9.930 -0.1773 -0.0059  0.0654
  593loPI   C2A 9480   6.954  15.056   9.498  0.1073  0.2331 -0.2639
  593loPI   C3A 9481   6.814  15.079   9.052 -0.1005 -0.0505  0.2080
  593loPI   C4A 9482   6.932  15.016   8.572  0.1272  0.2346  0.1220
  593loPI   C5A 9483   6.888  15.303   8.235  0.0130 -0.3061 -0.1852
  593loPI   C6A 9484   6.513  15.555   8.136 -0.1555  0.0336  0.0652
  593loPI   C1B 9485   6.734  14.736  10.117 -0.0997  0.0078 -0.2151
  593loPI   C2B 9486   6.720  14.609   9.773 -0.3080 -0.0976 -0.2935
  593loPI   C3B 9487   6.695  14.665   9.330  0.0272 -0.2673 -0.1987
  593loPI   C4B 9488   6.655  14.615   8.827  0.2023  0.4511  0.0425
  594loPI    C1 9489   1.989   3.613  10.637  0.0230  0.0898 -0.1226
  594loPI    C2 9490   2.020   3.355  10.941 -0.0822 -0.1107 -0.2798
  594loPI    C3 9491   1.940   3.740  11.013  0.2107 -0.0916 -0.0349
  594loPI   PO4 9492   1.700   3.610  10.469  0.2147  0.2483 -0.2981
  594loPI   GL1 9493   1.559   3.500  10.095  0.3273 -0.0209 -0.1052
  594loPI   GL2 9494   1.206   3.495  10.071 -0.1192  0.0418  0.0539
  594loPI   C1A 9495   1.560   3.681   9.751  0.2039  0.0849  0.0016
  594loPI   C2A 9496   1.594   3.764   9.388 -0.0921 -0.0080  0.0788
  594loPI   C3A 9497   1.605   3.708   8.955 -0.2056  0.2806  0.1178
  594loPI   C4A 9498   1.674   3.594   8.527  0.1534 -0.2237  0.2869
  594loPI   C5A 9499   1.490   3.907   8.219  0.0655 -0.1588 -0.1825
  594loPI   C6A 9500   1.380   4.319   8.209 -0.0259 -0.0844  0.1538
  594loPI   C1B 9501   1.067   3.633   9.599 -0.5869  0.0595 -0.1012
  594loPI   C2B 9502   1.157   3.717   9.161  0.0390 -0.1965  0.0979
  594loPI   C3B 9503   1.110   3.672   8.727 -0.0279  0.0657  0.1183
  594loPI   C4B 9504   1.163   3.522   8.325  0.0009 -0.0678  0.0268
  595loPI    C1 9505  10.141  15.769  10.557  0.0033  0.2097  0.0482
  595loPI    C2 9506  10.119  15.616  10.926  0.1358 -0.0335 -0.0432
  595loPI    C3 9507  10.389  15.899  10.843 -0.2067  0.3639  0.1634
  595loPI   PO4 9508  10.127  15.660  10.413 -0.1968 -0.0656 -0.1122
  595loPI   GL1 9509  10.244  15.857   9.997  0.0974  0.0431  0.0712
  595loPI   GL2 9510  10.092  16.163  10.052 -0.0783 -0.4231  0.1747
  595loPI   C1A 9511  10.252  15.739   9.606  0.0750  0.1144  0.1443
  595loPI   C2A 9512  10.219  15.737   9.228  0.1257  0.0626 -0.0123
  595loPI   C3A 9513  10.115  15.727   8.756 -0.2572  0.0848  0.1547
  595loPI   C4A 9514  10.172  15.775   8.336  0.0081 -0.0889 -0.0458
  595loPI   C5A 9515  10.170  15.540   7.986  0.1255 -0.2939  0.0429
  595loPI   C6A 9516  10.328  15.162   7.588 -0.1686 -0.0446  0.0204
  595loPI   C1B 9517  10.011  16.197   9.698 -0.0390  0.1376  0.0829
  595loPI   C2B 9518   9.884  16.134   9.293 -0.1459 -0.3513 -0.0430
  595loPI   C3B 9519   9.907  16.128   8.882 -0.1261  0.0036 -0.3954
  595loPI   C4B 9520   9.948  16.251   8.478 -0.1179 -0.0086 -0.4225
  596loPI    C1 9521  16.668  14.305  11.105  0.2967 -0.1688 -0.0229
  596loPI    C2 9522  16.881  14.421  11.423  0.2523  0.0553 -0.0732
  596loPI    C3 9523  16.764  14.040  11.389  0.2485  0.0320  0.1837
  596loPI   PO4 9524  16.742  14.377  10.873 -0.0080  0.0678 -0.1110
  596loPI   GL1 9525  16.842  14.318  10.492 -0.1650 -0.0269  0.0271
  596loPI   GL2 9526  16.580  14.090  10.308 -0.2787  0.0724  0.1346
  596loPI   C1A 9527  17.032  14.224  10.062  0.1152  0.0861  0.0982
  596loPI   C2A 9528  17.015  14.205   9.697  0.1137  0.0034 -0.2857
  596loPI   C3A 9529  17.057  14.246   9.290  0.1802  0.1570 -0.1414
  596loPI   C4A 9530  16.993  14.262   8.830  0.1902 -0.0543  0.1507
  596loPI   C5A 9531  17.013  14.302   8.494  0.1600  0.0669  0.3471
  596loPI   C6A 9532  16.758  14.180   8.197  0.2037  0.4350 -0.0197
  596loPI   C1B 9533  16.560  14.208   9.952 -0.0063 -0.1381  0.1549
  596loPI   C2B 9534  16.495  14.165   9.516 -0.3651  0.2658 -0.0900
  596loPI   C3B 9535  16.436  14.242   9.078 -0.1013  0.1889 -0.0265
  596loPI   C4B 9536  16.382  14.257   8.597  0.1700  0.0521 -0.2240
  597loPI    C1 9537   2.142  17.503  10.732 -0.0491  0.0971 -0.0332
  597loPI    C2 9538   2.214  17.544  11.123 -0.2204  0.0461  0.0046
  597loPI    C3 9539   1.963  17.795  10.938 -0.1993  0.0227 -0.0562
  597loPI   PO4 9540   2.316  17.473  10.622  0.0691 -0.1687 -0.5727
  597loPI   GL1 9541   2.513  17.443  10.238  0.0241 -0.2282 -0.1429
  597loPI   GL2 9542   2.134  17.494  10.156 -0.2209 -0.3328  0.0370
  597loPI   C1A 9543   2.568  17.526   9.785  0.0053 -0.1737 -0.3176
  597loPI   C2A 9544   2.605  17.565   9.371 -0.1842 -0.0531 -0.2729
  597loPI   C3A 9545   2.671  17.607   8.917  0.0627 -0.1140 -0.0769
  597loPI   C4A 9546   2.500  17.485   8.498 -0.1335  0.1520 -0.2877
  597loPI   C5A 9547   2.272  17.250   8.106  0.3174  0.0766 -0.1010
  597loPI   C6A 9548   1.909  16.961   8.072 -0.0512  0.0079 -0.0456
  597loPI   C1B 9549   2.055  17.495   9.739  0.2882  0.1447  0.0048
  597loPI   C2B 9550   2.044  17.489   9.274 -0.0203 -0.0608 -0.1149
  597loPI   C3B 9551   2.061  17.563   8.871 -0.0252 -0.2541 -0.1007
  597loPI   C4B 9552   1.996  17.475   8.433 -0.1529  0.2256 -0.2311
  598loPI    C1 9553   7.644   7.420  11.339 -0.0174  0.0983 -0.0620
  598loPI    C2 9554   7.766   7.694  11.604 -0.0543  0.0211  0.0353
  598loPI    C3 9555   7.375   7.631  11.546 -0.0459 -0.0220  0.0246
  598loPI   PO4 9556   7.824   7.343  11.036  0.4582 -0.1514 -0.3180
  598loPI   GL1 9557   7.690   7.348  10.655 -0.0393  0.0153  0.0427
  598loPI   GL2 9558   8.054   7.418  10.407 -0.3830 -0.0998 -0.0700
  598loPI   C1A 9559   7.510   7.488  10.242 -0.0205 -0.0214  0.0006
  598loPI   C2A 9560   7.508   7.421   9.808  0.2690 -0.1112  0.0418
  598loPI   C3A 9561   7.580   7.512   9.384 -0.0391  0.3203  0.2293
  598loPI   C4A 9562   7.549   7.506   8.903  0.1810 -0.1158 -0.0350
  598loPI   C5A 9563   7.488   7.563   8.483  0.1515  0.2841  0.1223
  598loPI   C6A 9564   7.437   7.539   8.073 -0.1491  0.0428 -0.1130
  598loPI   C1B 9565   8.024   7.478   9.968 -0.2577  0.2740  0.0979
  598loPI   C2B 9566   8.015   7.442   9.586  0.0104 -0.1172  0.0605
  598loPI   C3B 9567   8.062   7.564   9.176  0.2368  0.1385 -0.0367
  598loPI   C4B 9568   8.030   7.546   8.817 -0.2645  0.2217  0.1697
  599loPI    C1 9569   4.103   5.032  11.057  0.0307  0.0447 -0.0345
  599loPI    C2 9570   4.099   5.308  11.346  0.1226  0.0532 -0.0412
  599loPI    C3 9571   4.447   5.171  11.205  0.0788 -0.2094  0.0995
  599loPI   PO4 9572   3.860   5.170  10.852 -0.1638  0.0670  0.0612
  599loPI   GL1 9573   3.833   5.339  10.463 -0.0325 -0.3207  0.2568
  599loPI   GL2 9574   3.597   5.462  10.296  0.0735 -0.0190  0.1301
  599loPI   C1A 9575   4.069   5.578  10.109  0.1047 -0.0878  0.0036
  599loPI   C2A 9576   4.079   5.607   9.721  0.3402  0.1341  0.0672
  599loPI   C3A 9577   4.011   5.650   9.325 -0.1363  0.2261 -0.0700
  599loPI   C4A 9578   4.064   5.570   8.951 -0.0454 -0.2129 -0.0745
  599loPI   C5A 9579   4.055   5.429   8.500  0.1808 -0.0662 -0.1712
  599loPI   C6A 9580   4.378   5.140   8.364 -0.1671 -0.1657 -0.2061
  599loPI   C1B 9581   3.530   5.495   9.910  0.0317 -0.0473 -0.3810
  599loPI   C2B 9582   3.491   5.589   9.566  0.0536  0.1236  0.0230
  599loPI   C3B 9583   3.537   5.642   9.188 -0.0035  0.3163  0.0528
  599loPI   C4B 9584   3.584   5.624   8.800  0.1175  0.0339  0.0435
  600loPI    C1 9585  11.866   5.429  11.185 -0.1124 -0.0341 -0.0487
  600loPI    C2 9586  12.198   5.331  11.385 -0.0558  0.0007 -0.1256
  600loPI    C3 9587  11.853   5.379  11.582 -0.0906 -0.3756 -0.0885
  600loPI   PO4 9588  11.875   5.616  10.965 -0.1396 -0.0600  0.0200
  600loPI   GL1 9589  11.547   5.678  10.558 -0.0167  0.1360 -0.0331
  600loPI   GL2 9590  11.653   5.415  10.403  0.0315  0.0502 -0.1074
  600loPI   C1A 9591  11.328   5.813  10.163  0.0076 -0.1464  0.0009
  600loPI   C2A 9592  11.248   5.964   9.712  0.1527  0.0024 -0.0736
  600loPI   C3A 9593  11.144   5.740   9.295  0.0678 -0.0869  0.0083
  600loPI   C4A 9594  11.161   5.666   8.831 -0.1970 -0.1508  0.0736
  600loPI   C5A 9595  11.338   5.793   8.398 -0.1646  0.0201 -0.0755
  600loPI   C6A 9596  11.573   6.086   8.126 -0.1146 -0.0371 -0.0897
  600loPI   C1B 9597  11.608   5.448  10.003 -0.0140 -0.2277 -0.0396
  600loPI   C2B 9598  11.594   5.548   9.535 -0.0866 -0.4631  0.0958
  600loPI   C3B 9599  11.589   5.418   9.093  0.0347 -0.1165  0.0569
  600loPI   C4B 9600  11.581   5.359   8.664 -0.0514 -0.0023 -0.0845
  601loPI    C1 9601  14.392  13.714  10.777  0.0133 -0.0376 -0.0700
  601loPI    C2 9602  14.727  13.724  10.996  0.0592  0.0988 -0.1457
  601loPI    C3 9603  14.441  13.999  11.053  0.0692  0.1321 -0.2529
  601loPI   PO4 9604  14.463  13.750  10.487 -0.2149 -0.0379  0.0335
  601loPI   GL1 9605  14.726  13.581  10.189 -0.2554 -0.2570  0.2091
  601loPI   GL2 9606  14.952  13.332  10.073  0.2245  0.0381  0.3168
  601loPI   C1A 9607  14.737  13.738   9.803 -0.1624 -0.1656 -0.0870
  601loPI   C2A 9608  14.735  13.717   9.367 -0.0580 -0.0686 -0.2694
  601loPI   C3A 9609  14.682  13.702   8.855 -0.0074  0.1173  0.0309
  601loPI   C4A 9610  14.722  13.723   8.448  0.2563 -0.0423 -0.3358
  601loPI   C5A 9611  14.565  13.826   8.045 -0.0629  0.2863  0.1567
  601loPI   C6A 9612  14.197  14.058   7.853 -0.1555 -0.3720 -0.3157
  601loPI   C1B 9613  14.992  13.326   9.659  0.0826  0.2038 -0.0977
  601loPI   C2B 9614  14.974  13.295   9.206 -0.2516  0.0082  0.0593
  601loPI   C3B 9615  14.946  13.301   8.793  0.0277  0.1436 -0.0447
  601loPI   C4B 9616  14.867  13.212   8.344  0.0636  0.1826  0.1769
  602loPI    C1 9617   7.740  13.464  11.067 -0.2796 -0.2170  0.1191
  602loPI    C2 9618   7.450  13.530  11.335 -0.0798  0.0499  0.2750
  602loPI    C3 9619   7.660  13.837  11.188 -0.0131 -0.1210  0.0058
  602loPI   PO4 9620   7.550  13.319  10.878  0.2027 -0.0935  0.0691
  602loPI   GL1 9621   7.286  13.401  10.423  0.0492  0.2266 -0.2823
  602loPI   GL2 9622   6.975  13.333  10.347 -0.1516 -0.4170  0.2959
  602loPI   C1A 9623   7.533  13.381   9.997 -0.2414 -0.1377 -0.0578
  602loPI   C2A 9624   7.516  13.277   9.575  0.1296 -0.3328 -0.1607
  602loPI   C3A 9625   7.477  13.313   9.061  0.1181 -0.1347 -0.0716
  602loPI   C4A 9626   7.516  13.236   8.590 -0.2906 -0.0596 -0.0471
  602loPI   C5A 9627   7.389  12.974   8.260  0.1709 -0.3699 -0.1568
  602loPI   C6A 9628   7.183  12.944   8.006 -0.2253 -0.3037 -0.0568
  602loPI   C1B 9629   7.029  13.329   9.870 -0.0141 -0.0498  0.0552
  602loPI   C2B 9630   7.020  13.337   9.371  0.2605  0.2026 -0.0303
  602loPI   C3B 9631   6.950  13.247   8.940  0.1371 -0.1000  0.1137
  602loPI   C4B 9632   6.875  13.350   8.521 -0.1849 -0.1297  0.4433
  603loPI    C1 9633   4.282   4.355  10.822 -0.0403  0.1412  0.0464
  603loPI    C2 9634   3.971   4.207  11.026  0.0003  0.0623  0.0516
  603loPI    C3 9635   4.209   4.481  11.194  0.0350 -0.0040  0.1112
  603loPI   PO4 9636   4.139   4.486  10.609 -0.0588  0.0709  0.0869
  603loPI   GL1 9637   4.365   4.755  10.399 -0.1167 -0.1489  0.0530
  603loPI   GL2 9638   4.249   5.104  10.532  0.0186  0.1262  0.1999
  603loPI   C1A 9639   4.521   4.689  10.071 -0.1155 -0.0703 -0.1456
  603loPI   C2A 9640   4.655   4.657   9.609  0.1283  0.1050 -0.2498
  603loPI   C3A 9641   4.599   4.655   9.184 -0.0412 -0.1507 -0.0140
  603loPI   C4A 9642   4.672   4.698   8.795  0.1953  0.0633  0.1207
  603loPI   C5A 9643   4.710   4.681   8.342 -0.3442 -0.3952  0.3251
  603loPI   C6A 9644   4.431   4.798   7.948 -0.0069 -0.4272  0.0682
  603loPI   C1B 9645   4.347   5.128  10.117  0.2395 -0.1881 -0.5429
  603loPI   C2B 9646   4.418   5.134   9.631  0.0879 -0.0874 -0.1649
  603loPI   C3B 9647   4.397   5.150   9.254 -0.1350 -0.0698 -0.1596
  603loPI   C4B 9648   4.375   5.197   8.890  0.1042 -0.1121 -0.0102
  604loPI    C1 9649   2.507  13.718  11.183  0.0167  0.0794  0.3460
  604loPI    C2 9650   2.590  13.843  11.554  0.0638  0.0081  0.3597
  604loPI    C3 9651   2.783  13.528  11.401  0.4745  0.3941  0.0567
  604loPI   PO4 9652   2.497  13.967  11.054  0.0636  0.2464  0.1667
  604loPI   GL1 9653   2.426  13.815  10.625 -0.1286  0.0020  0.2512
  604loPI   GL2 9654   2.571  13.538  10.640 -0.0333 -0.0114 -0.2922
  604loPI   C1A 9655   2.342  13.899  10.198 -0.1223 -0.0345 -0.3104
  604loPI   C2A 9656   2.283  13.911   9.767 -0.1340  0.0270  0.1732
  604loPI   C3A 9657   2.255  13.985   9.308 -0.0229  0.1475  0.0888
  604loPI   C4A 9658   2.290  13.818   8.864  0.0733  0.0285 -0.1618
  604loPI   C5A 9659   2.376  13.541   8.538  0.1363  0.0251 -0.0051
  604loPI   C6A 9660   2.703  13.187   8.297 -0.0007 -0.2631  0.2609
  604loPI   C1B 9661   2.623  13.363  10.278  0.1617 -0.2258 -0.0994
  604loPI   C2B 9662   2.663  13.458   9.892  0.4773  0.0688  0.0738
  604loPI   C3B 9663   2.530  13.514   9.533 -0.0185  0.0020 -0.1735
  604loPI   C4B 9664   2.504  13.500   9.172 -0.1054  0.0484 -0.0243
  605loPI    C1 9665   5.776   8.192  11.234  0.0017 -0.0668 -0.0801
  605loPI    C2 9666   5.659   8.570  11.178 -0.0697 -0.0582  0.1182
  605loPI    C3 9667   5.494   8.351  11.469 -0.1837 -0.3118 -0.1328
  605loPI   PO4 9668   5.741   8.023  11.003 -0.0078  0.1071  0.0111
  605loPI   GL1 9669   5.637   8.195  10.581  0.4961 -0.0301 -0.1248
  605loPI   GL2 9670   5.625   7.908  10.505 -0.1686  0.1438  0.2877
  605loPI   C1A 9671   5.468   8.294  10.255  0.0171  0.1680  0.1196
  605loPI   C2A 9672   5.442   8.303   9.842  0.0930 -0.2053 -0.3126
  605loPI   C3A 9673   5.489   8.281   9.440  0.2812 -0.0105 -0.5026
  605loPI   C4A 9674   5.460   8.292   8.969 -0.0921  0.0028 -0.4168
  605loPI   C5A 9675   5.264   8.434   8.604 -0.0364  0.2069 -0.2169
  605loPI   C6A 9676   5.262   8.698   8.259  0.1231  0.0549  0.0408
  605loPI   C1B 9677   5.733   7.828  10.082 -0.2814  0.0140 -0.1121
  605loPI   C2B 9678   5.730   7.873   9.693  0.1988 -0.2769 -0.2738
  605loPI   C3B 9679   5.760   7.892   9.262 -0.0137 -0.0621 -0.3712
  605loPI   C4B 9680   5.710   7.910   8.875  0.0309  0.2087  0.1640
  606loPI    C1 9681  15.074  15.200  10.643 -0.1482  0.1371 -0.0678
  606loPI    C2 9682  15.004  15.087  11.021 -0.0946  0.0986 -0.0693
  606loPI    C3 9683  15.376  15.177  10.905 -0.0376 -0.3172 -0.2262
  606loPI   PO4 9684  14.968  15.023  10.479  0.0699  0.0598  0.0848
  606loPI   GL1 9685  15.103  15.045  10.149  0.0494  0.1530  0.1242
  606loPI   GL2 9686  14.934  15.115   9.967 -0.1084 -0.1806 -0.0266
  606loPI   C1A 9687  15.166  14.732   9.862  0.0958  0.0467  0.2694
  606loPI   C2A 9688  15.208  14.627   9.535  0.2503 -0.3550  0.1687
  606loPI   C3A 9689  15.156  14.736   9.139  0.1260 -0.1717 -0.0421
  606loPI   C4A 9690  15.091  14.600   8.772  0.1117 -0.3431  0.0842
  606loPI   C5A 9691  15.231  14.605   8.330  0.0150  0.1067  0.2466
  606loPI   C6A 9692  15.373  14.318   7.938  0.2951 -0.2529  0.0502
  606loPI   C1B 9693  14.895  15.017   9.463  0.2190 -0.1011  0.5594
  606loPI   C2B 9694  14.900  15.148   8.974  0.0439 -0.2168  0.0956
  606loPI   C3B 9695  14.797  15.112   8.544 -0.1829  0.1755  0.1072
  606loPI   C4B 9696  14.909  15.031   8.189 -0.1188 -0.0513 -0.2054
  607loPI    C1 9697  10.239  16.502  10.589  0.1539  0.0075  0.1626
  607loPI    C2 9698  10.284  16.396  10.972 -0.2232  0.0171  0.2127
  607loPI    C3 9699  10.331  16.778  10.864  0.1571 -0.0300  0.1992
  607loPI   PO4 9700  10.367  16.283  10.452  0.0336  0.1983  0.0775
  607loPI   GL1 9701  10.704  16.328  10.086  0.0738  0.2115  0.2241
  607loPI   GL2 9702  11.030  16.324   9.899  0.2652  0.3849 -0.0012
  607loPI   C1A 9703  10.498  16.209   9.757 -0.0231 -0.0271  0.1466
  607loPI   C2A 9704  10.447  16.130   9.340 -0.1265  0.1228  0.7175
  607loPI   C3A 9705  10.385  16.128   8.808 -0.0772 -0.2407 -0.0203
  607loPI   C4A 9706  10.429  16.227   8.343 -0.4352  0.2640 -0.2191
  607loPI   C5A 9707  10.283  16.041   7.892  0.1159  0.0783  0.0180
  607loPI   C6A 9708  10.346  16.184   7.547 -0.1220 -0.1594 -0.3889
  607loPI   C1B 9709  10.905  16.242   9.484  0.0635 -0.2360  0.1057
  607loPI   C2B 9710  10.888  16.135   8.989 -0.0538  0.1500 -0.3548
  607loPI   C3B 9711  10.916  16.254   8.582  0.0569  0.2525  0.0313
  607loPI   C4B 9712  10.924  16.162   8.215  0.0228 -0.1076 -0.0863
  608loPI    C1 9713   4.871   5.817  10.878 -0.0020 -0.1626 -0.0647
  608loPI    C2 9714   4.583   5.682  11.121 -0.0299  0.0029 -0.0045
  608loPI    C3 9715   4.846   5.953  11.253  0.0117  0.0248 -0.1307
  608loPI   PO4 9716   4.763   5.951  10.660  0.1979 -0.0686 -0.1955
  608loPI   GL1 9717   4.902   5.980  10.256 -0.0517 -0.0154 -0.0428
  608loPI   GL2 9718   5.265   5.936  10.148 -0.0137  0.1093  0.3125
  608loPI   C1A 9719   4.760   6.018   9.805  0.2133 -0.0864  0.1335
  608loPI   C2A 9720   4.899   6.048   9.342 -0.1825  0.2883 -0.1267
  608loPI   C3A 9721   4.826   6.050   8.952 -0.0979 -0.2811  0.0286
  608loPI   C4A 9722   4.933   6.093   8.514 -0.2669 -0.3266 -0.4015
  608loPI   C5A 9723   5.343   5.887   8.290 -0.1858  0.2602 -0.3190
  608loPI   C6A 9724   5.829   6.000   8.208 -0.0444  0.0829 -0.3498
  608loPI   C1B 9725   5.354   6.051   9.733  0.0202 -0.2183  0.1240
  608loPI   C2B 9726   5.370   6.082   9.310 -0.4439 -0.0902 -0.0478
  608loPI   C3B 9727   5.309   6.075   8.857 -0.0176 -0.1163  0.0934
  608loPI   C4B 9728   5.387   6.382   8.418  0.3500 -0.1187  0.1806
  609loPI    C1 9729  14.228  10.012  11.056  0.3561 -0.1112 -0.0586
  609loPI    C2 9730  14.059   9.767  11.324 -0.0091  0.0708 -0.1160
  609loPI    C3 9731  14.457   9.802  11.308  0.0216  0.0061  0.3563
  609loPI   PO4 9732  14.143  10.066  10.849  0.0567  0.0937  0.4751
  609loPI   GL1 9733  14.057   9.852  10.459 -0.1898  0.2304  0.3108
  609loPI   GL2 9734  14.207   9.592  10.279  0.0297  0.1351 -0.1593
  609loPI   C1A 9735  13.796  10.113  10.255 -0.1365  0.1499  0.2446
  609loPI   C2A 9736  13.894  10.080   9.769  0.3257 -0.0241 -0.1605
  609loPI   C3A 9737  13.956  10.076   9.382  0.0541 -0.2228  0.1367
  609loPI   C4A 9738  13.915  10.103   8.959  0.2626  0.0471 -0.1685
  609loPI   C5A 9739  13.857  10.139   8.542 -0.3167  0.0603  0.1999
  609loPI   C6A 9740  13.673   9.910   8.098 -0.0267 -0.0911  0.0450
  609loPI   C1B 9741  14.138   9.655   9.822 -0.2182 -0.1292 -0.0078
  609loPI   C2B 9742  14.257   9.646   9.397  0.0065 -0.0499  0.1747
  609loPI   C3B 9743  14.141   9.661   8.881  0.2075  0.1392 -0.0175
  609loPI   C4B 9744  14.038   9.725   8.368  0.1517  0.1395  0.1637
  610loPI    C1 9745  14.070   6.926  11.115 -0.0208 -0.0300  0.1007
  610loPI    C2 9746  14.022   6.628  11.377  0.0040 -0.1453 -0.0245
  610loPI    C3 9747  14.361   6.840  11.376 -0.0326 -0.0849  0.0957
  610loPI   PO4 9748  14.052   6.851  10.896 -0.6664 -0.1831  0.0012
  610loPI   GL1 9749  14.226   6.814  10.466  0.2808 -0.3491  0.0221
  610loPI   GL2 9750  14.420   6.560  10.520 -0.2264 -0.3914 -0.0668
  610loPI   C1A 9751  14.381   6.982  10.042 -0.0006 -0.2784  0.0300
  610loPI   C2A 9752  14.349   6.979   9.516 -0.0248  0.0983 -0.0203
  610loPI   C3A 9753  14.329   7.087   9.106  0.0896  0.2092 -0.4224
  610loPI   C4A 9754  14.325   7.077   8.692  0.1094  0.2398 -0.0920
  610loPI   C5A 9755  14.372   6.930   8.334 -0.0725 -0.0976  0.2378
  610loPI   C6A 9756  14.686   6.679   8.054  0.0768  0.1198  0.0689
  610loPI   C1B 9757  14.523   6.508  10.135 -0.0828 -0.1451  0.1733
  610loPI   C2B 9758  14.614   6.535   9.658 -0.0701  0.2175  0.2044
  610loPI   C3B 9759  14.597   6.565   9.190  0.1629 -0.1741  0.1873
  610loPI   C4B 9760  14.540   6.577   8.691  0.0541 -0.0878  0.1463
  611loPI    C1 9761  14.879   2.477  10.526  0.0003  0.1147 -0.0682
  611loPI    C2 9762  14.988   2.464  10.910  0.1929  0.1391 -0.1211
  611loPI    C3 9763  15.127   2.190  10.654 -0.0883  0.0070 -0.1355
  611loPI   PO4 9764  14.877   2.728  10.438 -0.1292  0.1207  0.0388
  611loPI   GL1 9765  14.856   2.814  10.126  0.0298 -0.1583  0.0004
  611loPI   GL2 9766  14.654   2.485   9.985  0.0302 -0.1120 -0.2008
  611loPI   C1A 9767  14.841   2.970   9.693 -0.0486  0.2914 -0.2120
  611loPI   C2A 9768  14.884   2.969   9.206 -0.0048  0.1625  0.0611
  611loPI   C3A 9769  14.785   2.919   8.818  0.1032 -0.3865  0.0349
  611loPI   C4A 9770  14.823   2.858   8.394  0.0425  0.1993 -0.1638
  611loPI   C5A 9771  14.834   2.966   7.959 -0.2164 -0.2287  0.1282
  611loPI   C6A 9772  14.680   3.286   7.674 -0.1983 -0.2636 -0.1498
  611loPI   C1B 9773  14.585   2.496   9.593  0.0697 -0.0481  0.0284
  611loPI   C2B 9774  14.645   2.438   9.137  0.0148  0.0487 -0.0294
  611loPI   C3B 9775  14.628   2.470   8.636 -0.0233 -0.2857 -0.2205
  611loPI   C4B 9776  14.731   2.377   8.149  0.0154  0.2716 -0.1496
  612loPI    C1 9777   4.123   8.278  11.183  0.2422 -0.0437 -0.0480
  612loPI    C2 9778   4.397   8.114  11.424  0.0645 -0.0530  0.1499
  612loPI    C3 9779   4.089   8.316  11.580  0.0579  0.1154 -0.0779
  612loPI   PO4 9780   4.246   8.230  10.890 -0.2487 -0.0792 -0.3141
  612loPI   GL1 9781   4.150   7.947  10.635  0.2163 -0.2541 -0.0831
  612loPI   GL2 9782   4.049   8.209  10.412  0.2747  0.2506  0.0312
  612loPI   C1A 9783   4.220   7.795  10.247  0.3580  0.1630  0.1127
  612loPI   C2A 9784   4.230   7.824   9.831 -0.1004 -0.0283  0.0876
  612loPI   C3A 9785   4.259   7.830   9.454 -0.0077  0.1940  0.1557
  612loPI   C4A 9786   4.126   7.862   9.028  0.4099  0.0582  0.2695
  612loPI   C5A 9787   4.071   7.893   8.543  0.2439  0.2758  0.0523
  612loPI   C6A 9788   4.255   8.241   8.233  0.1378  0.1718 -0.1587
  612loPI   C1B 9789   3.986   8.228   9.955 -0.2716 -0.0391 -0.0363
  612loPI   C2B 9790   3.952   8.217   9.514  0.1067 -0.0643 -0.0261
  612loPI   C3B 9791   3.896   8.285   9.130 -0.1289  0.1552  0.0062
  612loPI   C4B 9792   3.897   8.422   8.672 -0.1637  0.1029 -0.1144
  613loPI    C1 9793  12.955   2.979  10.267 -0.1935  0.3051 -0.0373
  613loPI    C2 9794  12.701   3.033  10.572 -0.0819  0.2123  0.0732
  613loPI    C3 9795  13.058   2.865  10.637 -0.1609 -0.0501 -0.1523
  613loPI   PO4 9796  12.917   2.818  10.106 -0.2662  0.1039  0.0265
  613loPI   GL1 9797  12.887   2.923   9.710  0.1060  0.2412  0.0269
  613loPI   GL2 9798  13.284   2.928   9.751 -0.2239 -0.2581 -0.1771
  613loPI   C1A 9799  12.774   2.867   9.371 -0.0370  0.0787  0.0891
  613loPI   C2A 9800  12.712   2.911   8.934  0.0484 -0.3443  0.6452
  613loPI   C3A 9801  12.596   2.870   8.509 -0.1876  0.0461 -0.0289
  613loPI   C4A 9802  12.669   2.815   8.167  0.2490  0.0050 -0.2620
  613loPI   C5A 9803  12.705   2.610   7.723 -0.0477 -0.1229  0.0003
  613loPI   C6A 9804  13.025   2.675   7.420  0.1648 -0.2344 -0.0035
  613loPI   C1B 9805  13.297   2.927   9.257 -0.0122 -0.2156 -0.2014
  613loPI   C2B 9806  13.220   2.854   8.896 -0.2799 -0.0995 -0.1162
  613loPI   C3B 9807  13.125   2.819   8.399  0.0785 -0.0254  0.3582
  613loPI   C4B 9808  13.129   2.737   7.972  0.2345  0.0291  0.5067
  614loPI    C1 9809   1.632  13.667  11.155  0.1019  0.0180  0.0107
  614loPI    C2 9810   1.814  13.401  11.392  0.0693 -0.0450 -0.0346
  614loPI    C3 9811   1.549  13.658  11.546  0.2101  0.0599  0.0349
  614loPI   PO4 9812   1.543  13.536  10.957 -0.2220  0.0527  0.2577
  614loPI   GL1 9813   1.221  13.299  10.695  0.0687 -0.0575  0.2579
  614loPI   GL2 9814   1.263  13.036  10.538  0.0928 -0.0127 -0.1363
  614loPI   C1A 9815   1.561  13.366  10.332 -0.2145  0.0290 -0.0866
  614loPI   C2A 9816   1.590  13.535   9.881  0.1156  0.0805 -0.2037
  614loPI   C3A 9817   1.468  13.516   9.441  0.0590 -0.2092  0.2867
  614loPI   C4A 9818   1.459  13.451   9.059 -0.1839  0.0609  0.0316
  614loPI   C5A 9819   1.449  13.437   8.597  0.0775 -0.1160  0.3588
  614loPI   C6A 9820   1.705  13.485   8.174 -0.3313  0.1637  0.0285
  614loPI   C1B 9821   1.300  12.972  10.106  0.3032  0.0418  0.4064
  614loPI   C2B 9822   1.241  13.000   9.669 -0.2075 -0.5009 -0.0859
  614loPI   C3B 9823   1.268  13.027   9.262 -0.1045 -0.1914  0.0163
  614loPI   C4B 9824   1.284  13.023   8.811  0.2306  0.2723  0.1828
  615loPI    C1 9825  15.090  14.364  10.775  0.1835  0.2977  0.1743
  615loPI    C2 9826  14.806  14.645  10.794 -0.2104 -0.0755 -0.0238
  615loPI    C3 9827  14.823  14.359  11.073  0.0030 -0.0285  0.0127
  615loPI   PO4 9828  15.074  14.245  10.622  0.1812  0.2418  0.1273
  615loPI   GL1 9829  15.125  14.084  10.233  0.0799 -0.0531 -0.0374
  615loPI   GL2 9830  15.306  14.280  10.124 -0.1606 -0.1163  0.3119
  615loPI   C1A 9831  14.991  14.201   9.781 -0.0965  0.0879  0.2850
  615loPI   C2A 9832  14.932  14.226   9.291  0.2339 -0.0613 -0.0355
  615loPI   C3A 9833  14.882  14.149   8.891  0.3693 -0.2001  0.1635
  615loPI   C4A 9834  14.941  14.151   8.525 -0.1151 -0.1232  0.2082
  615loPI   C5A 9835  14.870  14.209   8.101 -0.0015 -0.1722  0.3436
  615loPI   C6A 9836  14.851  14.545   7.929 -0.1118  0.0434 -0.1931
  615loPI   C1B 9837  15.482  14.218   9.770 -0.1184  0.0497  0.0671
  615loPI   C2B 9838  15.462  14.175   9.378 -0.2038 -0.2103  0.1004
  615loPI   C3B 9839  15.361  14.220   8.957 -0.2694  0.1302  0.0899
  615loPI   C4B 9840  15.425  14.196   8.496  0.4199 -0.0393  0.0923
  616loPI    C1 9841   9.576   9.228  10.912  0.1137 -0.0270  0.0401
  616loPI    C2 9842   9.799   9.109  11.221  0.0827  0.0323  0.0854
  616loPI    C3 9843   9.499   9.366  11.279  0.1047  0.0775 -0.0009
  616loPI   PO4 9844   9.805   9.177  10.703  0.2420  0.0513  0.0586
  616loPI   GL1 9845   9.757   9.467  10.261 -0.1781  0.2692 -0.3418
  616loPI   GL2 9846  10.069   9.441  10.280 -0.3272  0.2630 -0.1975
  616loPI   C1A 9847   9.571   9.342   9.886  0.0637 -0.2592 -0.1976
  616loPI   C2A 9848   9.520   9.403   9.481  0.1092  0.1753  0.0683
  616loPI   C3A 9849   9.578   9.442   9.103 -0.0732  0.0538  0.2061
  616loPI   C4A 9850   9.517   9.440   8.685 -0.0405 -0.4100 -0.0539
  616loPI   C5A 9851   9.449   9.480   8.211 -0.2237 -0.3308  0.2288
  616loPI   C6A 9852   9.645   9.557   7.721  0.0796  0.1286 -0.0412
  616loPI   C1B 9853  10.140   9.381   9.874  0.0842 -0.2473 -0.1012
  616loPI   C2B 9854  10.018   9.434   9.420 -0.0013  0.0761  0.1538
  616loPI   C3B 9855  10.051   9.417   8.953  0.1628  0.0264 -0.2096
  616loPI   C4B 9856  10.020   9.437   8.558 -0.3105  0.1525 -0.1723
  617loPI    C1 9857  16.344   9.259  10.744 -0.0679  0.3043 -0.0193
  617loPI    C2 9858  16.067   9.185  11.023 -0.3043 -0.0832 -0.3440
  617loPI    C3 9859  16.412   8.983  11.026 -0.1901  0.1100 -0.1765
  617loPI   PO4 9860  16.284   9.235  10.553  0.1177  0.1226 -0.0862
  617loPI   GL1 9861  16.026   9.524  10.321 -0.2524  0.1519  0.0532
  617loPI   GL2 9862  16.260   9.615  10.214 -0.0413  0.1283 -0.3884
  617loPI   C1A 9863  15.922   9.316   9.984 -0.4550  0.0828  0.0975
  617loPI   C2A 9864  15.971   9.174   9.607  0.1535 -0.2573 -0.0920
  617loPI   C3A 9865  15.984   9.331   9.235  0.2095 -0.3010  0.1026
  617loPI   C4A 9866  15.987   9.303   8.827  0.1977 -0.1946 -0.1844
  617loPI   C5A 9867  15.815   9.283   8.372 -0.0180 -0.2878  0.2034
  617loPI   C6A 9868  15.674   9.332   7.910 -0.0381  0.1961  0.0321
  617loPI   C1B 9869  16.146   9.706   9.733  0.0560 -0.0873  0.0619
  617loPI   C2B 9870  16.248   9.752   9.363  0.0959  0.0073  0.0688
  617loPI   C3B 9871  16.273   9.700   8.957 -0.0066 -0.1936  0.0400
  617loPI   C4B 9872  16.186   9.773   8.475 -0.0508 -0.2849 -0.1176
  618loPI    C1 9873   8.909  14.543  11.049 -0.0203 -0.3966 -0.2873
  618loPI    C2 9874   8.804  14.241  11.289 -0.0771 -0.2077 -0.0711
  618loPI    C3 9875   9.166  14.407  11.323 -0.1523 -0.0586  0.0119
  618loPI   PO4 9876   8.712  14.553  10.881 -0.2478  0.0023  0.1569
  618loPI   GL1 9877   8.793  14.527  10.483 -0.0291 -0.1210  0.1516
  618loPI   GL2 9878   8.559  14.460  10.390 -0.2057 -0.1045  0.1033
  618loPI   C1A 9879   9.031  14.412  10.073  0.0040  0.2735 -0.1825
  618loPI   C2A 9880   8.952  14.323   9.586  0.1474  0.1080  0.0827
  618loPI   C3A 9881   8.979  14.337   9.116  0.1665 -0.3178 -0.1268
  618loPI   C4A 9882   9.021  14.293   8.798  0.4442 -0.0999  0.0913
  618loPI   C5A 9883   8.965  14.303   8.421  0.0954  0.0470 -0.1726
  618loPI   C6A 9884   8.608  14.333   8.174 -0.1342  0.1194 -0.0539
  618loPI   C1B 9885   8.471  14.412   9.873  0.0474  0.1095  0.0765
  618loPI   C2B 9886   8.513  14.233   9.450  0.3855  0.3238 -0.0637
  618loPI   C3B 9887   8.447  14.300   9.004 -0.0794 -0.1632  0.2036
  618loPI   C4B 9888   8.460  14.178   8.638  0.0571  0.2146  0.0317
  619loPI    C1 9889   6.004   2.276  10.582 -0.0676  0.0461  0.2411
  619loPI    C2 9890   5.936   2.654  10.696 -0.1777  0.1056 -0.0136
  619loPI    C3 9891   6.182   2.421  10.910 -0.1496  0.3042  0.1740
  619loPI   PO4 9892   6.133   2.329  10.357 -0.0205  0.0439  0.2273
  619loPI   GL1 9893   6.185   2.349   9.963  0.1192  0.1431  0.0458
  619loPI   GL2 9894   6.324   2.035   9.907  0.1569 -0.1744 -0.0898
  619loPI   C1A 9895   6.101   2.429   9.567  0.2259 -0.2716  0.3180
  619loPI   C2A 9896   6.213   2.610   9.181  0.0726 -0.1488 -0.2491
  619loPI   C3A 9897   6.012   2.401   8.805 -0.2356  0.3930 -0.0121
  619loPI   C4A 9898   6.006   2.578   8.297 -0.1368 -0.2519 -0.1855
  619loPI   C5A 9899   6.268   2.563   7.791  0.0794  0.3804 -0.1824
  619loPI   C6A 9900   6.432   2.663   7.394 -0.1087  0.0550  0.1739
  619loPI   C1B 9901   6.330   1.982   9.502 -0.1842  0.2061 -0.2471
  619loPI   C2B 9902   6.397   1.957   9.050 -0.1282  0.0915 -0.0860
  619loPI   C3B 9903   6.248   1.935   8.583  0.0359  0.0702 -0.1304
  619loPI   C4B 9904   6.290   2.172   8.176  0.2625 -0.0751 -0.0709
  620loPI    C1 9905   1.922   1.350  10.839  0.0069 -0.0082  0.1402
  620loPI    C2 9906   1.784   1.123  11.137 -0.0862 -0.0585  0.0595
  620loPI    C3 9907   1.696   1.512  11.126 -0.1670 -0.0772  0.0437
  620loPI   PO4 9908   1.960   1.126  10.632  0.2920 -0.1276  0.2667
  620loPI   GL1 9909   1.916   1.088  10.214  0.2476 -0.0002  0.1911
  620loPI   GL2 9910   1.596   1.096  10.218 -0.2599  0.2694  0.0246
  620loPI   C1A 9911   1.995   1.182   9.870 -0.2682 -0.2640 -0.0075
  620loPI   C2A 9912   2.015   1.183   9.440  0.1811  0.1781 -0.2008
  620loPI   C3A 9913   1.966   1.259   9.010  0.0796  0.2638 -0.3858
  620loPI   C4A 9914   2.007   1.241   8.572  0.2168 -0.2205  0.1144
  620loPI   C5A 9915   1.846   1.013   8.243 -0.2409  0.2132 -0.2172
  620loPI   C6A 9916   1.468   0.951   8.119  0.2493  0.2318 -0.1547
  620loPI   C1B 9917   1.504   1.286   9.816 -0.0097 -0.0385 -0.1362
  620loPI   C2B 9918   1.486   1.216   9.483  0.1073 -0.0859 -0.1135
  620loPI   C3B 9919   1.453   1.204   9.067  0.1808  0.0033  0.1641
  620loPI   C4B 9920   1.469   1.198   8.753 -0.0781  0.0561  0.0697
  621loPI    C1 9921   0.634  14.068  11.079  0.0084 -0.1455 -0.0430
  621loPI    C2 9922   0.390  13.758  11.012 -0.1420 -0.0452  0.0372
  621loPI    C3 9923   0.486  13.859  11.387  0.0285 -0.0881  0.0058
  621loPI   PO4 9924   0.808  14.110  10.890 -0.1962  0.0842  0.1854
  621loPI   GL1 9925   0.802  14.515  10.568  0.0695  0.0435  0.2050
  621loPI   GL2 9926   0.985  14.262  10.423  0.0504  0.2008  0.3305
  621loPI   C1A 9927   0.720  14.792  10.142 -0.1440 -0.3170  0.1888
  621loPI   C2A 9928   0.727  14.760   9.735  0.1069  0.3389  0.3015
  621loPI   C3A 9929   0.677  14.858   9.328  0.3203 -0.1277  0.1016
  621loPI   C4A 9930   0.670  14.799   8.873 -0.0389  0.2623 -0.1159
  621loPI   C5A 9931   0.685  14.745   8.352 -0.3232 -0.2296  0.0782
  621loPI   C6A 9932   0.683  14.544   8.010 -0.3316  0.0906  0.3624
  621loPI   C1B 9933   0.996  14.417   9.942 -0.0126  0.0770  0.0678
  621loPI   C2B 9934   1.011  14.430   9.480 -0.0051  0.0743 -0.3461
  621loPI   C3B 9935   0.925  14.380   9.048 -0.1656 -0.0429 -0.0329
  621loPI   C4B 9936   0.942  14.349   8.640  0.0604  0.2562  0.1076
  622loPI    C1 9937  10.150   7.883  10.980  0.0954  0.3269 -0.0430
  622loPI    C2 9938   9.845   7.775  11.215  0.2791  0.0194  0.0608
  622loPI    C3 9939   9.890   8.158  11.109 -0.2767  0.0348 -0.1525
  622loPI   PO4 9940  10.119   7.797  10.781 -0.0867  0.0321 -0.0809
  622loPI   GL1 9941  10.154   7.520  10.507 -0.1057 -0.1943  0.1213
  622loPI   GL2 9942  10.312   7.211  10.542  0.2441  0.0786  0.1668
  622loPI   C1A 9943  10.077   7.631  10.157  0.0266  0.0090  0.2374
  622loPI   C2A 9944  10.165   7.639   9.739  0.2143  0.0659 -0.0951
  622loPI   C3A 9945  10.132   7.672   9.256  0.1855 -0.0428  0.3191
  622loPI   C4A 9946  10.104   7.613   8.776  0.0974 -0.0354 -0.1473
  622loPI   C5A 9947  10.060   7.768   8.385  0.0841 -0.2279  0.0687
  622loPI   C6A 9948   9.924   8.116   8.205  0.0010  0.0325 -0.0905
  622loPI   C1B 9949  10.458   7.284  10.203 -0.1719 -0.0619 -0.0711
  622loPI   C2B 9950  10.499   7.236   9.771  0.2377 -0.0216  0.3032
  622loPI   C3B 9951  10.427   7.233   9.339 -0.1270  0.1819  0.1530
  622loPI   C4B 9952  10.377   7.262   8.887  0.0754 -0.0278 -0.0842
  623loPI    C1 9953  10.635  15.455  10.662  0.1989 -0.1450  0.0049
  623loPI    C2 9954  10.884  15.342  10.370  0.3067  0.0527  0.0183
  623loPI    C3 9955  10.981  15.278  10.753  0.3266  0.1083  0.0227
  623loPI   PO4 9956  10.383  15.261  10.595  0.0103 -0.0647  0.2265
  623loPI   GL1 9957  10.107  15.170  10.231 -0.2835 -0.3090  0.1649
  623loPI   GL2 9958  10.391  15.375  10.143  0.0851 -0.1543 -0.0019
  623loPI   C1A 9959  10.002  15.345   9.832  0.2290  0.1693  0.0701
  623loPI   C2A 9960   9.966  15.247   9.326  0.0188 -0.2757  0.0386
  623loPI   C3A 9961   9.884  15.293   8.842 -0.2911  0.0528 -0.0415
  623loPI   C4A 9962   9.930  15.343   8.421 -0.0181 -0.0262 -0.2470
  623loPI   C5A 9963   9.722  15.612   8.130  0.0282  0.1297  0.1425
  623loPI   C6A 9964   9.692  15.969   8.059 -0.0558  0.1502  0.3040
  623loPI   C1B 9965  10.545  15.288   9.780 -0.0960 -0.3341  0.1786
  623loPI   C2B 9966  10.499  15.311   9.341  0.0001  0.0820  0.1823
  623loPI   C3B 9967  10.353  15.321   8.960 -0.2725 -0.2810  0.0435
  623loPI   C4B 9968  10.415  15.312   8.550 -0.1501  0.0797  0.0578
  624loPI    C1 9969  12.230   9.826  11.316  0.0142  0.0181 -0.0236
  624loPI    C2 9970  11.942   9.784  11.590 -0.0067  0.3822  0.0145
  624loPI    C3 9971  12.314   9.878  11.703  0.1327 -0.0860 -0.0345
  624loPI   PO4 9972  12.079   9.965  11.119  0.0843  0.2418 -0.0177
  624loPI   GL1 9973  11.984   9.889  10.628  0.2430 -0.0598  0.2921
  624loPI   GL2 9974  11.888  10.153  10.429 -0.0800 -0.5834 -0.0622
  624loPI   C1A 9975  12.123   9.727  10.233 -0.3386  0.0766 -0.0894
  624loPI   C2A 9976  12.124   9.615   9.814 -0.0173  0.0892 -0.3898
  624loPI   C3A 9977  12.031   9.459   9.401  0.0476 -0.0972 -0.4642
  624loPI   C4A 9978  11.950   9.349   8.997  0.0533 -0.2294  0.1765
  624loPI   C5A 9979  12.197   9.529   8.591  0.2013 -0.2227 -0.0471
  624loPI   C6A 9980  12.221   9.589   8.106  0.0395 -0.0560  0.2624
  624loPI   C1B 9981  11.825  10.079  10.003  0.2657 -0.0196 -0.3576
  624loPI   C2B 9982  11.799   9.914   9.507  0.1879 -0.0366 -0.1095
  624loPI   C3B 9983  11.820   9.815   9.053 -0.1097 -0.3476 -0.0330
  624loPI   C4B 9984  11.842   9.932   8.667  0.0209  0.1497 -0.2494
  625loPI    C1 9985   8.505   2.234  10.801  0.0882 -0.1520  0.1232
  625loPI    C2 9986   8.719   2.563  10.879  0.1015 -0.1654  0.1430
  625loPI    C3 9987   8.806   2.219  11.064  0.1338 -0.1973  0.0686
  625loPI   PO4 9988   8.336   2.289  10.610 -0.0850  0.2446 -0.0099
  625loPI   GL1 9989   8.185   2.097  10.266 -0.1964  0.1504 -0.0375
  625loPI   GL2 9990   7.892   2.008  10.396 -0.1101 -0.0069  0.0879
  625loPI   C1A 9991   8.470   2.141   9.962  0.2470  0.0977  0.2102
  625loPI   C2A 9992   8.460   2.103   9.608  0.0164  0.2209 -0.2437
  625loPI   C3A 9993   8.388   2.158   9.226  0.0378  0.0047 -0.1932
  625loPI   C4A 9994   8.296   2.143   8.788 -0.3486 -0.0747  0.0062
  625loPI   C5A 9995   8.466   2.052   8.458  0.4088  0.0936 -0.0951
  625loPI   C6A 9996   8.638   1.833   8.185 -0.0878  0.1203  0.1929
  625loPI   C1B 9997   7.866   1.981   9.952 -0.1932  0.0723 -0.1565
  625loPI   C2B 9998   7.982   2.000   9.509  0.1485  0.0738  0.2414
  625loPI   C3B 9999   7.882   2.104   9.017  0.0571 -0.4386  0.0525
  625loPI   C4B10000   7.860   2.084   8.555 -0.0361 -0.1258 -0.0304
  626loPI    C110001   5.516  17.813  10.900  0.2493  0.1043 -0.0093
  626loPI    C210002   5.476  17.593  10.568  0.1016  0.0524  0.0419
  626loPI    C310003   5.608  17.424  10.906 -0.0248  0.0389  0.0849
  626loPI   PO410004   5.657  18.013  10.825  0.0390 -0.2034  0.2244
  626loPI   GL110005   5.700  18.039  10.426 -0.0967  0.0020 -0.2942
  626loPI   GL210006   5.555  18.199  10.160 -0.0449  0.1383 -0.2572
  626loPI   C1A10007   5.686  17.646  10.116  0.3444 -0.2603 -0.0256
  626loPI   C2A10008   5.624  17.683   9.635  0.0098  0.2004  0.1312
  626loPI   C3A10009   5.729  17.677   9.162 -0.0339  0.0391 -0.1166
  626loPI   C4A10010   5.633  17.826   8.774  0.2340  0.0510  0.0550
  626loPI   C5A10011   5.629  17.754   8.330 -0.0210 -0.2299 -0.0011
  626loPI   C6A10012   5.565  18.059   7.994 -0.2768 -0.0514 -0.2334
  626loPI   C1B10013   5.363  18.094   9.700  0.0764  0.1685 -0.0305
  626loPI   C2B10014   5.394  18.130   9.214  0.0206  0.0292 -0.1147
  626loPI   C3B10015   5.391  18.244   8.789  0.2381  0.0784 -0.2053
  626loPI   C4B10016   5.313  18.254   8.386  0.1500  0.2328  0.2502
  627loPI    C110017   9.438   6.847  10.829  0.0234  0.0640  0.0562
  627loPI    C210018   9.466   7.049  11.173 -0.0631 -0.0725  0.1445
  627loPI    C310019   9.332   6.672  11.173 -0.2170 -0.0196 -0.0577
  627loPI   PO410020   9.315   6.961  10.625 -0.0538  0.0546 -0.1242
  627loPI   GL110021   9.356   7.331  10.426  0.1070 -0.2341 -0.0228
  627loPI   GL210022   9.601   7.560  10.338 -0.0577  0.2648  0.1509
  627loPI   C1A10023   9.312   7.246  10.053  0.2439  0.0442 -0.1434
  627loPI   C2A10024   9.357   7.201   9.576  0.1395 -0.1555 -0.1236
  627loPI   C3A10025   9.412   7.098   9.189 -0.0381  0.2556 -0.1871
  627loPI   C4A10026   9.272   7.174   8.794  0.0386  0.0135 -0.1278
  627loPI   C5A10027   9.298   6.980   8.435  0.0873  0.0396 -0.2097
  627loPI   C6A10028   9.524   6.575   8.238 -0.1169 -0.1577  0.0406
  627loPI   C1B10029   9.649   7.545   9.865  0.0775  0.2178 -0.0055
  627loPI   C2B10030   9.656   7.623   9.414 -0.1539 -0.3623 -0.0341
  627loPI   C3B10031   9.570   7.604   8.996  0.2094  0.1954  0.2142
  627loPI   C4B10032   9.579   7.535   8.600 -0.1850  0.3342  0.1315
  628loPI    C110033   2.397   6.667  10.864 -0.0857 -0.0329 -0.0654
  628loPI    C210034   2.123   6.786  11.130 -0.1834 -0.0453 -0.1596
  628loPI    C310035   2.196   6.396  11.079  0.1605 -0.0305  0.1733
  628loPI   PO410036   2.336   6.754  10.672  0.2586 -0.1589  0.1869
  628loPI   GL110037   2.251   6.846  10.287 -0.0465 -0.0844 -0.3179
  628loPI   GL210038   2.631   6.868  10.250 -0.0125 -0.0091 -0.2143
  628loPI   C1A10039   2.191   6.856   9.873  0.2299  0.1604  0.0687
  628loPI   C2A10040   2.159   6.817   9.399 -0.2750 -0.0473  0.0535
  628loPI   C3A10041   2.110   6.856   8.978 -0.2895 -0.3800  0.0025
  628loPI   C4A10042   2.147   6.884   8.534  0.0484 -0.0654 -0.3020
  628loPI   C5A10043   2.278   6.622   8.244  0.1287  0.0149  0.0089
  628loPI   C6A10044   2.548   6.324   8.208 -0.3372 -0.1169  0.0238
  628loPI   C1B10045   2.714   6.858   9.853 -0.0762  0.1913 -0.2399
  628loPI   C2B10046   2.714   6.884   9.352 -0.0876  0.1655 -0.1398
  628loPI   C3B10047   2.739   6.892   8.804  0.1131 -0.0612 -0.4728
  628loPI   C4B10048   2.761   6.751   8.376  0.0646 -0.0705  0.0982
  629loPI    C110049  16.491  14.815  10.844 -0.1884 -0.2160  0.1916
  629loPI    C210050  16.823  14.843  11.066 -0.1254 -0.0835  0.0824
  629loPI    C310051  16.473  14.758  11.240 -0.0946  0.1195  0.2474
  629loPI   PO410052  16.563  14.800  10.612 -0.1293  0.3826  0.1789
  629loPI   GL110053  16.676  15.051  10.306  0.1808  0.0093 -0.2212
  629loPI   GL210054  16.866  14.762  10.180 -0.1043 -0.0566  0.0442
  629loPI   C1A10055  16.528  15.135   9.883 -0.0006 -0.0266  0.0698
  629loPI   C2A10056  16.380  15.118   9.350  0.0719 -0.4232 -0.2421
  629loPI   C3A10057  16.469  15.151   8.965  0.2332 -0.0318 -0.0301
  629loPI   C4A10058  16.370  15.222   8.545  0.1610  0.1111 -0.0077
  629loPI   C5A10059  16.508  15.041   8.164  0.0710 -0.3369 -0.1189
  629loPI   C6A10060  16.820  14.774   8.020 -0.0412  0.0944 -0.2437
  629loPI   C1B10061  17.199  14.634   9.969 -0.0183  0.1313  0.2203
  629loPI   C2B10062  17.250  14.667   9.535 -0.0660 -0.0014 -0.1024
  629loPI   C3B10063  17.193  14.731   9.087 -0.3765  0.0270 -0.3199
  629loPI   C4B10064  17.191  14.763   8.605 -0.0663 -0.0645  0.0287
  630loPI    C110065   6.406   3.924  10.972  0.1431 -0.0555 -0.0157
  630loPI    C210066   6.291   4.308  10.978  0.0005 -0.0952 -0.1484
  630loPI    C310067   6.618   4.194  11.179 -0.0256  0.0730 -0.0083
  630loPI   PO410068   6.430   3.856  10.741 -0.1621 -0.0042  0.0115
  630loPI   GL110069   6.409   3.841  10.321  0.0179  0.1468 -0.1829
  630loPI   GL210070   6.276   4.137  10.274 -0.0633 -0.2003  0.0756
  630loPI   C1A10071   6.276   3.723   9.951 -0.1193 -0.1995 -0.0030
  630loPI   C2A10072   6.208   3.896   9.623 -0.2730  0.1767 -0.1505
  630loPI   C3A10073   6.173   3.882   9.162  0.0931  0.3389  0.3104
  630loPI   C4A10074   6.200   3.869   8.796 -0.1147  0.1251 -0.0500
  630loPI   C5A10075   6.438   3.852   8.435  0.4699  0.2534 -0.1889
  630loPI   C6A10076   6.805   4.125   8.339 -0.2374  0.1801 -0.0350
  630loPI   C1B10077   6.412   4.296   9.819  0.1260 -0.1966 -0.1143
  630loPI   C2B10078   6.475   4.310   9.458  0.0069 -0.0143  0.3543
  630loPI   C3B10079   6.456   4.353   9.124  0.1058  0.0484  0.0138
  630loPI   C4B10080   6.460   4.340   8.641 -0.1113  0.2225 -0.2142
  631loPI    C110081  12.179   2.358  10.849 -0.0030  0.3305  0.1646
  631loPI    C210082  12.537   2.191  10.913 -0.0490  0.0775 -0.2071
  631loPI    C310083  12.243   2.142  11.180  0.0923  0.0037 -0.0631
  631loPI   PO410084  12.159   2.309  10.556 -0.2373  0.1055  0.0398
  631loPI   GL110085  12.206   2.296  10.104  0.0897  0.1905 -0.0121
  631loPI   GL210086  11.925   2.158  10.117 -0.1197  0.2997 -0.4577
  631loPI   C1A10087  12.134   2.454   9.777 -0.4017  0.0097  0.0387
  631loPI   C2A10088  11.987   2.252   9.511  0.5596 -0.1204  0.1841
  631loPI   C3A10089  11.877   2.396   9.078 -0.0908  0.0146  0.2256
  631loPI   C4A10090  11.967   2.376   8.685  0.1171  0.1641  0.0959
  631loPI   C5A10091  11.890   2.370   8.278  0.0564 -0.1199  0.0161
  631loPI   C6A10092  11.785   2.491   7.846  0.1394 -0.0638  0.0647
  631loPI   C1B10093  11.644   2.260   9.800 -0.1738  0.1543 -0.2413
  631loPI   C2B10094  11.492   2.326   9.371 -0.1205 -0.2036  0.0007
  631loPI   C3B10095  11.407   2.286   8.934  0.3559  0.0303 -0.0573
  631loPI   C4B10096  11.493   2.426   8.556  0.2743 -0.0140  0.2681
  632loPI    C110097   6.100  10.496  11.235 -0.0856 -0.0943  0.2523
  632loPI    C210098   5.752  10.507  11.431 -0.1003  0.0805  0.2186
  632loPI    C310099   6.095  10.500  11.635 -0.1190  0.0979  0.2508
  632loPI   PO410100   6.087  10.506  10.992  0.0907  0.3735 -0.0012
  632loPI   GL110101   6.217  10.345  10.620  0.2189  0.0764  0.1026
  632loPI   GL210102   6.074  10.182  10.616 -0.0788 -0.3022  0.1570
  632loPI   C1A10103   6.254  10.569  10.310  0.2607 -0.1857 -0.1777
  632loPI   C2A10104   6.115  10.616   9.857  0.0103 -0.1565 -0.1797
  632loPI   C3A10105   6.114  10.575   9.510  0.0851 -0.3440 -0.0436
  632loPI   C4A10106   6.068  10.609   9.113 -0.2032 -0.0853 -0.3814
  632loPI   C5A10107   6.230  10.646   8.733  0.0063  0.1399 -0.0391
  632loPI   C6A10108   6.310  10.806   8.311 -0.1068  0.0106  0.4186
  632loPI   C1B10109   5.941  10.139  10.260  0.2519  0.0939  0.2390
  632loPI   C2B10110   5.969  10.114   9.798 -0.0845  0.2640 -0.1490
  632loPI   C3B10111   5.835  10.187   9.350 -0.2306 -0.0012  0.2746
  632loPI   C4B10112   5.930  10.160   8.884  0.0223  0.0276 -0.2174
  633loPI    C110113   7.367  11.822  11.227  0.1123  0.3083 -0.0071
  633loPI    C210114   7.194  12.038  11.516  0.2694  0.1816  0.1847
  633loPI    C310115   7.172  11.639  11.525  0.1797  0.1802 -0.0414
  633loPI   PO410116   7.301  11.886  10.974  0.3999  0.0449  0.0740
  633loPI   GL110117   7.017  11.807  10.632  0.1269 -0.0447 -0.0543
  633loPI   GL210118   6.958  12.139  10.656 -0.0270 -0.3549  0.1696
  633loPI   C1A10119   6.765  11.605  10.381 -0.1413 -0.2395 -0.0898
  633loPI   C2A10120   6.606  11.563   9.994  0.0818  0.2874 -0.1541
  633loPI   C3A10121   6.632  11.430   9.574  0.0552  0.2157  0.1440
  633loPI   C4A10122   6.672  11.562   9.105  0.1203 -0.2260  0.0138
  633loPI   C5A10123   6.588  11.640   8.566 -0.2449  0.0831 -0.2204
  633loPI   C6A10124   6.387  11.730   8.145 -0.0132  0.0075 -0.2185
  633loPI   C1B10125   6.938  12.075  10.237 -0.0965 -0.1218  0.0786
  633loPI   C2B10126   6.895  11.915   9.813 -0.0119  0.0773 -0.0014
  633loPI   C3B10127   6.903  11.963   9.439 -0.1568 -0.1749 -0.0831
  633loPI   C4B10128   6.856  12.034   8.945 -0.0971 -0.2656 -0.1051
  634loPI    C110129  15.399  16.832  10.705 -0.1742  0.0098 -0.0260
  634loPI    C210130  15.772  16.722  10.797 -0.1623 -0.0894 -0.1898
  634loPI    C310131  15.478  16.671  11.063 -0.0621 -0.0234 -0.0653
  634loPI   PO410132  15.316  16.781  10.423  0.3217 -0.2215 -0.2308
  634loPI   GL110133  15.518  16.717  10.018 -0.1819 -0.3259 -0.3713
  634loPI   GL210134  15.279  16.830   9.780  0.0608 -0.2004 -0.0111
  634loPI   C1A10135  15.604  16.479   9.652  0.1783  0.2879  0.0370
  634loPI   C2A10136  15.625  16.470   9.237 -0.2771 -0.1204  0.0350
  634loPI   C3A10137  15.618  16.500   8.805 -0.0774  0.3021  0.0195
  634loPI   C4A10138  15.570  16.650   8.418 -0.2560  0.1490  0.0711
  634loPI   C5A10139  15.578  16.630   8.022  0.1341 -0.1208  0.2871
  634loPI   C6A10140  15.368  16.935   7.710 -0.1484  0.1047 -0.1784
  634loPI   C1B10141  15.376  16.961   9.428  0.1665  0.2502  0.0181
  634loPI   C2B10142  15.343  16.929   8.908 -0.0375  0.0488  0.2729
  634loPI   C3B10143  15.258  17.072   8.371 -0.0325 -0.0620  0.0720
  634loPI   C4B10144  15.467  17.240   8.072 -0.1556 -0.2372  0.1400
  635loPI    C110145  17.393   0.501  10.934  0.1354  0.1150 -0.0146
  635loPI    C210146  17.709   0.256  10.945  0.0687  0.0275 -0.0326
  635loPI    C310147  17.534   0.372  11.286 -0.0029 -0.0851 -0.0310
  635loPI   PO410148  17.472   0.608  10.711  0.5125 -0.0020 -0.2581
  635loPI   GL110149  17.627   0.776  10.396  0.0614 -0.1090  0.1745
  635loPI   GL210150  17.536   1.129  10.217 -0.1891  0.1811 -0.2506
  635loPI   C1A10151  17.820   0.657  10.030  0.3530 -0.1012 -0.1462
  635loPI   C2A10152  17.803   0.738   9.558  0.3051  0.3258 -0.0535
  635loPI   C3A10153  17.817   0.765   9.114 -0.1309 -0.0292  0.3996
  635loPI   C4A10154  17.796   0.802   8.631  0.0529 -0.4624 -0.3399
  635loPI   C5A10155  17.589   0.508   8.345 -0.1030 -0.0753 -0.0531
  635loPI   C6A10156  17.308   0.277   8.347 -0.0995  0.0852  0.1216
  635loPI   C1B10157  17.562   1.109   9.833  0.0185 -0.3425 -0.0544
  635loPI   C2B10158  17.414   1.151   9.447 -0.3447  0.2926  0.0678
  635loPI   C3B10159  17.564   1.220   9.098  0.0260  0.0731  0.1800
  635loPI   C4B10160  17.470   1.222   8.651  0.0847 -0.1220 -0.3557
  636loPI    C110161  13.810   4.054  10.810 -0.1452 -0.1348 -0.1899
  636loPI    C210162  13.568   4.339  10.953  0.2413  0.1003  0.0158
  636loPI    C310163  13.804   4.134  11.202  0.1807 -0.1998 -0.1685
  636loPI   PO410164  13.773   4.125  10.541  0.4033  0.0754  0.2551
  636loPI   GL110165  13.630   4.361  10.167 -0.1858 -0.0546  0.1114
  636loPI   GL210166  13.361   4.279  10.041 -0.1702 -0.0923 -0.1845
  636loPI   C1A10167  13.957   4.276   9.860 -0.1016  0.1446 -0.1406
  636loPI   C2A10168  14.009   4.286   9.449  0.0238  0.2990 -0.1328
  636loPI   C3A10169  13.954   4.210   9.014  0.2431  0.2334 -0.0147
  636loPI   C4A10170  14.013   4.176   8.615 -0.0124  0.2483  0.0466
  636loPI   C5A10171  14.146   4.195   8.239  0.2167 -0.2073 -0.0371
  636loPI   C6A10172  14.587   4.248   8.121 -0.1367  0.0555 -0.0455
  636loPI   C1B10173  13.478   4.314   9.653 -0.0854  0.1707  0.1750
  636loPI   C2B10174  13.502   4.225   9.268  0.0543 -0.1210 -0.0611
  636loPI   C3B10175  13.470   4.223   8.781  0.1458 -0.1885 -0.1235
  636loPI   C4B10176  13.636   4.275   8.296 -0.0370 -0.1857  0.1064
  637loPI    C110177   7.882  14.426  11.139 -0.1588  0.0241 -0.0400
  637loPI    C210178   7.728  14.219  11.444 -0.1440  0.0510 -0.0142
  637loPI    C310179   8.004  14.501  11.512 -0.0253 -0.0514 -0.0678
  637loPI   PO410180   7.864  14.220  10.882  0.0242  0.1552 -0.1185
  637loPI   GL110181   7.844  14.181  10.440 -0.0298 -0.1371 -0.0951
  637loPI   GL210182   7.956  14.445  10.388  0.0318  0.1614 -0.0494
  637loPI   C1A10183   7.705  13.920   9.999  0.0716  0.0796  0.0155
  637loPI   C2A10184   7.795  13.809   9.524  0.1473 -0.1405 -0.6044
  637loPI   C3A10185   7.841  13.809   9.117 -0.0260  0.0920 -0.2425
  637loPI   C4A10186   7.613  13.749   8.837 -0.2623  0.1666 -0.2073
  637loPI   C5A10187   7.254  13.671   8.430 -0.0391 -0.1497 -0.2551
  637loPI   C6A10188   7.357  13.435   8.105  0.2489  0.0280 -0.4212
  637loPI   C1B10189   8.004  14.295   9.943 -0.2552  0.0629 -0.0100
  637loPI   C2B10190   7.991  14.274   9.509  0.2312 -0.0594 -0.0224
  637loPI   C3B10191   7.953  14.282   9.107  0.1601  0.3050  0.0633
  637loPI   C4B10192   7.913  14.169   8.607 -0.0310  0.1121  0.2971
  638loPI    C110193  13.480   3.259  10.696  0.1183 -0.0565  0.0092
  638loPI    C210194  13.599   2.877  10.696 -0.1854 -0.1540  0.0069
  638loPI    C310195  13.432   3.034  11.024  0.0582  0.0177  0.0516
  638loPI   PO410196  13.344   3.230  10.486 -0.2328 -0.2187  0.1873
  638loPI   GL110197  13.222   3.378  10.125 -0.3694  0.0437  0.0993
  638loPI   GL210198  13.017   3.387   9.910 -0.1920 -0.1410  0.0696
  638loPI   C1A10199  13.487   3.413   9.742  0.2297 -0.1904 -0.1635
  638loPI   C2A10200  13.500   3.344   9.423  0.0580  0.2281 -0.0564
  638loPI   C3A10201  13.484   3.263   8.929 -0.0037 -0.0587  0.1206
  638loPI   C4A10202  13.416   3.275   8.505 -0.0377 -0.1834  0.0160
  638loPI   C5A10203  13.536   3.368   8.041  0.0670  0.0212  0.1939
  638loPI   C6A10204  13.719   3.562   7.630  0.1301  0.0796  0.0209
  638loPI   C1B10205  13.011   3.380   9.483 -0.1831  0.0552 -0.0814
  638loPI   C2B10206  13.011   3.315   9.084  0.0851  0.2121 -0.0147
  638loPI   C3B10207  12.960   3.245   8.683 -0.1028  0.0854  0.1258
  638loPI   C4B10208  12.850   3.276   8.348 -0.2185 -0.3061 -0.0351
  639loPI    C110209  16.580   5.756  10.957  0.0460 -0.2091 -0.0429
  639loPI    C210210  16.275   5.604  11.165  0.1266 -0.2834  0.0220
  639loPI    C310211  16.622   5.681  11.348  0.0706  0.0308  0.0024
  639loPI   PO410212  16.518   5.722  10.798  0.0419 -0.0766 -0.1980
  639loPI   GL110213  16.444   5.470  10.419 -0.2651  0.2225  0.1443
  639loPI   GL210214  16.666   5.663  10.326 -0.0675  0.0275  0.0115
  639loPI   C1A10215  16.149   5.377  10.081  0.0384 -0.2113  0.2725
  639loPI   C2A10216  15.919   5.304   9.707  0.2026  0.1011 -0.2324
  639loPI   C3A10217  15.887   5.348   9.266 -0.1788 -0.0244 -0.1259
  639loPI   C4A10218  15.886   5.245   8.803  0.0493 -0.1397 -0.0450
  639loPI   C5A10219  15.855   5.205   8.464 -0.1002  0.2508  0.1888
  639loPI   C6A10220  15.938   4.914   8.192 -0.1425 -0.2817  0.0302
  639loPI   C1B10221  16.619   5.731   9.918 -0.0265 -0.0839 -0.2886
  639loPI   C2B10222  16.682   5.656   9.621 -0.0936 -0.0143 -0.0652
  639loPI   C3B10223  16.690   5.833   9.282 -0.0648  0.1902 -0.2984
  639loPI   C4B10224  16.621   5.768   8.934  0.0344 -0.2997 -0.0988
  640loPI    C110225   5.220   7.196  11.301 -0.1881  0.0081  0.2013
  640loPI    C210226   4.884   6.981  11.274 -0.3581  0.2640  0.2384
  640loPI    C310227   5.065   7.025  11.628  0.0914 -0.4268  0.1142
  640loPI   PO410228   5.470   7.132  11.166  0.0501  0.1196 -0.1833
  640loPI   GL110229   5.339   7.191  10.712 -0.0689  0.1213  0.1735
  640loPI   GL210230   5.294   6.937  10.615 -0.0473 -0.3254 -0.0104
  640loPI   C1A10231   5.560   7.366  10.311 -0.2810  0.2677  0.1627
  640loPI   C2A10232   5.568   7.357   9.894 -0.0436 -0.1202  0.2166
  640loPI   C3A10233   5.514   7.441   9.442  0.2206  0.1722  0.2267
  640loPI   C4A10234   5.545   7.463   9.037 -0.0958 -0.2694  0.2955
  640loPI   C5A10235   5.466   7.432   8.661  0.0785  0.0925  0.0021
  640loPI   C6A10236   5.710   7.286   8.284  0.4527 -0.1549  0.3856
  640loPI   C1B10237   5.394   6.881  10.190 -0.2429 -0.1040 -0.2586
  640loPI   C2B10238   5.313   6.896   9.723 -0.1974 -0.2021  0.0459
  640loPI   C3B10239   5.253   7.009   9.346 -0.0986  0.0295 -0.0734
  640loPI   C4B10240   5.239   7.019   8.965  0.2557 -0.0241  0.3215
  641loPI    C110241  13.160   7.707  11.163  0.0759  0.2118  0.0766
  641loPI    C210242  13.262   7.575  11.526 -0.3015  0.0145  0.1156
  641loPI    C310243  12.901   7.736  11.466 -0.1658  0.2354 -0.1293
  641loPI   PO410244  13.205   7.524  10.979  0.2791 -0.0363 -0.0887
  641loPI   GL110245  13.396   7.528  10.556 -0.1338 -0.1514  0.4028
  641loPI   GL210246  13.125   7.706  10.512 -0.0122 -0.2440 -0.0874
  641loPI   C1A10247  13.481   7.323  10.089  0.3441  0.2208 -0.0301
  641loPI   C2A10248  13.558   7.377   9.690 -0.0811 -0.2839  0.1179
  641loPI   C3A10249  13.516   7.440   9.272 -0.0182  0.1376 -0.4588
  641loPI   C4A10250  13.541   7.402   8.860  0.3264 -0.0210 -0.0056
  641loPI   C5A10251  13.494   7.588   8.419 -0.1599 -0.1299  0.3506
  641loPI   C6A10252  13.760   7.403   8.048  0.1730 -0.3443 -0.6104
  641loPI   C1B10253  13.283   7.775  10.142  0.0827 -0.2400  0.0142
  641loPI   C2B10254  13.242   7.822   9.764 -0.0809  0.0206  0.0781
  641loPI   C3B10255  13.156   7.850   9.304 -0.2385  0.0285  0.0148
  641loPI   C4B10256  13.231   7.725   8.881  0.2743  0.0657 -0.2338
  642loPI    C110257   1.799  16.204  10.817  0.3698 -0.1607  0.0098
  642loPI    C210258   1.900  16.268  11.199 -0.1161 -0.0385  0.1251
  642loPI    C310259   1.657  15.965  11.104 -0.0393 -0.0370 -0.0833
  642loPI   PO410260   1.821  16.465  10.715 -0.0168 -0.2231 -0.0033
  642loPI   GL110261   1.895  16.716  10.368  0.1053  0.1906  0.1261
  642loPI   GL210262   1.567  16.677  10.358 -0.0542 -0.4502 -0.1851
  642loPI   C1A10263   2.091  16.663  10.139  0.1531  0.1106  0.3803
  642loPI   C2A10264   2.094  16.613   9.726 -0.0639  0.0589  0.1006
  642loPI   C3A10265   2.105  16.684   9.308 -0.3007 -0.0008  0.1107
  642loPI   C4A10266   2.084  16.653   8.848  0.5418 -0.1482  0.0105
  642loPI   C5A10267   2.027  16.634   8.392 -0.0342  0.2370  0.0670
  642loPI   C6A10268   1.815  16.369   8.043 -0.1400 -0.1051 -0.2220
  642loPI   C1B10269   1.614  16.607   9.825 -0.0675  0.0055 -0.1148
  642loPI   C2B10270   1.612  16.641   9.354  0.0726  0.0057 -0.0084
  642loPI   C3B10271   1.571  16.609   8.971  0.0161  0.4526 -0.0173
  642loPI   C4B10272   1.509  16.570   8.483 -0.0813  0.5317  0.0175
  643loPI    C110273   9.083  16.656  10.842 -0.0937 -0.2112 -0.0799
  643loPI    C210274   9.409  16.463  10.713  0.0487 -0.0353  0.0113
  643loPI    C310275   9.365  16.543  11.102 -0.0214  0.0931 -0.0223
  643loPI   PO410276   9.089  16.829  10.641 -0.2277 -0.0998 -0.1335
  643loPI   GL110277   9.392  16.808  10.241  0.1614 -0.0986  0.0898
  643loPI   GL210278   9.360  17.130  10.112  0.4197  0.0840 -0.0199
  643loPI   C1A10279   9.189  16.604   9.850  0.2521  0.2677  0.1214
  643loPI   C2A10280   9.160  16.655   9.425  0.1003 -0.0598 -0.1043
  643loPI   C3A10281   9.117  16.661   9.011 -0.1238  0.0101 -0.1802
  643loPI   C4A10282   9.199  16.689   8.616 -0.2728  0.2893 -0.0649
  643loPI   C5A10283   9.019  16.817   8.212  0.0068 -0.0614 -0.1417
  643loPI   C6A10284   8.881  17.228   8.178 -0.1024  0.0611 -0.2021
  643loPI   C1B10285   9.336  17.093   9.651  0.0932 -0.0407  0.1698
  643loPI   C2B10286   9.348  17.086   9.148 -0.0844 -0.3577  0.2792
  643loPI   C3B10287   9.361  17.083   8.830 -0.1735 -0.0894 -0.0968
  643loPI   C4B10288   9.333  17.160   8.433  0.0145 -0.2191  0.0595
  644loPI    C110289  17.332  14.339  10.893 -0.4556 -0.0354  0.0579
  644loPI    C210290  17.288  14.172  11.253  0.0331 -0.0040  0.1398
  644loPI    C310291  17.341  14.567  11.222  0.4212 -0.0574  0.0735
  644loPI   PO410292  17.470  14.115  10.759 -0.1774  0.1381 -0.0407
  644loPI   GL110293  17.742  14.054  10.338  0.0195 -0.0912 -0.0359
  644loPI   GL210294  18.042  13.932  10.379 -0.0512 -0.1630 -0.0482
  644loPI   C1A10295  17.536  14.164   9.991  0.0214 -0.1758  0.0569
  644loPI   C2A10296  17.508  14.270   9.615 -0.2385 -0.2267  0.1164
  644loPI   C3A10297  17.523  14.278   9.132  0.0549  0.1178  0.1176
  644loPI   C4A10298  17.485  14.299   8.749 -0.2249 -0.0633  0.0878
  644loPI   C5A10299  17.465  14.271   8.307  0.0910 -0.0216 -0.0191
  644loPI   C6A10300  17.538  13.869   8.119  0.0474 -0.0390 -0.2080
  644loPI   C1B10301  18.274  13.810  10.067 -0.0706 -0.2695 -0.1597
  644loPI   C2B10302  18.378  13.803   9.687 -0.3757 -0.0628 -0.1901
  644loPI   C3B10303  18.284  13.809   9.323 -0.0345  0.1934 -0.0972
  644loPI   C4B10304  18.218  13.834   8.937 -0.1640 -0.2435  0.2573
  645loPI    C110305  10.863  13.864  10.941 -0.0749  0.2706 -0.0428
  645loPI    C210306  11.172  14.092  11.055  0.0668  0.0992 -0.0790
  645loPI    C310307  11.115  13.734  11.224 -0.0764  0.1032 -0.1174
  645loPI   PO410308  10.898  13.865  10.689  0.0448  0.0868  0.0595
  645loPI   GL110309  11.011  13.770  10.329  0.0003  0.1370 -0.2300
  645loPI   GL210310  10.831  14.081  10.237 -0.0874  0.3339  0.1323
  645loPI   C1A10311  11.177  13.585   9.925 -0.2432  0.1800  0.0951
  645loPI   C2A10312  11.084  13.517   9.574  0.2392 -0.2182 -0.2223
  645loPI   C3A10313  11.146  13.598   9.119  0.1194  0.3787 -0.0716
  645loPI   C4A10314  11.057  13.590   8.662 -0.0018  0.1959  0.2895
  645loPI   C5A10315  11.174  13.549   8.240 -0.1398 -0.2430 -0.0627
  645loPI   C6A10316  11.142  13.831   7.827 -0.0205  0.0963  0.1528
  645loPI   C1B10317  10.874  13.998   9.789 -0.2557 -0.1042 -0.0748
  645loPI   C2B10318  10.814  13.969   9.325 -0.0134 -0.0519 -0.2036
  645loPI   C3B10319  10.807  13.981   8.925  0.1467 -0.0356 -0.1439
  645loPI   C4B10320  10.747  14.042   8.523  0.2267 -0.0568  0.1846
  646loPI    C110321   5.506  12.238  11.269 -0.0698 -0.1482  0.1726
  646loPI    C210322   5.860  12.135  11.424  0.0630 -0.0301 -0.0482
  646loPI    C310323   5.603  12.353  11.640  0.1257 -0.1137  0.1118
  646loPI   PO410324   5.492  12.135  11.084 -0.1011  0.1140  0.3963
  646loPI   GL110325   5.651  11.979  10.716 -0.0482  0.2931 -0.1663
  646loPI   GL210326   5.456  12.200  10.532 -0.0240 -0.4089 -0.0393
  646loPI   C1A10327   5.853  11.890  10.384 -0.0740  0.1182 -0.0511
  646loPI   C2A10328   5.912  11.888   9.986  0.1217 -0.1323  0.3972
  646loPI   C3A10329   5.828  11.876   9.458  0.0365  0.0644 -0.3393
  646loPI   C4A10330   5.788  11.905   9.012 -0.3093 -0.2651 -0.5069
  646loPI   C5A10331   5.911  11.816   8.565  0.5340 -0.1279 -0.1378
  646loPI   C6A10332   5.776  11.913   8.186 -0.2748  0.1953  0.3343
  646loPI   C1B10333   5.599  12.277  10.187 -0.0540  0.0809  0.1329
  646loPI   C2B10334   5.621  12.276   9.719 -0.0360  0.2094  0.0305
  646loPI   C3B10335   5.455  12.340   9.326  0.0200  0.1401  0.0626
  646loPI   C4B10336   5.385  12.418   8.868 -0.1733  0.3827 -0.0282
  647loPI    C110337  10.568   7.507  11.069  0.0933 -0.1807  0.1184
  647loPI    C210338  10.616   7.884  11.191  0.1197 -0.1341 -0.0332
  647loPI    C310339  10.829   7.591  11.360  0.0885 -0.0838  0.0951
  647loPI   PO410340  10.633   7.546  10.824  0.0069 -0.0429 -0.0003
  647loPI   GL110341  10.643   7.688  10.418  0.0664  0.1720  0.1201
  647loPI   GL210342  10.358   8.002  10.327  0.1791  0.0918  0.1168
  647loPI   C1A10343  10.610   7.677   9.991 -0.0463 -0.1424 -0.0714
  647loPI   C2A10344  10.631   7.687   9.561 -0.0012 -0.0832  0.0515
  647loPI   C3A10345  10.663   7.625   9.088 -0.0708 -0.0015  0.2129
  647loPI   C4A10346  10.605   7.653   8.715 -0.0248 -0.1019 -0.3279
  647loPI   C5A10347  10.368   7.320   8.413  0.0041 -0.2394 -0.1042
  647loPI   C6A10348  10.321   7.065   8.109 -0.0304 -0.0204 -0.0890
  647loPI   C1B10349  10.364   8.101   9.923 -0.3290 -0.1817  0.1297
  647loPI   C2B10350  10.368   8.119   9.530  0.1166 -0.0095  0.1639
  647loPI   C3B10351  10.375   8.098   9.076  0.1413  0.2845 -0.1777
  647loPI   C4B10352  10.345   8.041   8.704  0.0498  0.1536  0.3100
  648loPI    C110353   1.812   2.703  10.508  0.2083  0.0812 -0.0193
  648loPI    C210354   1.725   3.093  10.525  0.2382  0.0805  0.1708
  648loPI    C310355   1.793   2.888  10.862 -0.0344 -0.1471  0.0914
  648loPI   PO410356   1.647   2.539  10.317 -0.2973 -0.0512  0.0679
  648loPI   GL110357   1.759   2.413   9.938  0.1706  0.2401  0.2059
  648loPI   GL210358   1.733   2.652   9.755  0.1072  0.0784  0.2118
  648loPI   C1A10359   1.602   2.220   9.476  0.2589  0.2199 -0.1734
  648loPI   C2A10360   1.865   2.143   9.111  0.0663 -0.0556  0.1945
  648loPI   C3A10361   1.981   2.142   8.741 -0.0302  0.3163  0.1314
  648loPI   C4A10362   1.846   2.452   8.497  0.0174  0.0869 -0.0908
  648loPI   C5A10363   1.555   2.348   8.220 -0.0089  0.2308  0.0800
  648loPI   C6A10364   1.179   2.552   8.185  0.0392 -0.0548 -0.0098
  648loPI   C1B10365   1.881   2.667   9.465 -0.1353  0.1329  0.0692
  648loPI   C2B10366   1.962   2.676   9.036  0.0802 -0.1623 -0.0429
  648loPI   C3B10367   2.168   2.761   8.669 -0.1086  0.0600 -0.3787
  648loPI   C4B10368   2.221   2.697   8.253  0.0063  0.3964 -0.1116
  649loPI    C110369  10.336   5.751  11.073 -0.0363 -0.0058  0.0664
  649loPI    C210370  10.571   5.834  11.385  0.0701 -0.0071 -0.0128
  649loPI    C310371  10.447   5.459  11.323  0.0796 -0.0135  0.0067
  649loPI   PO410372  10.199   5.993  11.042 -0.0971  0.1086  0.2332
  649loPI   GL110373  10.187   6.252  10.620  0.0271  0.0468  0.1873
  649loPI   GL210374   9.884   6.126  10.586 -0.1047  0.0878  0.1333
  649loPI   C1A10375  10.250   6.716  10.435 -0.2404 -0.1344 -0.2215
  649loPI   C2A10376  10.197   6.808   9.985 -0.1267  0.0313  0.2059
  649loPI   C3A10377  10.184   6.750   9.499  0.1371  0.1113 -0.2255
  649loPI   C4A10378  10.201   6.794   9.064 -0.1128  0.0204  0.2291
  649loPI   C5A10379  10.188   6.867   8.615  0.0199  0.2424 -0.2624
  649loPI   C6A10380  10.031   6.654   8.254 -0.0187 -0.2520  0.1984
  649loPI   C1B10381   9.933   6.401  10.208  0.0785 -0.2663 -0.3259
  649loPI   C2B10382  10.011   6.374   9.779  0.1869 -0.3860 -0.0243
  649loPI   C3B10383   9.948   6.308   9.314 -0.3462 -0.2232 -0.0729
  649loPI   C4B10384  10.003   6.329   8.904  0.2206  0.2287  0.2499
  650loPI    C110385  11.368  11.412  10.637 -0.0294 -0.1740  0.1518
  650loPI    C210386  11.333  11.667  10.943 -0.1447 -0.0327  0.0229
  650loPI    C310387  11.281  11.275  11.002  0.0496 -0.0304  0.2257
  650loPI   PO410388  11.575  11.552  10.497  0.0701 -0.1375  0.1628
  650loPI   GL110389  11.585  11.567  10.143  0.3470  0.0423 -0.2193
  650loPI   GL210390  11.830  11.817   9.961 -0.0091 -0.1737  0.1138
  650loPI   C1A10391  11.584  11.347   9.769  0.0734  0.1225 -0.2972
  650loPI   C2A10392  11.530  11.221   9.273 -0.0547  0.2228 -0.0390
  650loPI   C3A10393  11.481  11.266   8.813 -0.0380  0.1625  0.1308
  650loPI   C4A10394  11.498  11.163   8.388 -0.1518  0.1821 -0.0905
  650loPI   C5A10395  11.273  10.734   8.270 -0.0192  0.0050 -0.0662
  650loPI   C6A10396  11.064  10.370   8.095 -0.0838 -0.0449 -0.1550
  650loPI   C1B10397  11.678  11.747   9.489 -0.0793  0.2649  0.0974
  650loPI   C2B10398  11.646  11.709   9.076  0.0304  0.0571 -0.1416
  650loPI   C3B10399  11.686  11.806   8.634 -0.1432  0.1126 -0.4443
  650loPI   C4B10400  11.671  11.605   8.256  0.0333  0.2678  0.0722
  651loPI    C110401   2.676   8.165  11.169  0.0969 -0.1110 -0.1296
  651loPI    C210402   2.910   8.318  11.455  0.0995  0.0738 -0.2287
  651loPI    C310403   2.676   8.003  11.535  0.0310  0.1808  0.0029
  651loPI   PO410404   2.785   8.165  10.915  0.0175 -0.0832 -0.3410
  651loPI   GL110405   2.566   8.196  10.638  0.0990  0.1021  0.1035
  651loPI   GL210406   2.392   8.158  10.404  0.2354 -0.0637 -0.0668
  651loPI   C1A10407   2.690   8.529  10.285  0.2279  0.2347 -0.0850
  651loPI   C2A10408   2.671   8.610   9.821  0.0657  0.0557  0.0797
  651loPI   C3A10409   2.551   8.690   9.397 -0.3197  0.2204 -0.1520
  651loPI   C4A10410   2.624   8.648   8.965  0.0346  0.0409 -0.0460
  651loPI   C5A10411   2.559   8.687   8.520 -0.0037 -0.2915  0.5061
  651loPI   C6A10412   2.762   8.662   8.289 -0.1400 -0.0684  0.1131
  651loPI   C1B10413   2.470   8.133   9.930  0.0606  0.1058 -0.1790
  651loPI   C2B10414   2.476   8.156   9.432 -0.0744 -0.1705 -0.0023
  651loPI   C3B10415   2.315   8.241   9.085 -0.1971 -0.1174  0.2027
  651loPI   C4B10416   2.445   8.230   8.650 -0.0430  0.3264 -0.2075
  652loPI    C110417   9.566  14.150  11.080 -0.1229  0.0639  0.0755
  652loPI    C210418   9.819  13.865  11.200 -0.1342  0.0935  0.1712
  652loPI    C310419   9.942  14.245  11.178 -0.0228  0.0384 -0.2699
  652loPI   PO410420   9.474  14.093  10.836 -0.0337  0.1023  0.2102
  652loPI   GL110421   9.365  14.056  10.406  0.1376 -0.0265 -0.0861
  652loPI   GL210422   9.226  13.717  10.492 -0.0450 -0.1409 -0.2604
  652loPI   C1A10423   9.237  13.991   9.883 -0.1736  0.2213 -0.5070
  652loPI   C2A10424   9.309  13.959   9.423 -0.1000  0.1699 -0.1795
  652loPI   C3A10425   9.315  13.915   9.048  0.3959  0.1019  0.2502
  652loPI   C4A10426   9.423  13.905   8.596 -0.2541  0.1212 -0.2601
  652loPI   C5A10427   9.643  13.994   8.182  0.0837  0.1088  0.1647
  652loPI   C6A10428   9.845  13.896   7.738  0.0237 -0.0981  0.1671
  652loPI   C1B10429   9.094  13.622  10.116  0.1547  0.1582  0.1257
  652loPI   C2B10430   9.109  13.486   9.664  0.1461  0.0517 -0.3987
  652loPI   C3B10431   9.147  13.511   9.255 -0.2180 -0.1774 -0.2214
  652loPI   C4B10432   9.130  13.457   8.798 -0.3985  0.0839  0.1859
  653loPI    C110433  13.027   0.066  10.278  0.0519 -0.0278  0.1682
  653loPI    C210434  13.048  -0.273  10.489  0.0284 -0.0864  0.0770
  653loPI    C310435  12.726  -0.037  10.521  0.1284  0.0240  0.2855
  653loPI   PO410436  13.106   0.037  10.080  0.2015 -0.0191  0.1374
  653loPI   GL110437  13.120   0.275   9.727  0.5032 -0.1533 -0.0454
  653loPI   GL210438  12.911   0.478   9.908  0.0739  0.0079  0.0527
  653loPI   C1A10439  13.177  -0.032   9.363  0.1963 -0.0421 -0.2121
  653loPI   C2A10440  13.164  -0.071   8.920 -0.0075  0.0957 -0.0715
  653loPI   C3A10441  13.183  -0.213   8.486 -0.0707  0.2204 -0.0261
  653loPI   C4A10442  13.197  -0.321   8.040 -0.4100 -0.0830  0.2629
  653loPI   C5A10443  13.518  -0.265   7.730 -0.0925 -0.2655  0.3447
  653loPI   C6A10444  13.527  -0.038   7.363 -0.1293  0.1377 -0.0762
  653loPI   C1B10445  12.797   0.623   9.564 -0.0417 -0.0781  0.0501
  653loPI   C2B10446  12.642   0.669   9.178 -0.0016  0.0109  0.2468
  653loPI   C3B10447  12.601   0.595   8.701 -0.1644  0.0235 -0.3122
  653loPI   C4B10448  12.545   0.457   8.296  0.0104 -0.1127 -0.0258
  654loPI    C110449  16.804   9.507  11.006  0.1524 -0.0191  0.0287
  654loPI    C210450  16.799   9.312  11.355  0.1450  0.0859  0.0879
  654loPI    C310451  17.104   9.556  11.267  0.3447 -0.2408 -0.1470
  654loPI   PO410452  16.828   9.393  10.759  0.1197  0.1642  0.1119
  654loPI   GL110453  16.855   9.494  10.414  0.0989  0.1061 -0.0360
  654loPI   GL210454  16.686   9.220  10.250  0.1597 -0.0611 -0.0011
  654loPI   C1A10455  16.692   9.724  10.075 -0.0457 -0.2966  0.2639
  654loPI   C2A10456  16.712   9.771   9.567  0.0137  0.1685  0.2087
  654loPI   C3A10457  16.738   9.713   9.111  0.1849 -0.1347 -0.0258
  654loPI   C4A10458  16.805   9.727   8.710 -0.1707 -0.2425  0.0500
  654loPI   C5A10459  16.615   9.691   8.302  0.0365 -0.1074  0.0340
  654loPI   C6A10460  16.712   9.524   7.909 -0.3106  0.1747  0.0064
  654loPI   C1B10461  16.913   9.305   9.908  0.2569 -0.0219 -0.1771
  654loPI   C2B10462  17.019   9.311   9.545  0.0835 -0.1260 -0.0479
  654loPI   C3B10463  17.056   9.285   9.133 -0.0670 -0.2340 -0.0925
  654loPI   C4B10464  17.030   9.310   8.769  0.3315  0.1580 -0.0217
  655loPI    C110465   6.988   5.917  11.163 -0.1298 -0.0939  0.1082
  655loPI    C210466   7.221   6.020  11.472 -0.0824  0.0426  0.0282
  655loPI    C310467   6.909   5.775  11.528 -0.0247  0.0005  0.1683
  655loPI   PO410468   7.054   6.052  10.981 -0.3058  0.1853 -0.2307
  655loPI   GL110469   7.057   6.104  10.549  0.4100  0.1881 -0.2418
  655loPI   GL210470   7.044   6.381  10.483 -0.0670  0.0935  0.0069
  655loPI   C1A10471   6.813   6.023  10.188  0.0129 -0.0713  0.1299
  655loPI   C2A10472   6.912   6.084   9.782  0.2145 -0.1057  0.0485
  655loPI   C3A10473   6.874   6.185   9.368  0.0444 -0.0429 -0.0079
  655loPI   C4A10474   6.855   6.191   8.968  0.2466  0.3369 -0.1478
  655loPI   C5A10475   6.857   6.226   8.524  0.2570 -0.0542 -0.2652
  655loPI   C6A10476   6.852   6.544   8.269 -0.0957  0.0884  0.0763
  655loPI   C1B10477   7.148   6.444  10.104 -0.0096 -0.0902 -0.0018
  655loPI   C2B10478   7.052   6.567   9.692  0.1746  0.1120 -0.2304
  655loPI   C3B10479   7.074   6.579   9.191  0.2314 -0.3522  0.0679
  655loPI   C4B10480   7.054   6.689   8.716 -0.2242  0.2624 -0.2251
  656loPI    C110481   9.211   8.703  10.940  0.2280  0.1346 -0.0327
  656loPI    C210482   9.282   8.950  11.246  0.0925  0.2414 -0.0865
  656loPI    C310483   8.907   8.840  11.161  0.1556 -0.0239 -0.0322
  656loPI   PO410484   9.256   8.747  10.739 -0.0516  0.0238  0.0188
  656loPI   GL110485   9.155   8.595  10.390  0.1533  0.1029 -0.3811
  656loPI   GL210486   8.986   8.443  10.184  0.0269 -0.0565 -0.0605
  656loPI   C1A10487   9.277   8.931  10.033  0.0064  0.2391 -0.1770
  656loPI   C2A10488   9.334   8.959   9.608  0.2498  0.2343 -0.3677
  656loPI   C3A10489   9.274   8.889   9.261  0.1996  0.2892 -0.2061
  656loPI   C4A10490   9.331   8.899   8.826  0.1438  0.2535  0.1910
  656loPI   C5A10491   9.286   9.051   8.503 -0.1231 -0.0774 -0.1388
  656loPI   C6A10492   9.058   9.069   8.222 -0.0402  0.2422 -0.2426
  656loPI   C1B10493   9.049   8.509   9.718  0.1425  0.1030  0.0189
  656loPI   C2B10494   9.086   8.424   9.300  0.2411 -0.0481 -0.1285
  656loPI   C3B10495   9.004   8.470   8.844 -0.0533 -0.1603 -0.1819
  656loPI   C4B10496   8.988   8.638   8.500  0.4987 -0.0253  0.0262
  657loPI    C110497   4.572  14.417  10.942 -0.0231 -0.0427 -0.0656
  657loPI    C210498   4.566  14.122  11.212 -0.0796  0.0843  0.0733
  657loPI    C310499   4.309  14.427  11.243 -0.2563 -0.0249 -0.2668
  657loPI   PO410500   4.653  14.298  10.723  0.0503 -0.1659 -0.0250
  657loPI   GL110501   4.491  14.069  10.460 -0.0184 -0.3731  0.1215
  657loPI   GL210502   4.177  14.228  10.526 -0.1909 -0.0373 -0.0619
  657loPI   C1A10503   4.340  13.990  10.072  0.0790  0.0217  0.1992
  657loPI   C2A10504   4.396  14.082   9.665 -0.2144 -0.2322 -0.0437
  657loPI   C3A10505   4.362  14.055   9.211  0.0001  0.0043  0.1556
  657loPI   C4A10506   4.326  14.120   8.873 -0.4050  0.1648 -0.4181
  657loPI   C5A10507   4.162  14.168   8.496  0.0621  0.0016 -0.0274
  657loPI   C6A10508   3.788  14.410   8.335  0.3032 -0.1145  0.0136
  657loPI   C1B10509   4.089  14.426  10.118  0.0793  0.0767  0.0343
  657loPI   C2B10510   4.104  14.420   9.618  0.3286 -0.3516  0.1118
  657loPI   C3B10511   4.018  14.468   9.202  0.0894 -0.0982 -0.2080
  657loPI   C4B10512   4.055  14.527   8.824 -0.2490 -0.1371 -0.3467
  658loPI    C110513   5.741  13.850  10.654  0.0142  0.1682  0.1345
  658loPI    C210514   5.958  13.601  10.429  0.1465  0.1908  0.2357
  658loPI    C310515   5.735  13.457  10.729 -0.0786  0.1538  0.0535
  658loPI   PO410516   5.576  14.001  10.493 -0.1163  0.0185  0.0731
  658loPI   GL110517   5.481  14.011  10.079  0.1482  0.0080 -0.2445
  658loPI   GL210518   5.643  13.782  10.061 -0.1871 -0.0664 -0.2228
  658loPI   C1A10519   5.339  14.079   9.614  0.1777 -0.0772  0.1549
  658loPI   C2A10520   5.435  14.062   9.154 -0.0245 -0.1241  0.2880
  658loPI   C3A10521   5.331  14.154   8.725 -0.0274  0.2672  0.0797
  658loPI   C4A10522   5.092  14.335   8.350  0.3235 -0.1290  0.1767
  658loPI   C5A10523   5.188  14.775   8.228  0.1949  0.2128  0.2537
  658loPI   C6A10524   5.351  15.191   8.292  0.0262  0.1377  0.0223
  658loPI   C1B10525   5.693  13.618   9.708 -0.2470  0.0675  0.0421
  658loPI   C2B10526   5.700  13.641   9.276 -0.0163 -0.4118  0.0291
  658loPI   C3B10527   5.597  13.691   8.829  0.1883 -0.1051  0.1939
  658loPI   C4B10528   5.436  13.709   8.437 -0.1791  0.0369  0.2512
  659loPI    C110529   8.290   9.824  11.090  0.1675 -0.1563  0.3797
  659loPI    C210530   8.575   9.815  11.371  0.2380  0.0813  0.3177
  659loPI    C310531   8.224   9.991  11.448  0.1619 -0.0805  0.3436
  659loPI   PO410532   8.327   9.952  10.915 -0.1773 -0.1537 -0.0487
  659loPI   GL110533   8.171  10.073  10.595 -0.1772 -0.3359  0.0361
  659loPI   GL210534   7.967   9.824  10.497  0.2094 -0.1580 -0.0036
  659loPI   C1A10535   8.033  10.329  10.308  0.1684  0.0622 -0.3787
  659loPI   C2A10536   7.962  10.216   9.813 -0.2060 -0.0793 -0.0469
  659loPI   C3A10537   7.955  10.299   9.439  0.0475  0.1349  0.1811
  659loPI   C4A10538   7.988  10.325   8.923  0.0087 -0.1538  0.2633
  659loPI   C5A10539   8.000  10.431   8.551 -0.0501 -0.2394 -0.1884
  659loPI   C6A10540   7.698  10.555   8.250  0.2985  0.2605  0.0388
  659loPI   C1B10541   7.788   9.856  10.117  0.2153  0.0737  0.1499
  659loPI   C2B10542   7.768   9.765   9.754 -0.1764 -0.2481  0.1844
  659loPI   C3B10543   7.736   9.856   9.357  0.1840 -0.0771  0.0091
  659loPI   C4B10544   7.696   9.839   8.908  0.0131 -0.0633  0.2400
  660loPI    C110545   0.061   6.101  10.898  0.0808  0.2970  0.0747
  660loPI    C210546  -0.291   6.169  11.075 -0.0468  0.2074 -0.1400
  660loPI    C310547   0.024   6.055  11.293 -0.2413 -0.0561  0.0095
  660loPI   PO410548  -0.038   6.201  10.675 -0.0912  0.3421 -0.1775
  660loPI   GL110549  -0.112   6.051  10.298  0.2897  0.0964 -0.0060
  660loPI   GL210550  -0.110   6.266  10.085 -0.0415  0.1368  0.0942
  660loPI   C1A10551   0.125   5.810   9.990  0.0070 -0.0377 -0.1843
  660loPI   C2A10552   0.223   5.857   9.611  0.0344  0.2987  0.0977
  660loPI   C3A10553   0.217   5.827   9.167 -0.3973  0.0611  0.1409
  660loPI   C4A10554   0.100   5.854   8.772 -0.1066  0.1368  0.0813
  660loPI   C5A10555   0.005   5.857   8.391  0.3175  0.0118  0.2355
  660loPI   C6A10556  -0.042   6.137   8.009  0.0490 -0.2305  0.0856
  660loPI   C1B10557  -0.088   6.198   9.714 -0.1234 -0.1633  0.2526
  660loPI   C2B10558  -0.125   6.231   9.230  0.2244 -0.0580 -0.2887
  660loPI   C3B10559  -0.127   6.289   8.810 -0.0884  0.1195  0.0120
  660loPI   C4B10560  -0.196   6.401   8.386 -0.1926 -0.1125  0.1018
  661loPI    C110561  10.443  11.647  10.773 -0.1305  0.0059 -0.0615
  661loPI    C210562  10.094  11.657  10.969 -0.1255 -0.1358 -0.0446
  661loPI    C310563  10.414  11.484  11.137  0.0490  0.3046  0.0902
  661loPI   PO410564  10.254  11.696  10.507  0.1067 -0.0942  0.2025
  661loPI   GL110565  10.074  11.916  10.181  0.0525  0.3698 -0.3455
  661loPI   GL210566   9.819  11.717  10.175  0.0563 -0.0653 -0.1819
  661loPI   C1A10567  10.255  11.797   9.845 -0.0002 -0.1282 -0.0354
  661loPI   C2A10568  10.104  11.727   9.447  0.3480 -0.0224 -0.0784
  661loPI   C3A10569  10.117  11.719   8.951  0.1170  0.0556 -0.2330
  661loPI   C4A10570  10.240  11.716   8.550  0.0807 -0.1805  0.0239
  661loPI   C5A10571   9.984  11.933   8.180 -0.0508 -0.1719  0.0881
  661loPI   C6A10572  10.050  12.091   7.711 -0.1609 -0.2584  0.1723
  661loPI   C1B10573   9.672  11.727   9.794  0.0661 -0.1266  0.0303
  661loPI   C2B10574   9.665  11.717   9.254  0.2005  0.0051  0.1058
  661loPI   C3B10575   9.623  11.676   8.838  0.0683  0.1292 -0.0667
  661loPI   C4B10576   9.666  11.655   8.468  0.4017  0.3115  0.2226
  662loPI    C110577   3.903   0.229  10.858  0.1970  0.1202  0.0566
  662loPI    C210578   4.131  -0.083  10.754  0.0902  0.1300 -0.2135
  662loPI    C310579   4.090   0.015  11.139  0.1721 -0.1527 -0.1310
  662loPI   PO410580   3.855   0.340  10.645 -0.1181  0.1460  0.2203
  662loPI   GL110581   3.996   0.145  10.273 -0.3266  0.2697 -0.0291
  662loPI   GL210582   3.848  -0.099  10.200  0.2647  0.1203 -0.2371
  662loPI   C1A10583   4.094   0.407   9.867 -0.2550 -0.0297 -0.3083
  662loPI   C2A10584   4.172   0.481   9.473  0.0738  0.3060 -0.0587
  662loPI   C3A10585   4.097   0.541   9.077 -0.1329  0.1814 -0.1460
  662loPI   C4A10586   4.111   0.465   8.720  0.1369  0.0598 -0.0810
  662loPI   C5A10587   4.144   0.520   8.249  0.2230 -0.1670 -0.1996
  662loPI   C6A10588   4.446   0.347   8.122 -0.1843  0.1510  0.2286
  662loPI   C1B10589   3.780  -0.033   9.811  0.0839  0.2554 -0.0369
  662loPI   C2B10590   3.800  -0.090   9.342  0.0302 -0.1332 -0.1306
  662loPI   C3B10591   3.893   0.066   8.806 -0.1923 -0.3328  0.2397
  662loPI   C4B10592   3.959  -0.012   8.345  0.2058 -0.2085  0.2641
  663loPI    C110593   1.037  13.135  11.151  0.0195  0.1025  0.0201
  663loPI    C210594   1.161  12.907  11.455 -0.0195 -0.1714 -0.1659
  663loPI    C310595   1.180  13.306  11.484  0.0398 -0.1950  0.1671
  663loPI   PO410596   0.923  12.969  10.964 -0.1901  0.2001  0.1295
  663loPI   GL110597   0.798  12.506  10.714 -0.1232  0.2159 -0.0960
  663loPI   GL210598   0.713  12.219  10.677 -0.1251  0.2813  0.1010
  663loPI   C1A10599   0.988  12.472  10.235 -0.1662  0.1602 -0.2333
  663loPI   C2A10600   1.147  12.553   9.769  0.0002  0.2625 -0.2612
  663loPI   C3A10601   1.129  12.485   9.295 -0.1098  0.0324 -0.0635
  663loPI   C4A10602   1.063  12.571   8.892  0.2893 -0.1829  0.0019
  663loPI   C5A10603   1.015  12.756   8.556 -0.1839  0.1491 -0.1057
  663loPI   C6A10604   1.022  13.179   8.399 -0.2911  0.2240 -0.1381
  663loPI   C1B10605   0.861  11.970  10.316  0.0152  0.1821  0.3881
  663loPI   C2B10606   0.879  12.077   9.861  0.1139  0.1084 -0.4553
  663loPI   C3B10607   0.908  12.033   9.467  0.2464 -0.0051 -0.1277
  663loPI   C4B10608   0.763  12.082   9.126 -0.1653  0.1560  0.1912
  664loPI    C110609  12.729   9.793  11.126  0.1846 -0.0853  0.0071
  664loPI    C210610  12.868  10.124  11.304 -0.0348 -0.0167  0.0548
  664loPI    C310611  12.747   9.813  11.525  0.0364 -0.0741  0.0138
  664loPI   PO410612  12.620   9.809  10.955  0.3592 -0.4439 -0.2099
  664loPI   GL110613  12.711   9.567  10.556  0.0123 -0.1096  0.2232
  664loPI   GL210614  12.788   9.871  10.482  0.2306 -0.0738  0.1678
  664loPI   C1A10615  12.614   9.557  10.120 -0.0066 -0.3991  0.3836
  664loPI   C2A10616  12.643   9.651   9.642  0.3125 -0.0292 -0.4331
  664loPI   C3A10617  12.540   9.568   9.182  0.2658  0.0481  0.0727
  664loPI   C4A10618  12.666   9.501   8.786 -0.2063 -0.1585  0.0623
  664loPI   C5A10619  12.754   9.209   8.476 -0.1684  0.1763 -0.1981
  664loPI   C6A10620  12.894   8.799   8.377  0.2137 -0.2241 -0.5552
  664loPI   C1B10621  12.915   9.966   9.990  0.1699 -0.1376 -0.0877
  664loPI   C2B10622  12.900  10.071   9.563 -0.2321 -0.2211 -0.2593
  664loPI   C3B10623  12.735  10.056   9.170 -0.1904  0.1578 -0.1201
  664loPI   C4B10624  12.775  10.005   8.727  0.0182  0.2030  0.2406
  665loPI    C110625  16.369  12.934  11.308 -0.2981  0.3150  0.0749
  665loPI    C210626  16.029  12.806  11.475 -0.0597  0.0148  0.3429
  665loPI    C310627  16.249  13.085  11.659 -0.0859  0.1019  0.2427
  665loPI   PO410628  16.318  13.034  11.090  0.1952  0.1106 -0.0115
  665loPI   GL110629  16.353  13.015  10.675  0.0709  0.1809  0.1112
  665loPI   GL210630  16.632  13.076  10.587  0.1261 -0.0434 -0.0073
  665loPI   C1A10631  16.267  12.865  10.164  0.0450 -0.1529  0.0357
  665loPI   C2A10632  16.203  12.793   9.694  0.0669  0.1425 -0.0012
  665loPI   C3A10633  16.303  12.919   9.283  0.2665  0.0999  0.1592
  665loPI   C4A10634  16.233  12.897   8.789  0.0518  0.0772  0.1568
  665loPI   C5A10635  16.249  12.919   8.370 -0.0942 -0.1520  0.1185
  665loPI   C6A10636  16.331  13.197   8.048 -0.3052  0.0343  0.0528
  665loPI   C1B10637  16.925  13.179  10.251 -0.2138 -0.0320  0.0058
  665loPI   C2B10638  17.002  13.228   9.780 -0.0069 -0.3415  0.1885
  665loPI   C3B10639  16.967  13.293   9.373 -0.0988  0.0090  0.0327
  665loPI   C4B10640  16.924  13.391   8.919 -0.1178 -0.1277 -0.1865
  666loPI    C110641  12.118  15.318  10.781  0.1037  0.0624  0.2524
  666loPI    C210642  12.311  15.012  10.953 -0.0756 -0.1873  0.0183
  666loPI    C310643  11.926  15.079  11.038 -0.0687 -0.0972 -0.0201
  666loPI   PO410644  12.161  15.334  10.563  0.1166 -0.1887 -0.1717
  666loPI   GL110645  11.961  15.150  10.170  0.1892 -0.3994  0.1111
  666loPI   GL210646  11.849  14.895  10.101  0.0205  0.3125 -0.0213
  666loPI   C1A10647  12.035  15.322   9.783 -0.1502  0.0952  0.0953
  666loPI   C2A10648  12.024  15.294   9.308 -0.1696  0.0376 -0.0016
  666loPI   C3A10649  11.983  15.337   8.814 -0.1749  0.1227  0.0343
  666loPI   C4A10650  11.963  15.420   8.342 -0.0262  0.1825  0.1027
  666loPI   C5A10651  11.962  15.436   7.924 -0.0400  0.1262 -0.0704
  666loPI   C6A10652  11.656  15.647   7.654 -0.0393 -0.0376  0.0088
  666loPI   C1B10653  11.870  14.886   9.616 -0.1830  0.2216 -0.0809
  666loPI   C2B10654  11.800  14.908   9.119  0.1351  0.2748 -0.0893
  666loPI   C3B10655  11.800  14.900   8.630 -0.1361  0.3528  0.3896
  666loPI   C4B10656  11.782  15.008   8.226 -0.0866  0.1603 -0.2771
  667loPI    C110657  15.776   4.668  10.959  0.0432  0.0278 -0.0683
  667loPI    C210658  15.645   4.335  11.138  0.1676  0.0682  0.1007
  667loPI    C310659  15.971   4.521  11.276  0.1437  0.2172 -0.0408
  667loPI   PO410660  15.744   4.606  10.697  0.0670 -0.0541 -0.1354
  667loPI   GL110661  15.764   4.718  10.320  0.1621 -0.2863 -0.1164
  667loPI   GL210662  15.727   5.034  10.106  0.0851  0.0334  0.1550
  667loPI   C1A10663  15.675   4.357  10.009  0.0329 -0.1928  0.2042
  667loPI   C2A10664  15.580   4.292   9.535 -0.1685  0.2201 -0.0240
  667loPI   C3A10665  15.573   4.340   9.136  0.0976  0.1081  0.1618
  667loPI   C4A10666  15.451   4.312   8.683  0.3429  0.3477  0.0094
  667loPI   C5A10667  15.305   4.086   8.299  0.0169  0.0003 -0.1152
  667loPI   C6A10668  15.094   4.293   8.001 -0.0747  0.0397 -0.0187
  667loPI   C1B10669  15.760   4.785   9.739 -0.5317 -0.1421  0.2192
  667loPI   C2B10670  15.777   4.877   9.258  0.0855 -0.0590  0.1251
  667loPI   C3B10671  15.659   4.746   8.818  0.0386 -0.0137  0.0029
  667loPI   C4B10672  15.488   4.695   8.420 -0.0775 -0.0164  0.2116
  668loPI    C110673  10.246   4.811  10.876 -0.1398  0.0402  0.0147
  668loPI    C210674  10.638   4.766  10.941 -0.1081  0.0933 -0.1358
  668loPI    C310675  10.409   4.942  11.217 -0.0953 -0.2779  0.1199
  668loPI   PO410676  10.221   4.921  10.575  0.0232 -0.2000  0.3217
  668loPI   GL110677   9.924   4.846  10.227 -0.0744  0.0144  0.0452
  668loPI   GL210678  10.212   4.968  10.091 -0.0366 -0.0760 -0.0018
  668loPI   C1A10679   9.703   4.988   9.733 -0.0533  0.1225 -0.0068
  668loPI   C2A10680   9.822   4.928   9.304 -0.1447  0.1926 -0.3138
  668loPI   C3A10681   9.770   4.933   8.806 -0.1831 -0.2371 -0.3157
  668loPI   C4A10682   9.833   4.856   8.311  0.0386  0.3575 -0.0392
  668loPI   C5A10683   9.998   5.067   8.025 -0.1041 -0.0033  0.0084
  668loPI   C6A10684  10.385   5.311   7.968  0.0358 -0.2086  0.2909
  668loPI   C1B10685  10.242   4.946   9.726 -0.2740 -0.0040 -0.1015
  668loPI   C2B10686  10.358   4.871   9.357  0.0493 -0.0465  0.1655
  668loPI   C3B10687  10.238   4.943   8.872 -0.1207 -0.4356 -0.0671
  668loPI   C4B10688  10.364   4.977   8.457  0.3312  0.0650  0.1198
  669loPI    C110689   0.695  16.882  10.928  0.1502  0.1570  0.1140
  669loPI    C210690   0.440  16.577  10.979  0.1804  0.1118 -0.0022
  669loPI    C310691   0.542  16.807  11.290 -0.1168  0.2215  0.0165
  669loPI   PO410692   0.927  16.710  10.857 -0.1179 -0.3290  0.1260
  669loPI   GL110693   1.085  16.478  10.488 -0.0300 -0.0310  0.0635
  669loPI   GL210694   1.357  16.325  10.578 -0.1904 -0.0467 -0.0585
  669loPI   C1A10695   1.148  16.599  10.067  0.1534  0.3130 -0.1934
  669loPI   C2A10696   1.055  16.561   9.739  0.0323  0.1256  0.1732
  669loPI   C3A10697   1.127  16.573   9.385 -0.1781  0.2975 -0.1091
  669loPI   C4A10698   1.076  16.663   8.950 -0.3700  0.1180 -0.1566
  669loPI   C5A10699   1.017  16.714   8.493  0.0380 -0.3118  0.0486
  669loPI   C6A10700   0.815  16.880   8.076  0.0364  0.1106  0.1732
  669loPI   C1B10701   1.391  16.171  10.134 -0.2202 -0.0940  0.0744
  669loPI   C2B10702   1.329  16.126   9.693 -0.1020 -0.1072  0.1169
  669loPI   C3B10703   1.404  16.202   9.228  0.1190 -0.1493 -0.0424
  669loPI   C4B10704   1.394  16.197   8.803 -0.0581  0.1913  0.1759
  670loPI    C110705  11.480  16.162  10.606  0.2709  0.3487 -0.3487
  670loPI    C210706  11.118  16.164  10.437  0.1604  0.1515 -0.1213
  670loPI    C310707  11.228  16.466  10.675  0.0348  0.0755  0.0353
  670loPI   PO410708  11.645  16.101  10.464  0.3350 -0.0267  0.1621
  670loPI   GL110709  11.659  15.959  10.012  0.0934  0.1145 -0.0776
  670loPI   GL210710  11.862  15.774   9.890 -0.0275  0.0640  0.2133
  670loPI   C1A10711  11.361  15.947   9.706  0.0995 -0.1839  0.0260
  670loPI   C2A10712  11.268  15.855   9.261 -0.0803  0.1978  0.2130
  670loPI   C3A10713  11.263  15.710   8.827 -0.0440  0.3058 -0.0100
  670loPI   C4A10714  11.155  15.773   8.457 -0.2246  0.0975 -0.1037
  670loPI   C5A10715  11.287  15.750   7.953 -0.2532  0.1324  0.1032
  670loPI   C6A10716  11.341  16.107   7.601 -0.1909  0.1125 -0.5052
  670loPI   C1B10717  11.715  15.718   9.460  0.0023 -0.0502  0.0700
  670loPI   C2B10718  11.676  15.780   9.020 -0.0568  0.0518  0.1604
  670loPI   C3B10719  11.718  15.823   8.572  0.0023 -0.1057  0.1443
  670loPI   C4B10720  11.804  15.874   8.130 -0.0255 -0.1331  0.2352
  671loPI    C110721   3.364   9.324  10.875 -0.1604  0.0726 -0.1281
  671loPI    C210722   3.185   9.306  11.232  0.0543  0.2268 -0.0105
  671loPI    C310723   3.080   9.050  10.943  0.0124 -0.0255  0.2233
  671loPI   PO410724   3.365   9.606  10.834  0.1313 -0.1436  0.1819
  671loPI   GL110725   3.546   9.849  10.469  0.0649  0.1484  0.3248
  671loPI   GL210726   3.664   9.571  10.456 -0.1035  0.0030 -0.1240
  671loPI   C1A10727   3.403   9.859  10.041  0.1155 -0.0372 -0.1640
  671loPI   C2A10728   3.213   9.942   9.717  0.0876  0.3816 -0.1202
  671loPI   C3A10729   3.338  10.039   9.344  0.0884 -0.2936 -0.0941
  671loPI   C4A10730   3.275  10.018   8.935 -0.0933 -0.0713  0.0138
  671loPI   C5A10731   3.366   9.907   8.552  0.0058 -0.2139 -0.2261
  671loPI   C6A10732   3.480   9.634   8.400 -0.0202  0.1290  0.1762
  671loPI   C1B10733   3.739   9.464  10.098  0.3651 -0.1781  0.0805
  671loPI   C2B10734   3.595   9.535   9.680 -0.1832  0.4030 -0.0673
  671loPI   C3B10735   3.524   9.533   9.338 -0.2356 -0.2234  0.0962
  671loPI   C4B10736   3.603   9.619   8.978  0.1046  0.1416 -0.2150
  672loPI    C110737   0.216  12.975  11.409  0.0019  0.2189  0.1423
  672loPI    C210738   0.050  12.611  11.413 -0.3296  0.3655  0.0699
  672loPI    C310739  -0.046  12.878  11.695  0.0183  0.3541  0.2037
  672loPI   PO410740   0.445  12.946  11.185  0.0822 -0.0912  0.0407
  672loPI   GL110741   0.470  12.868  10.762 -0.1734  0.1325  0.0346
  672loPI   GL210742   0.740  13.126  10.502 -0.1394 -0.0928 -0.0735
  672loPI   C1A10743   0.252  12.912  10.340 -0.1513  0.0809 -0.2200
  672loPI   C2A10744   0.236  12.916   9.934  0.2278  0.0255  0.0668
  672loPI   C3A10745   0.293  12.888   9.430  0.0398 -0.4462  0.1155
  672loPI   C4A10746   0.277  12.956   9.026 -0.0839 -0.2002  0.1902
  672loPI   C5A10747   0.072  12.978   8.676  0.2993 -0.3985  0.0838
  672loPI   C6A10748   0.049  13.179   8.314 -0.0019  0.1070 -0.0986
  672loPI   C1B10749   0.757  12.921  10.054 -0.1378 -0.1874  0.0214
  672loPI   C2B10750   0.747  12.895   9.613 -0.0993  0.3679  0.1719
  672loPI   C3B10751   0.812  12.993   9.187 -0.1148  0.1242  0.0250
  672loPI   C4B10752   0.697  13.055   8.769  0.1006 -0.1011 -0.0959
  673loPI    C110753   4.123   1.613  10.504  0.0702  0.2784 -0.2758
  673loPI    C210754   4.143   1.979  10.664 -0.0567  0.1557  0.0289
  673loPI    C310755   3.984   1.678  10.873  0.1445 -0.0987 -0.1775
  673loPI   PO410756   4.219   1.663  10.261  0.1718 -0.0552  0.0674
  673loPI   GL110757   4.481   1.307   9.968 -0.0160  0.1831 -0.0997
  673loPI   GL210758   4.560   1.555   9.882  0.1150 -0.0662  0.2786
  673loPI   C1A10759   4.542   1.241   9.524 -0.2535 -0.0070 -0.2562
  673loPI   C2A10760   4.533   1.335   9.077  0.1591  0.0347 -0.0995
  673loPI   C3A10761   4.592   1.445   8.702  0.2917 -0.0300  0.0006
  673loPI   C4A10762   4.499   1.399   8.344  0.0125 -0.0120 -0.5214
  673loPI   C5A10763   4.364   1.364   7.982 -0.0915  0.2317 -0.1299
  673loPI   C6A10764   4.625   1.263   7.591 -0.0795  0.2229  0.1895
  673loPI   C1B10765   4.698   1.722   9.462  0.1704 -0.0721  0.0398
  673loPI   C2B10766   4.884   1.836   9.062  0.0202  0.0421  0.0532
  673loPI   C3B10767   4.815   1.833   8.566 -0.2419 -0.0952  0.1043
  673loPI   C4B10768   4.821   1.935   8.213 -0.0712 -0.2247  0.1886
  674loPI    C110769  17.828   8.852  11.286  0.0872  0.2240  0.1457
  674loPI    C210770  17.951   8.842  11.666  0.0005  0.0291  0.1699
  674loPI    C310771  17.576   8.950  11.580  0.0483  0.1662  0.1321
  674loPI   PO410772  18.022   9.026  11.086  0.1366 -0.4827  0.1291
  674loPI   GL110773  18.141   9.136  10.592  0.4093  0.2622  0.0511
  674loPI   GL210774  18.367   8.924  10.470 -0.1026 -0.1832  0.1221
  674loPI   C1A10775  17.977   9.264  10.119 -0.1561 -0.2452 -0.0012
  674loPI   C2A10776  18.075   9.295   9.771 -0.0714  0.1532 -0.0294
  674loPI   C3A10777  18.058   9.281   9.398 -0.1021 -0.0226  0.0973
  674loPI   C4A10778  18.044   9.361   9.080 -0.2411  0.1153  0.1226
  674loPI   C5A10779  18.099   9.348   8.582 -0.0061  0.0824 -0.2221
  674loPI   C6A10780  18.280   8.969   8.327 -0.0478 -0.0223  0.1764
  674loPI   C1B10781  18.366   8.879  10.054  0.3155 -0.1862 -0.2640
  674loPI   C2B10782  18.444   8.887   9.613  0.4998 -0.0275 -0.2210
  674loPI   C3B10783  18.286   8.879   9.214 -0.2488 -0.0021 -0.0227
  674loPI   C4B10784  18.379   8.974   8.804  0.0066 -0.0917  0.1232
  675loPI    C110785  11.482  15.200  10.718  0.3408 -0.2713 -0.0647
  675loPI    C210786  11.664  15.531  10.849  0.0831 -0.0987 -0.1364
  675loPI    C310787  11.363  15.372  11.059  0.0015 -0.1085 -0.2595
  675loPI   PO410788  11.436  15.218  10.495 -0.1133  0.1236  0.0335
  675loPI   GL110789  11.351  15.199  10.103  0.1908 -0.0172 -0.2780
  675loPI   GL210790  11.573  15.418   9.945 -0.2258  0.3006  0.2052
  675loPI   C1A10791  11.396  14.887   9.832  0.0242  0.1637  0.5777
  675loPI   C2A10792  11.319  14.869   9.344  0.1265 -0.2518  0.1005
  675loPI   C3A10793  11.341  14.809   8.893  0.1536  0.2086 -0.2873
  675loPI   C4A10794  11.201  14.871   8.514  0.2145 -0.0516  0.0937
  675loPI   C5A10795  11.182  14.767   8.032  0.1852 -0.0942  0.2431
  675loPI   C6A10796  10.925  14.855   7.752  0.0330  0.1307  0.3099
  675loPI   C1B10797  11.508  15.267   9.562  0.1580  0.2101 -0.2144
  675loPI   C2B10798  11.463  15.332   9.176 -0.3438 -0.1713  0.2261
  675loPI   C3B10799  11.445  15.295   8.631 -0.4324 -0.1274 -0.2421
  675loPI   C4B10800  11.413  15.365   8.206 -0.0175 -0.1004 -0.1576
  676loPI    C110801   3.205  16.145  10.888 -0.0957 -0.2223 -0.0132
  676loPI    C210802   3.534  16.230  11.099 -0.0750 -0.2587 -0.0305
  676loPI    C310803   3.330  15.895  11.175 -0.1012 -0.2423 -0.0280
  676loPI   PO410804   3.279  16.207  10.606 -0.0253 -0.0921  0.4788
  676loPI   GL110805   3.148  16.081  10.198 -0.1451 -0.0261 -0.2100
  676loPI   GL210806   3.256  15.751  10.094  0.0070 -0.1586  0.0538
  676loPI   C1A10807   2.940  16.155   9.831 -0.0139  0.0516  0.0376
  676loPI   C2A10808   2.881  16.207   9.426 -0.1588 -0.2205 -0.0751
  676loPI   C3A10809   2.907  16.251   9.044  0.0532 -0.3198  0.0070
  676loPI   C4A10810   2.889  16.277   8.540  0.0774 -0.1098 -0.0682
  676loPI   C5A10811   3.197  16.227   8.158 -0.3529  0.2489 -0.0746
  676loPI   C6A10812   3.525  15.924   8.057 -0.0094  0.2045 -0.3430
  676loPI   C1B10813   3.218  15.716   9.724  0.0367  0.1645  0.0378
  676loPI   C2B10814   3.133  15.795   9.305  0.1234 -0.0055 -0.0914
  676loPI   C3B10815   3.205  15.812   8.928  0.0404  0.2020 -0.1250
  676loPI   C4B10816   3.251  15.842   8.543  0.0424 -0.1585  0.0110
  677PSPI    C110817   8.401   2.543   5.836 -0.0939  0.1604 -0.1829
  677PSPI    C210818   8.228   2.552   6.196  0.0070  0.0322 -0.1301
  677PSPI    C310819   8.011   2.624   5.868 -0.1065  0.0520 -0.0515
  677PSPI   PO410820   8.523   2.280   5.882 -0.0096 -0.0876  0.2755
  677PSPI   GL110821   8.461   2.030   6.143 -0.2651  0.1101 -0.3539
  677PSPI   GL210822   8.319   1.730   6.184  0.1839 -0.2535 -0.0527
  677PSPI   C1A10823   8.399   2.239   6.524 -0.2074 -0.0034 -0.0858
  677PSPI   C2A10824   8.463   2.265   6.916 -0.0599 -0.0658 -0.0201
  677PSPI   C3A10825   8.545   2.154   7.327  0.0029 -0.3048  0.0316
  677PSPI   C4A10826   8.489   2.065   7.713 -0.1300 -0.0305  0.0451
  677PSPI   C1B10827   8.549   1.701   6.678  0.0392 -0.0888  0.1199
  677PSPI   C2B10828   8.749   1.633   7.184 -0.0275  0.0660  0.0531
  677PSPI   C3B10829   8.824   1.442   7.581  0.3802 -0.2439 -0.1835
  677PSPI   C4B10830   9.007   1.258   7.965 -0.0351  0.2188 -0.0081
  678PSPI    C110831   4.998   7.417   5.779 -0.0403  0.0241  0.2845
  678PSPI    C210832   5.013   7.807   5.691  0.1284 -0.0108  0.1544
  678PSPI    C310833   4.818   7.554   5.450  0.1791 -0.0344  0.1380
  678PSPI   PO410834   5.267   7.332   5.910 -0.0199 -0.0907  0.2190
  678PSPI   GL110835   5.277   7.185   6.319 -0.0988  0.1472  0.0045
  678PSPI   GL210836   5.275   7.376   6.556  0.1660  0.0883 -0.1170
  678PSPI   C1A10837   5.103   6.921   6.680 -0.0743  0.2276  0.2614
  678PSPI   C2A10838   4.970   6.973   7.147  0.0034 -0.0372 -0.2664
  678PSPI   C3A10839   5.062   7.195   7.512  0.1263 -0.0313 -0.2476
  678PSPI   C4A10840   5.168   7.143   7.958 -0.0263 -0.0219 -0.3358
  678PSPI   C1B10841   5.361   7.241   6.970  0.0262 -0.2123 -0.2251
  678PSPI   C2B10842   5.487   6.944   7.376 -0.0133  0.0757  0.0343
  678PSPI   C3B10843   5.636   6.840   7.677 -0.5481 -0.0788  0.2692
  678PSPI   C4B10844   5.733   6.700   8.115 -0.0862  0.0577 -0.0674
  679PSPI    C110845   6.619   4.682   5.414 -0.1397  0.0382  0.1254
  679PSPI    C210846   6.992   4.826   5.388 -0.0690 -0.1289  0.1954
  679PSPI    C310847   6.804   4.699   5.059 -0.0674 -0.0378  0.1589
  679PSPI   PO410848   6.537   4.737   5.704  0.0430 -0.1716  0.1114
  679PSPI   GL110849   6.575   5.178   5.995 -0.0421  0.1824 -0.1758
  679PSPI   GL210850   6.302   5.352   5.993  0.1611 -0.1444 -0.1293
  679PSPI   C1A10851   6.670   4.903   6.398 -0.1859 -0.1286 -0.0191
  679PSPI   C2A10852   6.391   4.501   6.560 -0.0514 -0.1287 -0.1151
  679PSPI   C3A10853   5.956   4.406   6.614 -0.0596 -0.0754  0.0859
  679PSPI   C4A10854   5.747   4.155   6.738 -0.0308 -0.0568  0.0192
  679PSPI   C1B10855   6.447   5.308   6.494  0.1876 -0.0629 -0.0582
  679PSPI   C2B10856   6.705   5.279   6.975  0.1753 -0.0001 -0.3867
  679PSPI   C3B10857   6.570   4.990   7.388  0.1492  0.0611 -0.1477
  679PSPI   C4B10858   6.338   4.665   7.533  0.1532  0.3317  0.2093
  680PSPI    C110859   9.910   7.636   5.800 -0.1612  0.0218  0.2161
  680PSPI    C210860   9.588   7.645   6.036 -0.3747  0.1618 -0.0748
  680PSPI    C310861   9.619   7.367   5.750 -0.2938  0.2221 -0.1251
  680PSPI   PO410862  10.146   7.603   5.917 -0.3209  0.0181  0.0255
  680PSPI   GL110863  10.095   7.615   6.401 -0.2073 -0.3336 -0.4196
  680PSPI   GL210864  10.434   7.753   6.336  0.0323  0.0509  0.0491
  680PSPI   C1A10865  10.066   7.333   6.706  0.0366 -0.1184  0.0623
  680PSPI   C2A10866   9.946   7.259   7.189 -0.0067  0.1647 -0.0143
  680PSPI   C3A10867   9.966   7.068   7.672 -0.0284  0.1634  0.1622
  680PSPI   C4A10868   9.932   6.590   7.780  0.2493  0.0726  0.1065
  680PSPI   C1B10869  10.365   7.746   6.754  0.1387 -0.0172 -0.2313
  680PSPI   C2B10870  10.189   7.671   7.098  0.1842  0.0897 -0.1350
  680PSPI   C3B10871   9.965   7.712   7.507  0.0953  0.0487  0.1400
  680PSPI   C4B10872   9.975   7.821   7.803  0.1843 -0.2845  0.2552
  681PSPI    C110873  17.427  16.179   5.287  0.2165  0.0190 -0.0492
  681PSPI    C210874  17.263  16.125   4.926  0.1600  0.1165 -0.0388
  681PSPI    C310875  17.490  15.838   5.088  0.1443  0.0522 -0.1297
  681PSPI   PO410876  17.287  16.199   5.608  0.0680 -0.1023  0.1399
  681PSPI   GL110877  17.347  16.068   6.108 -0.0372 -0.0466  0.3464
  681PSPI   GL210878  17.273  16.388   6.207  0.0479  0.0991  0.0321
  681PSPI   C1A10879  17.310  15.809   6.449 -0.2778 -0.1206  0.0608
  681PSPI   C2A10880  17.359  15.769   6.893  0.3091  0.1580  0.0883
  681PSPI   C3A10881  17.472  15.854   7.242  0.1467  0.1851 -0.1718
  681PSPI   C4A10882  17.537  15.903   7.696 -0.3187  0.1728 -0.1963
  681PSPI   C1B10883  17.156  16.446   6.545  0.4403 -0.3255 -0.0204
  681PSPI   C2B10884  16.991  16.688   6.926 -0.2220 -0.0528  0.0717
  681PSPI   C3B10885  16.749  16.550   7.284 -0.0334  0.1503  0.1784
  681PSPI   C4B10886  16.529  16.488   7.671  0.0931  0.0173  0.0175
  682PSPI    C110887   3.104  13.519   5.922 -0.0193  0.1256  0.1668
  682PSPI    C210888   2.745  13.345   5.955  0.0069  0.0392  0.0053
  682PSPI    C310889   2.841  13.544   5.621  0.1199  0.0380  0.0367
  682PSPI   PO410890   3.118  13.646   6.223  0.1310  0.1013 -0.1764
  682PSPI   GL110891   2.887  13.821   6.553 -0.1238 -0.1561  0.1047
  682PSPI   GL210892   2.537  13.906   6.520  0.1278  0.0946  0.0943
  682PSPI   C1A10893   2.872  13.973   6.952  0.1038 -0.3647  0.0902
  682PSPI   C2A10894   2.877  14.138   7.381 -0.0250  0.1351 -0.3983
  682PSPI   C3A10895   2.928  14.074   7.808 -0.0711  0.0632  0.1389
  682PSPI   C4A10896   2.817  14.069   8.270 -0.0591 -0.2291 -0.0394
  682PSPI   C1B10897   2.458  13.732   6.915 -0.1454  0.0008 -0.0136
  682PSPI   C2B10898   2.584  13.571   7.309  0.1642 -0.2425 -0.0939
  682PSPI   C3B10899   2.411  13.286   7.670 -0.1162 -0.0432  0.0400
  682PSPI   C4B10900   2.484  12.960   7.957  0.0609 -0.1496 -0.1351
  683PSPI    C110901   8.755   6.840   5.779  0.0950 -0.0089  0.1932
  683PSPI    C210902   8.940   7.194   5.797 -0.0585  0.0927 -0.1507
  683PSPI    C310903   8.857   7.029   5.442  0.1158 -0.3466  0.0051
  683PSPI   PO410904   8.610   6.813   5.956  0.2222 -0.0654 -0.1196
  683PSPI   GL110905   8.550   6.884   6.456 -0.3014 -0.2510  0.2515
  683PSPI   GL210906   8.701   7.111   6.593  0.0079 -0.1826 -0.1948
  683PSPI   C1A10907   8.623   6.980   7.028  0.6711  0.0364 -0.1108
  683PSPI   C2A10908   8.665   6.948   7.382  0.0423 -0.0327 -0.0739
  683PSPI   C3A10909   8.560   6.965   7.781 -0.0705 -0.1750  0.0325
  683PSPI   C4A10910   8.514   6.810   8.186  0.2398  0.3184 -0.0901
  683PSPI   C1B10911   9.137   6.894   6.714  0.5254 -0.0666  0.0652
  683PSPI   C2B10912   9.144   6.836   7.163 -0.0902 -0.3170 -0.1235
  683PSPI   C3B10913   9.076   6.835   7.656 -0.0838 -0.1246 -0.1693
  683PSPI   C4B10914   9.078   6.808   8.077  0.2347  0.0098  0.1706
  684PSPI    C110915  11.093   6.959   5.817 -0.0458 -0.0575  0.0273
  684PSPI    C210916  11.363   6.694   5.687  0.0895  0.0338  0.1181
  684PSPI    C310917  10.994   6.573   5.783  0.0410 -0.0632 -0.1776
  684PSPI   PO410918  11.105   7.042   6.078  0.0729 -0.3516  0.0671
  684PSPI   GL110919  10.962   7.104   6.544 -0.0006 -0.1296 -0.0116
  684PSPI   GL210920  10.754   7.273   6.576  0.0742  0.2262  0.1664
  684PSPI   C1A10921  11.004   7.136   6.998 -0.1964  0.1098 -0.0874
  684PSPI   C2A10922  10.873   7.189   7.396  0.0967 -0.0816 -0.1396
  684PSPI   C3A10923  10.772   7.271   7.739 -0.0245 -0.1530  0.1314
  684PSPI   C4A10924  10.794   7.385   8.182 -0.0944  0.0842  0.0333
  684PSPI   C1B10925  10.671   7.485   7.006 -0.1421 -0.0840  0.2157
  684PSPI   C2B10926  10.652   7.666   7.388 -0.0018  0.0729  0.0302
  684PSPI   C3B10927  10.916   7.776   7.825  0.1660 -0.0946 -0.0915
  684PSPI   C4B10928  11.225   7.899   8.073 -0.2969  0.4842 -0.3850
  685PSPI    C110929  11.866   5.076   5.657 -0.0813 -0.0119 -0.3123
  685PSPI    C210930  11.885   5.461   5.549  0.0108 -0.0188 -0.3218
  685PSPI    C310931  11.557   5.246   5.468 -0.2266  0.1768  0.0835
  685PSPI   PO410932  11.847   5.032   5.935 -0.2032 -0.1196  0.0048
  685PSPI   GL110933  11.701   5.317   6.136 -0.0619  0.1225  0.5290
  685PSPI   GL210934  11.572   5.335   6.374  0.0670  0.0464 -0.0470
  685PSPI   C1A10935  12.034   5.462   6.451  0.0069  0.1367 -0.1381
  685PSPI   C2A10936  12.176   5.545   6.892  0.2341 -0.0095  0.0884
  685PSPI   C3A10937  12.234   5.565   7.425 -0.1269  0.2364  0.0492
  685PSPI   C4A10938  12.115   5.820   7.725 -0.1882 -0.0346  0.0464
  685PSPI   C1B10939  11.617   5.314   6.719 -0.0639 -0.1839 -0.2131
  685PSPI   C2B10940  11.722   5.378   7.133 -0.2973 -0.0896  0.0089
  685PSPI   C3B10941  11.727   5.440   7.537 -0.2841 -0.1706  0.1417
  685PSPI   C4B10942  11.729   5.587   7.955  0.0608 -0.0360 -0.1305
  686PSPI    C110943  13.559  15.641   5.509  0.0496 -0.0382 -0.0043
  686PSPI    C210944  13.948  15.718   5.455 -0.0057  0.1913 -0.0871
  686PSPI    C310945  13.780  15.400   5.279  0.1717  0.0167  0.0546
  686PSPI   PO410946  13.555  15.673   5.763 -0.0379  0.0636 -0.0332
  686PSPI   GL110947  13.701  15.768   6.199  0.0535  0.2011  0.1414
  686PSPI   GL210948  13.494  16.002   6.282 -0.0301  0.0040  0.0617
  686PSPI   C1A10949  13.916  15.486   6.504  0.1537  0.2141 -0.4047
  686PSPI   C2A10950  13.949  15.433   6.944 -0.2046 -0.0105  0.0362
  686PSPI   C3A10951  13.820  15.597   7.332 -0.2558  0.2969 -0.0611
  686PSPI   C4A10952  13.507  15.436   7.523 -0.2204  0.0108 -0.1865
  686PSPI   C1B10953  13.609  15.956   6.752  0.1116  0.1954  0.0594
  686PSPI   C2B10954  13.443  15.949   7.163 -0.1740 -0.0910 -0.0029
  686PSPI   C3B10955  13.661  16.089   7.434 -0.1596  0.1291 -0.1373
  686PSPI   C4B10956  13.847  16.179   7.819  0.0167  0.2054  0.0523
  687PSPI    C110957   0.254  13.166   6.072 -0.2612 -0.2401  0.0935
  687PSPI    C210958   0.313  13.057   5.692  0.1146 -0.1290  0.1166
  687PSPI    C310959  -0.020  13.254   5.793 -0.0520 -0.2790 -0.1276
  687PSPI   PO410960   0.490  13.242   6.167 -0.0942 -0.0159  0.3740
  687PSPI   GL110961   0.522  13.451   6.543 -0.0903  0.0326 -0.1863
  687PSPI   GL210962   0.605  13.177   6.776 -0.1122 -0.0082  0.1620
  687PSPI   C1A10963   0.255  13.728   6.769 -0.0272 -0.1325  0.2204
  687PSPI   C2A10964   0.085  14.114   7.082 -0.4158 -0.2930 -0.1605
  687PSPI   C3A10965   0.351  14.308   7.308 -0.1442 -0.3135 -0.1695
  687PSPI   C4A10966   0.363  14.533   7.657 -0.2264 -0.0516  0.1427
  687PSPI   C1B10967   0.371  13.337   7.026  0.1676  0.1119  0.2936
  687PSPI   C2B10968   0.382  13.273   7.442  0.0528 -0.1078 -0.1356
  687PSPI   C3B10969   0.242  13.433   7.884  0.0330 -0.1988 -0.1383
  687PSPI   C4B10970  -0.100  13.672   8.142 -0.0679  0.3792 -0.1104
  688PSPI    C110971  17.831  14.407   6.126  0.1007  0.0969  0.0271
  688PSPI    C210972  17.910  14.426   5.735  0.1452  0.0276  0.0326
  688PSPI    C310973  18.060  14.127   5.955  0.3059  0.1893  0.1460
  688PSPI   PO410974  17.921  14.672   6.152  0.0685 -0.1584 -0.1032
  688PSPI   GL110975  17.659  15.041   6.380  0.1094 -0.1882  0.0277
  688PSPI   GL210976  17.515  14.793   6.365  0.1654  0.1819  0.1868
  688PSPI   C1A10977  17.424  15.277   6.545 -0.3001  0.1238 -0.0728
  688PSPI   C2A10978  17.200  15.307   6.889 -0.1595 -0.0146 -0.0779
  688PSPI   C3A10979  16.972  15.202   7.296 -0.0163  0.1111 -0.1087
  688PSPI   C4A10980  17.097  14.977   7.685  0.0902  0.0002 -0.0290
  688PSPI   C1B10981  17.573  14.859   6.835  0.0939  0.0142  0.0157
  688PSPI   C2B10982  17.393  14.988   7.225 -0.2294 -0.2005  0.2091
  688PSPI   C3B10983  17.621  14.906   7.563  0.1983 -0.4848 -0.0470
  688PSPI   C4B10984  17.416  14.817   8.025  0.2100 -0.2077 -0.0404
  689PSPI    C110985   5.447   2.505   5.278  0.2348 -0.0087  0.1315
  689PSPI    C210986   5.370   2.843   5.078  0.1286 -0.0853  0.0416
  689PSPI    C310987   5.078   2.576   5.140  0.1479 -0.0394  0.3443
  689PSPI   PO410988   5.543   2.672   5.526 -0.2007 -0.0226 -0.0009
  689PSPI   GL110989   5.566   2.582   6.132  0.1159 -0.0120  0.0889
  689PSPI   GL210990   5.328   2.726   5.999  0.3888 -0.0575  0.0716
  689PSPI   C1A10991   5.468   2.476   6.521 -0.0852 -0.1174 -0.0582
  689PSPI   C2A10992   5.398   2.479   6.963  0.1073  0.0017 -0.2764
  689PSPI   C3A10993   5.411   2.644   7.348 -0.2365  0.1280  0.1141
  689PSPI   C4A10994   5.386   2.739   7.744 -0.1827  0.2596  0.0237
  689PSPI   C1B10995   5.229   2.862   6.382 -0.0744  0.1387 -0.0492
  689PSPI   C2B10996   5.257   2.913   6.767 -0.0999 -0.4285  0.0377
  689PSPI   C3B10997   5.433   3.194   7.052 -0.0756 -0.0584  0.0071
  689PSPI   C4B10998   5.608   3.090   7.474  0.1460 -0.3302 -0.1467
  690PSPI    C110999   4.978   1.410   5.511 -0.0992 -0.0074 -0.1613
  690PSPI    C211000   5.157   1.764   5.457 -0.0909 -0.0099 -0.1502
  690PSPI    C311001   4.780   1.709   5.335 -0.0925  0.0030 -0.1513
  690PSPI   PO411002   5.043   1.330   5.790 -0.1710  0.0315 -0.2745
  690PSPI   GL111003   5.034   1.696   6.103 -0.4890  0.0833 -0.2231
  690PSPI   GL211004   4.802   1.818   5.953  0.2746 -0.0370 -0.0205
  690PSPI   C1A11005   4.861   1.827   6.440 -0.0153 -0.1330 -0.1046
  690PSPI   C2A11006   4.798   1.743   6.857 -0.2365  0.1417  0.0824
  690PSPI   C3A11007   4.678   1.764   7.262  0.0789  0.1194 -0.2219
  690PSPI   C4A11008   4.695   1.806   7.763 -0.0348  0.0609 -0.2574
  690PSPI   C1B11009   4.503   2.099   6.159 -0.0055  0.0405 -0.0640
  690PSPI   C2B11010   4.470   2.098   6.580 -0.1325  0.0623  0.0297
  690PSPI   C3B11011   4.288   1.972   6.910  0.1081  0.3136  0.2997
  690PSPI   C4B11012   4.174   1.994   7.311 -0.1564 -0.1418  0.1574
  691PSPI    C111013  16.059   4.867   6.026  0.0493 -0.0829 -0.1339
  691PSPI    C211014  15.720   5.024   5.883 -0.0550 -0.1520  0.0343
  691PSPI    C311015  16.070   5.117   5.713 -0.1591 -0.0961 -0.1534
  691PSPI   PO411016  15.920   4.654   6.126  0.3454 -0.1510  0.0206
  691PSPI   GL111017  15.752   4.524   6.538  0.0163  0.1585 -0.4350
  691PSPI   GL211018  15.943   4.312   6.634 -0.1811 -0.0863  0.3021
  691PSPI   C1A11019  15.669   4.552   6.953 -0.1662 -0.0557  0.0798
  691PSPI   C2A11020  15.793   4.724   7.329  0.2722 -0.1625  0.3763
  691PSPI   C3A11021  15.860   4.608   7.692 -0.0402  0.4553 -0.1817
  691PSPI   C4A11022  15.645   4.363   8.008 -0.0525  0.1618 -0.2130
  691PSPI   C1B11023  16.064   4.203   6.991  0.1651  0.0289 -0.0722
  691PSPI   C2B11024  16.018   4.202   7.383  0.0175 -0.0198 -0.2732
  691PSPI   C3B11025  16.015   4.084   7.748  0.3150 -0.0545  0.3968
  691PSPI   C4B11026  15.853   3.789   8.107  0.2193 -0.0233  0.2177
  692PSPI    C111027   6.990  10.405   5.893  0.0025  0.2030  0.2107
  692PSPI    C211028   6.834  10.723   5.708  0.1959  0.0829 -0.1701
  692PSPI    C311029   7.119  10.508   5.529  0.1410 -0.2464  0.1263
  692PSPI   PO411030   7.105  10.420   6.122 -0.1385  0.2032  0.1689
  692PSPI   GL111031   7.118  10.045   6.399  0.1223 -0.1971  0.2006
  692PSPI   GL211032   6.899  10.132   6.526 -0.0780  0.2868 -0.3418
  692PSPI   C1A11033   7.237   9.637   6.713 -0.0580  0.2610  0.2161
  692PSPI   C2A11034   7.415   9.271   6.881  0.0728  0.1540 -0.3555
  692PSPI   C3A11035   7.409   8.953   7.123 -0.1440  0.2606 -0.1293
  692PSPI   C4A11036   7.599   8.629   7.258  0.0461  0.0305  0.1176
  692PSPI   C1B11037   6.854   9.848   6.889  0.0766  0.1320  0.1437
  692PSPI   C2B11038   7.089   9.696   7.230 -0.0299 -0.2135 -0.2939
  692PSPI   C3B11039   7.281   9.396   7.439  0.0389 -0.0406 -0.2935
  692PSPI   C4B11040   7.505   9.117   7.583 -0.2251 -0.1007 -0.1137
  693PSPI    C111041  17.467   6.436   5.728 -0.1581 -0.1924  0.2253
  693PSPI    C211042  17.159   6.536   5.493 -0.0824 -0.2398  0.1046
  693PSPI    C311043  17.158   6.186   5.688 -0.1341 -0.2114  0.1555
  693PSPI   PO411044  17.619   6.618   5.700 -0.0305  0.1505  0.1297
  693PSPI   GL111045  17.555   6.641   6.204 -0.1151  0.3091 -0.2230
  693PSPI   GL211046  17.251   6.588   6.268  0.3322 -0.1121 -0.0850
  693PSPI   C1A11047  17.706   6.515   6.670  0.2770 -0.0822  0.0641
  693PSPI   C2A11048  17.676   6.645   7.083 -0.2005 -0.0967  0.0402
  693PSPI   C3A11049  17.519   6.498   7.495 -0.0621 -0.3084 -0.2537
  693PSPI   C4A11050  17.343   6.436   7.901 -0.0673 -0.1522 -0.1374
  693PSPI   C1B11051  17.286   6.821   6.687  0.2727 -0.1450  0.1701
  693PSPI   C2B11052  17.331   6.937   6.996 -0.1273 -0.1840  0.0472
  693PSPI   C3B11053  17.251   6.980   7.438 -0.1858  0.2180 -0.1150
  693PSPI   C4B11054  17.447   6.941   7.785  0.1153  0.0276  0.2034
  694PSPI    C111055   1.129  13.132   6.251  0.2473  0.3006  0.0345
  694PSPI    C211056   1.453  13.175   6.482  0.2179  0.1711  0.1009
  694PSPI    C311057   1.303  12.811   6.413  0.1348  0.2231  0.0029
  694PSPI   PO411058   0.974  13.294   6.354 -0.0126  0.1968  0.1994
  694PSPI   GL111059   1.099  13.496   6.727  0.0683  0.1637  0.1411
  694PSPI   GL211060   1.107  13.061   6.810  0.0207  0.2901  0.1440
  694PSPI   C1A11061   1.183  13.645   7.066 -0.1523  0.1353  0.1284
  694PSPI   C2A11062   1.524  13.996   7.208  0.2302 -0.3100 -0.0703
  694PSPI   C3A11063   1.549  14.323   7.562 -0.0402 -0.0786  0.0487
  694PSPI   C4A11064   1.597  14.603   7.959  0.0231  0.1516  0.2563
  694PSPI   C1B11065   1.003  13.276   7.305  0.3764  0.1715  0.0745
  694PSPI   C2B11066   0.894  13.394   7.672  0.0701 -0.0459  0.1407
  694PSPI   C3B11067   1.149  13.539   8.040 -0.1620  0.0087 -0.1272
  694PSPI   C4B11068   1.264  13.852   8.290 -0.0212  0.2688 -0.0071
  695PSPI    C111069  12.196   4.735   5.418  0.0572 -0.0426  0.0049
  695PSPI    C211070  12.066   4.389   5.265  0.0167 -0.0800  0.1228
  695PSPI    C311071  11.809   4.690   5.324  0.0710  0.0073 -0.0775
  695PSPI   PO411072  12.372   4.602   5.676  0.0650 -0.2744  0.1942
  695PSPI   GL111073  12.288   4.567   6.098 -0.1188 -0.1105  0.1440
  695PSPI   GL211074  12.229   4.867   6.221  0.0821 -0.1332 -0.2624
  695PSPI   C1A11075  12.299   4.232   6.350 -0.2034 -0.0431  0.2186
  695PSPI   C2A11076  12.624   3.989   6.531  0.1372  0.1516 -0.1534
  695PSPI   C3A11077  12.842   3.906   6.925  0.0488 -0.2432  0.2900
  695PSPI   C4A11078  12.869   3.899   7.416 -0.0671  0.0822 -0.2154
  695PSPI   C1B11079  12.311   4.614   6.638 -0.2978  0.0458 -0.1092
  695PSPI   C2B11080  12.304   4.658   7.111  0.1088 -0.1057 -0.1170
  695PSPI   C3B11081  12.166   4.598   7.564 -0.1063  0.0315  0.0828
  695PSPI   C4B11082  12.292   4.451   7.904  0.2012  0.0903  0.0418
  696PSPI    C111083  15.600   7.743   5.696  0.1368 -0.0473 -0.3042
  696PSPI    C211084  15.531   7.350   5.709 -0.0273 -0.0094  0.0889
  696PSPI    C311085  15.804   7.496   5.457  0.1250 -0.3876  0.0280
  696PSPI   PO411086  15.553   7.706   6.066 -0.2429  0.2912 -0.0636
  696PSPI   GL111087  15.513   7.291   6.230 -0.0931 -0.1084  0.1201
  696PSPI   GL211088  15.743   7.234   6.344  0.0441  0.0038 -0.3139
  696PSPI   C1A11089  15.337   7.089   6.563  0.0158  0.1856 -0.1499
  696PSPI   C2A11090  15.226   6.735   6.749  0.1244  0.0058 -0.0813
  696PSPI   C3A11091  14.885   6.514   6.963  0.1903 -0.0799  0.2116
  696PSPI   C4A11092  14.874   6.460   7.300  0.2384 -0.1086  0.0993
  696PSPI   C1B11093  15.778   7.245   6.855 -0.1036  0.1370  0.0795
  696PSPI   C2B11094  15.770   7.377   7.334  0.0649  0.0773 -0.0774
  696PSPI   C3B11095  15.509   7.557   7.629 -0.1292 -0.6642 -0.0939
  696PSPI   C4B11096  15.126   7.388   7.718  0.0818  0.1671  0.4035
  697POPI    C111097   1.402   2.510   6.142 -0.0985 -0.2133  0.0333
  697POPI    C211098   1.310   2.597   5.762  0.0498  0.1094  0.0680
  697POPI    C311099   1.648   2.400   5.847 -0.1581 -0.2821  0.0090
  697POPI   PO411100   1.339   2.767   6.242 -0.0979 -0.2090  0.0008
  697POPI   GL111101   1.015   3.052   6.371 -0.1034 -0.3998 -0.0112
  697POPI   GL211102   1.010   2.803   6.599 -0.0891  0.0486  0.1625
  697POPI   C1A11103   0.958   3.288   6.772  0.1355 -0.0138  0.2127
  697POPI   D2A11104   0.721   3.551   7.088 -0.0529  0.3445 -0.0352
  697POPI   C3A11105   0.777   3.509   7.477 -0.0227 -0.2240 -0.0097
  697POPI   C4A11106   0.584   3.210   7.772  0.1705  0.2276  0.0008
  697POPI   C1B11107   0.928   2.829   7.059 -0.2984 -0.1279 -0.0682
  697POPI   C2B11108   1.021   3.126   7.335 -0.2101  0.2242 -0.0435
  697POPI   C3B11109   1.382   3.251   7.638 -0.1443 -0.0575  0.0833
  697POPI   C4B11110   1.556   3.387   8.052 -0.0576 -0.0279  0.1204
  698POPI    C111111  11.676  10.844   5.366 -0.0670  0.0471 -0.2666
  698POPI    C211112  11.788  10.659   5.029 -0.0263 -0.1212 -0.1620
  698POPI    C311113  11.767  11.058   5.041  0.1715 -0.1052 -0.3030
  698POPI   PO411114  11.874  10.748   5.570 -0.0622 -0.2572  0.2673
  698POPI   GL111115  12.017  10.826   5.988 -0.0840  0.0946  0.1996
  698POPI   GL211116  11.783  10.669   6.248  0.2433 -0.1605  0.1281
  698POPI   C1A11117  11.920  11.271   6.277  0.1141 -0.0014 -0.0698
  698POPI   D2A11118  12.266  11.491   6.588 -0.1098 -0.2184  0.2114
  698POPI   C3A11119  12.231  11.670   7.067  0.0631 -0.0546 -0.0252
  698POPI   C4A11120  12.322  11.570   7.429  0.0956  0.1650 -0.0253
  698POPI   C1B11121  11.743  10.563   6.685 -0.2056 -0.1222  0.1722
  698POPI   C2B11122  11.521  10.610   6.889  0.0944  0.1516  0.0735
  698POPI   C3B11123  11.432  10.503   7.299 -0.4728  0.0104 -0.1959
  698POPI   C4B11124  11.196  10.482   7.690 -0.0680 -0.1768  0.0325
  699POPI    C111125   6.092  11.308   6.105  0.1266 -0.0244  0.0328
  699POPI    C211126   5.821  11.092   5.904 -0.0444  0.1065  0.1199
  699POPI    C311127   6.115  11.279   5.707  0.0158 -0.0807  0.0300
  699POPI   PO411128   6.160  11.177   6.344 -0.2616  0.0059 -0.0157
  699POPI   GL111129   6.239  11.110   6.794 -0.1171 -0.0197 -0.1428
  699POPI   GL211130   5.968  11.298   6.793 -0.1960 -0.0324 -0.2268
  699POPI   C1A11131   6.382  11.291   7.133 -0.5134 -0.2576 -0.1466
  699POPI   D2A11132   6.557  11.343   7.657 -0.4537  0.0987 -0.0350
  699POPI   C3A11133   6.824  11.647   7.940  0.0769 -0.1761  0.0689
  699POPI   C4A11134   7.164  11.592   8.071 -0.2820  0.0591  0.0418
  699POPI   C1B11135   5.877  11.356   7.160  0.1364  0.1375  0.0858
  699POPI   C2B11136   6.144  11.567   7.459 -0.1254  0.0959 -0.1121
  699POPI   C3B11137   6.484  11.818   7.596  0.2326  0.2662  0.1270
  699POPI   C4B11138   6.604  12.158   8.005 -0.0553  0.0998 -0.0766
  700POPI    C111139   1.878  15.356   5.899 -0.0785  0.1285 -0.1852
  700POPI    C211140   2.212  15.364   5.680  0.0707  0.0452  0.0361
  700POPI    C311141   1.875  15.524   5.536  0.2406  0.2613 -0.1290
  700POPI   PO411142   2.044  15.263   6.211  0.1315  0.0477 -0.0641
  700POPI   GL111143   2.126  15.593   6.477  0.2811 -0.4199 -0.1735
  700POPI   GL211144   2.267  15.903   6.449  0.1210  0.0549  0.3278
  700POPI   C1A11145   2.064  15.351   6.925  0.1098  0.0097  0.1318
  700POPI   D2A11146   2.428  15.264   7.232  0.0811 -0.3338 -0.4048
  700POPI   C3A11147   2.232  14.990   7.548 -0.1933  0.2199 -0.0873
  700POPI   C4A11148   1.775  14.989   7.732 -0.0314  0.1791  0.0165
  700POPI   C1B11149   2.301  16.041   6.896 -0.0058  0.2309  0.1412
  700POPI   C2B11150   2.062  15.860   7.218  0.0916 -0.0326  0.0673
  700POPI   C3B11151   1.842  15.917   7.642 -0.0619 -0.2325 -0.0113
  700POPI   C4B11152   1.585  15.625   7.953  0.1859  0.1835 -0.0247
  701POPI    C111153  13.331   4.093   5.326 -0.2080 -0.1612 -0.0078
  701POPI    C211154  13.530   4.237   5.010 -0.2748 -0.2888 -0.1086
  701POPI    C311155  13.179   4.397   5.115 -0.1319 -0.0779  0.0563
  701POPI   PO411156  13.397   4.072   5.535 -0.1552  0.1639 -0.0082
  701POPI   GL111157  13.170   4.370   5.975 -0.2165  0.2258  0.0968
  701POPI   GL211158  13.403   4.542   6.170  0.0998 -0.0558  0.0833
  701POPI   C1A11159  13.056   3.951   6.304  0.3051  0.1321  0.0367
  701POPI   D2A11160  13.013   3.364   6.448  0.1910 -0.2178  0.1680
  701POPI   C3A11161  12.925   2.901   6.332  0.0134  0.1562  0.2797
  701POPI   C4A11162  12.987   2.392   6.471 -0.0383  0.0167  0.0066
  701POPI   C1B11163  13.701   4.568   6.544 -0.2069  0.4464  0.0768
  701POPI   C2B11164  13.750   4.855   6.891 -0.1930  0.0636  0.3058
  701POPI   C3B11165  13.773   5.139   7.122  0.1153 -0.1674  0.1559
  701POPI   C4B11166  13.841   5.143   7.502  0.1112  0.1372 -0.0333
  702POPI    C111167  10.134  17.556   5.887 -0.0865  0.0609 -0.1595
  702POPI    C211168  10.448  17.618   5.646  0.0812 -0.2777 -0.0339
  702POPI    C311169  10.104  17.480   5.495  0.0911 -0.2035 -0.1245
  702POPI   PO411170  10.108  17.800   5.977 -0.2070 -0.0114 -0.1633
  702POPI   GL111171  10.229  17.855   6.412  0.0374  0.1900  0.1733
  702POPI   GL211172   9.862  18.058   6.368  0.4117 -0.2179  0.3757
  702POPI   C1A11173   9.986  17.985   6.816  0.2423 -0.0265  0.1657
  702POPI   D2A11174   9.830  17.964   7.162  0.2241  0.0172 -0.0709
  702POPI   C3A11175  10.110  18.151   7.507 -0.0639 -0.0307 -0.3198
  702POPI   C4A11176  10.407  18.458   7.667  0.2096  0.0541  0.2146
  702POPI   C1B11177   9.655  18.384   6.452  0.2985  0.2783 -0.2308
  702POPI   C2B11178   9.299  18.597   6.556  0.1915  0.0343  0.0596
  702POPI   C3B11179   8.838  18.771   6.527  0.0983  0.0931  0.2453
  702POPI   C4B11180   8.609  19.002   6.126  0.0181  0.1862 -0.2552
  703POPI    C111181   6.878   9.358   5.644 -0.1031 -0.0561 -0.0978
  703POPI    C211182   6.773   9.379   5.258  0.0629 -0.0699 -0.1447
  703POPI    C311183   7.091   9.163   5.367 -0.0042 -0.0945  0.0049
  703POPI   PO411184   6.740   9.238   5.828 -0.0477  0.2227  0.0648
  703POPI   GL111185   6.617   8.821   6.022 -0.0414 -0.0451 -0.0356
  703POPI   GL211186   6.716   8.550   6.015  0.0929 -0.2612  0.1424
  703POPI   C1A11187   6.692   8.808   6.452  0.0449  0.3240  0.2040
  703POPI   D2A11188   6.722   8.557   6.742  0.2570 -0.0994  0.4114
  703POPI   C3A11189   6.630   8.712   7.223 -0.0773  0.0152  0.2827
  703POPI   C4A11190   6.340   8.624   7.580  0.2568 -0.2029  0.4017
  703POPI   C1B11191   6.521   8.314   6.331  0.0523 -0.0416  0.0633
  703POPI   C2B11192   6.618   8.014   6.703  0.1858 -0.4696  0.2485
  703POPI   C3B11193   6.771   8.200   7.161 -0.2341  0.0262  0.2050
  703POPI   C4B11194   6.694   8.232   7.559  0.0153  0.0766 -0.2828
  704POPI    C111195   3.064  11.419   6.364 -0.1676 -0.2392  0.1870
  704POPI    C211196   2.997  11.304   5.986 -0.1255 -0.1197  0.1427
  704POPI    C311197   2.981  11.692   6.083 -0.0376 -0.1407  0.2433
  704POPI   PO411198   3.125  11.099   6.537 -0.1243 -0.0171  0.1911
  704POPI   GL111199   3.070  10.858   6.933 -0.0786  0.2861  0.0720
  704POPI   GL211200   2.718  10.915   7.111  0.2376  0.2131 -0.0912
  704POPI   C1A11201   3.098  10.775   7.361 -0.3159  0.0603 -0.0791
  704POPI   D2A11202   3.294  10.637   7.620  0.0455 -0.1107 -0.2182
  704POPI   C3A11203   3.240  10.192   7.577  0.1840  0.1155 -0.0167
  704POPI   C4A11204   3.017   9.786   7.629 -0.2807 -0.0671  0.1326
  704POPI   C1B11205   2.525  10.931   7.565 -0.0855 -0.4082  0.3030
  704POPI   C2B11206   2.374  10.929   7.999  0.0971 -0.1368  0.1178
  704POPI   C3B11207   2.264  10.606   8.171 -0.2120 -0.4018  0.1172
  704POPI   C4B11208   1.992  10.313   8.109 -0.0474  0.0850  0.0772
  705POPI    C111209  11.088   1.766   5.735 -0.0174  0.0769 -0.2055
  705POPI    C211210  10.857   1.515   5.525 -0.1418 -0.1867  0.2330
  705POPI    C311211  10.690   1.805   5.744 -0.0213 -0.0122  0.0971
  705POPI   PO411212  11.339   1.561   5.831  0.0757  0.1925  0.2377
  705POPI   GL111213  11.577   1.801   6.139  0.0526 -0.0268 -0.1229
  705POPI   GL211214  11.325   1.968   6.128  0.4644  0.0860  0.0461
  705POPI   C1A11215  11.364   1.559   6.495 -0.0866  0.1984  0.0343
  705POPI   D2A11216  11.252   1.552   7.015 -0.3440 -0.2992  0.1729
  705POPI   C3A11217  11.330   1.355   7.431  0.0132  0.0492  0.0632
  705POPI   C4A11218  11.173   1.195   7.923 -0.2068 -0.0528  0.2997
  705POPI   C1B11219  11.596   2.049   6.541  0.2293  0.0957 -0.1254
  705POPI   C2B11220  11.594   1.995   7.038  0.2564  0.2139 -0.0563
  705POPI   C3B11221  11.730   1.667   7.339 -0.0649  0.0651  0.0839
  705POPI   C4B11222  12.025   1.557   7.531  0.1079  0.2499  0.1987
  706POPI    C111223  13.881  10.511   5.913 -0.0123 -0.0782  0.0069
  706POPI    C211224  14.196  10.664   6.106 -0.0379  0.0095 -0.0204
  706POPI    C311225  14.092  10.808   5.748 -0.1981  0.0823  0.0542
  706POPI   PO411226  13.784  10.363   6.133  0.3156 -0.0152 -0.3270
  706POPI   GL111227  13.947  10.161   6.433 -0.2590  0.1217 -0.0003
  706POPI   GL211228  14.177  10.386   6.546 -0.0662 -0.0999 -0.1046
  706POPI   C1A11229  13.886   9.820   6.816 -0.1431  0.0461 -0.2561
  706POPI   D2A11230  13.813   9.471   7.001 -0.1800 -0.1134 -0.1429
  706POPI   C3A11231  14.019   9.129   7.254 -0.0896  0.1190 -0.0949
  706POPI   C4A11232  14.103   8.886   7.651 -0.2546 -0.0035  0.1461
  706POPI   C1B11233  14.189  10.384   7.010  0.0732  0.2701 -0.0337
  706POPI   C2B11234  14.228  10.412   7.409  0.1136  0.2936  0.1732
  706POPI   C3B11235  14.226  10.343   7.805 -0.1159  0.1304  0.3117
  706POPI   C4B11236  14.123  10.122   8.129  0.0622 -0.1635  0.3592
  707POPI    C111237  12.714  14.152   5.495  0.0249  0.0801  0.1546
  707POPI    C211238  12.523  13.983   5.188 -0.0687  0.2049  0.1431
  707POPI    C311239  12.766  14.294   5.125  0.1697  0.0240  0.1528
  707POPI   PO411240  12.501  14.168   5.668 -0.0742 -0.1905 -0.2450
  707POPI   GL111241  12.464  14.161   6.044  0.2198 -0.4168 -0.0069
  707POPI   GL211242  12.318  14.351   6.192  0.0568 -0.1604 -0.0675
  707POPI   C1A11243  12.835  13.997   6.472  0.0931  0.0129  0.1959
  707POPI   D2A11244  12.787  14.117   6.917 -0.2282 -0.0977  0.0847
  707POPI   C3A11245  12.907  13.761   7.142 -0.1659 -0.0407 -0.3679
  707POPI   C4A11246  12.752  13.391   7.256 -0.1706  0.0714 -0.2386
  707POPI   C1B11247  12.434  14.300   6.598 -0.1569  0.0400  0.0503
  707POPI   C2B11248  12.548  14.678   6.845  0.1398 -0.0376  0.2355
  707POPI   C3B11249  12.447  14.824   7.204  0.0044  0.1895 -0.3178
  707POPI   C4B11250  12.139  14.653   7.488  0.0610 -0.1252 -0.0691
  708POPI    C111251  10.090   0.281   5.396 -0.0857 -0.1702  0.0104
  708POPI    C211252  10.017  -0.093   5.520 -0.0591 -0.1303  0.1483
  708POPI    C311253  10.390   0.052   5.530 -0.0202 -0.1983 -0.1806
  708POPI   PO411254   9.976   0.523   5.532  0.3992  0.2871 -0.1359
  708POPI   GL111255  10.155   0.376   5.929 -0.0915  0.0174  0.1435
  708POPI   GL211256  10.036   0.581   6.111 -0.1146  0.4621  0.0543
  708POPI   C1A11257  10.282   0.278   6.377  0.1376  0.1957 -0.1163
  708POPI   D2A11258  10.071   0.441   6.727  0.0381  0.0954  0.0013
  708POPI   C3A11259   9.694   0.385   7.003 -0.0036 -0.0197  0.2244
  708POPI   C4A11260   9.411   0.607   7.180  0.0836 -0.1516  0.2681
  708POPI   C1B11261  10.231   0.910   6.512 -0.3195  0.1875  0.2721
  708POPI   C2B11262  10.508   1.044   6.777 -0.0143  0.1800 -0.2334
  708POPI   C3B11263  10.911   0.882   7.037  0.1573  0.2192  0.0092
  708POPI   C4B11264  11.080   0.507   6.974 -0.1787  0.0555  0.1809
  709POPI    C111265   8.909  11.446   5.848 -0.2347 -0.1810  0.0662
  709POPI    C211266   8.635  11.736   5.880  0.0788  0.1265  0.0322
  709POPI    C311267   8.543  11.394   5.693 -0.2925  0.2047  0.0624
  709POPI   PO411268   9.123  11.598   5.901  0.0603 -0.1683  0.0097
  709POPI   GL111269   9.196  11.703   6.285 -0.2940 -0.0531 -0.0153
  709POPI   GL211270   9.231  12.067   6.375 -0.0683  0.1729  0.2509
  709POPI   C1A11271   9.568  11.766   6.641  0.1012 -0.0521 -0.2450
  709POPI   D2A11272   9.774  11.476   6.989 -0.1077  0.0567  0.0452
  709POPI   C3A11273  10.081  11.574   7.142 -0.1081  0.3020  0.2121
  709POPI   C4A11274  10.379  11.446   7.490 -0.0435 -0.4047  0.1600
  709POPI   C1B11275   9.078  11.854   6.738  0.1428 -0.0208 -0.0063
  709POPI   C2B11276   8.995  11.778   7.250 -0.1415  0.3322  0.2015
  709POPI   C3B11277   9.144  11.509   7.515 -0.0360  0.1639  0.0551
  709POPI   C4B11278   8.957  11.388   7.942  0.5434  0.2316  0.0629
  710POPI    C111279  15.676  13.556   5.700  0.1688  0.0439 -0.1314
  710POPI    C211280  15.880  13.214   5.666  0.1021 -0.0200  0.0952
  710POPI    C311281  15.748  13.401   5.338  0.2933 -0.1166 -0.0391
  710POPI   PO411282  15.846  13.717   5.851  0.0936  0.2769 -0.0355
  710POPI   GL111283  15.736  14.018   6.259 -0.4749  0.3010 -0.1268
  710POPI   GL211284  15.472  13.827   6.186 -0.0319 -0.0926  0.4721
  710POPI   C1A11285  15.846  14.107   6.708  0.1102  0.0635 -0.1944
  710POPI   D2A11286  15.967  14.082   7.086 -0.0453  0.0058 -0.1012
  710POPI   C3A11287  15.784  14.285   7.384  0.0581 -0.1983 -0.0304
  710POPI   C4A11288  15.693  14.641   7.627 -0.0588  0.1705  0.1142
  710POPI   C1B11289  15.308  14.147   6.514  0.2732 -0.1449 -0.0870
  710POPI   C2B11290  15.417  14.059   7.000  0.0376 -0.0477 -0.0382
  710POPI   C3B11291  15.464  13.905   7.442  0.0457 -0.1510  0.1315
  710POPI   C4B11292  15.543  13.902   7.771  0.1108  0.0307  0.0387
  711POPI    C111293  11.760   3.172   5.590  0.0434  0.0598 -0.1950
  711POPI    C211294  11.416   3.301   5.432 -0.0254 -0.0284 -0.1181
  711POPI    C311295  11.575   2.955   5.309 -0.0251 -0.0456 -0.0692
  711POPI   PO411296  11.700   3.265   5.883  0.1511  0.2005 -0.0167
  711POPI   GL111297  11.371   3.562   6.120 -0.0776  0.1413 -0.3224
  711POPI   GL211298  11.339   3.846   6.219 -0.0927  0.0958 -0.4196
  711POPI   C1A11299  11.472   3.230   6.577  0.1671 -0.0827  0.2313
  711POPI   D2A11300  11.588   2.920   6.737  0.0403 -0.0790  0.0725
  711POPI   C3A11301  11.733   2.843   7.134 -0.2197 -0.0364  0.0840
  711POPI   C4A11302  11.930   2.857   7.420 -0.0121 -0.0508  0.0245
  711POPI   C1B11303  11.189   3.643   6.611  0.0826  0.1782  0.0616
  711POPI   C2B11304  11.009   3.504   6.923 -0.2001 -0.3377  0.2318
  711POPI   C3B11305  11.075   3.580   7.349 -0.0346  0.0854  0.0562
  711POPI   C4B11306  11.245   3.612   7.766 -0.2534  0.0002 -0.0978
  712POPI    C111307  17.946   2.299   5.696  0.0236  0.2145 -0.2171
  712POPI    C211308  17.668   2.504   5.495  0.0251  0.2109 -0.2228
  712POPI    C311309  17.579   2.146   5.649  0.0286  0.2069 -0.2301
  712POPI   PO411310  18.056   2.499   5.870 -0.1439 -0.5656 -0.0554
  712POPI   GL111311  18.189   2.656   6.210 -0.0995  0.1760 -0.2637
  712POPI   GL211312  18.130   2.310   6.427  0.3562  0.0424 -0.2290
  712POPI   C1A11313  18.155   2.766   6.611 -0.1627 -0.3401  0.1236
  712POPI   D2A11314  18.237   2.760   7.034 -0.1086 -0.0063 -0.3896
  712POPI   C3A11315  18.176   2.501   7.347 -0.0763  0.2200  0.0450
  712POPI   C4A11316  18.323   2.385   7.696  0.1545 -0.0137  0.0918
  712POPI   C1B11317  18.093   2.264   6.911 -0.1149  0.1853 -0.1645
  712POPI   C2B11318  17.998   2.043   7.282  0.1303  0.2515 -0.1251
  712POPI   C3B11319  18.121   1.862   7.650  0.1408  0.2882 -0.0584
  712POPI   C4B11320  18.045   1.778   8.057 -0.0843  0.1277  0.0729
  713POPI    C111321   7.435   7.838   5.757 -0.1229  0.0477 -0.0970
  713POPI    C211322   7.614   7.482   5.720 -0.1111  0.0601 -0.1599
  713POPI    C311323   7.355   7.606   5.441 -0.2061  0.0489 -0.0772
  713POPI   PO411324   7.282   7.725   6.058 -0.5746 -0.0616  0.3968
  713POPI   GL111325   7.476   7.784   6.416 -0.0123  0.1900  0.1304
  713POPI   GL211326   7.269   7.620   6.577 -0.1478  0.0287  0.0763
  713POPI   C1A11327   7.565   7.898   6.845  0.0074  0.2446 -0.0546
  713POPI   D2A11328   7.731   7.825   7.200  0.1114 -0.0258  0.0377
  713POPI   C3A11329   7.809   8.195   7.405 -0.2445  0.1413  0.0470
  713POPI   C4A11330   8.034   8.309   7.797 -0.4213 -0.1195 -0.2728
  713POPI   C1B11331   7.199   7.435   6.926  0.0689 -0.2304 -0.0631
  713POPI   C2B11332   7.319   7.535   7.298  0.1945  0.0500  0.0244
  713POPI   C3B11333   7.456   7.638   7.590 -0.1530 -0.2129 -0.0294
  713POPI   C4B11334   7.818   7.849   7.846 -0.1223 -0.1203 -0.2244
  714POPI    C111335   9.062  12.565   5.639 -0.3195  0.1289  0.0435
  714POPI    C211336   9.244  12.879   5.471 -0.1109 -0.0323 -0.0357
  714POPI    C311337   9.017  12.636   5.248 -0.0697 -0.0799 -0.0258
  714POPI   PO411338   8.944  12.694   5.914  0.1811 -0.0830  0.1742
  714POPI   GL111339   8.900  12.676   6.386 -0.0365 -0.0886  0.0633
  714POPI   GL211340   9.039  12.970   6.434 -0.2534 -0.3263 -0.0123
  714POPI   C1A11341   9.052  12.742   6.856 -0.0399  0.0133  0.1675
  714POPI   D2A11342   9.336  12.591   7.143  0.0292 -0.0354  0.0268
  714POPI   C3A11343   9.352  12.728   7.665  0.1035  0.2011  0.1899
  714POPI   C4A11344   9.281  12.791   8.033 -0.1579  0.0728 -0.0680
  714POPI   C1B11345   8.684  13.104   6.708 -0.2206  0.1321 -0.0104
  714POPI   C2B11346   8.646  13.079   7.078 -0.2460 -0.2823 -0.0450
  714POPI   C3B11347   8.252  12.948   7.342 -0.1749 -0.0720 -0.1150
  714POPI   C4B11348   8.038  12.831   7.611  0.1193 -0.3290  0.0158
  715POPI    C111349  14.090   7.058   5.336  0.0358 -0.0991  0.2548
  715POPI    C211350  14.207   6.679   5.392  0.0918 -0.1667 -0.2647
  715POPI    C311351  13.911   6.761   5.135 -0.1056  0.1233  0.0462
  715POPI   PO411352  14.247   7.168   5.580  0.2338 -0.0525 -0.0362
  715POPI   GL111353  14.534   6.951   5.882  0.2708 -0.0423 -0.1584
  715POPI   GL211354  14.295   6.797   5.952 -0.0529  0.1543 -0.0515
  715POPI   C1A11355  14.501   7.131   6.332  0.0470  0.1115 -0.1383
  715POPI   D2A11356  14.344   7.348   6.681  0.5989  0.1135  0.6574
  715POPI   C3A11357  14.485   7.495   7.046 -0.2266  0.0739  0.3617
  715POPI   C4A11358  14.831   7.416   7.314  0.2675 -0.2015  0.3410
  715POPI   C1B11359  14.593   6.592   6.377 -0.1146 -0.0779 -0.0380
  715POPI   C2B11360  14.609   6.269   6.552  0.0549  0.1006  0.0734
  715POPI   C3B11361  14.586   6.107   6.900  0.4618  0.0281 -0.0866
  715POPI   C4B11362  14.546   6.117   7.272 -0.2306  0.1826 -0.0758
  716POPI    C111363  16.501  10.909   5.959  0.0454  0.1387  0.0860
  716POPI    C211364  16.884  11.023   5.940  0.0844 -0.0272 -0.1620
  716POPI    C311365  16.594  11.283   5.850  0.1383  0.0953  0.0146
  716POPI   PO411366  16.466  10.841   6.296 -0.0474 -0.2598 -0.3435
  716POPI   GL111367  16.088  10.691   6.547  0.0293  0.0377  0.1811
  716POPI   GL211368  15.890  10.903   6.561 -0.0615 -0.0440  0.1083
  716POPI   C1A11369  16.154  10.706   6.925 -0.2122  0.3023 -0.2459
  716POPI   D2A11370  16.139  10.460   7.323  0.1314  0.1604 -0.0510
  716POPI   C3A11371  16.294  10.257   7.644  0.0056  0.2721  0.0013
  716POPI   C4A11372  16.404   9.839   7.642  0.2483 -0.2476 -0.1268
  716POPI   C1B11373  15.705  10.958   6.969 -0.0731 -0.5311 -0.1674
  716POPI   C2B11374  15.589  10.824   7.328  0.0929  0.0667 -0.0827
  716POPI   C3B11375  15.610  10.642   7.702  0.0128  0.0964 -0.4118
  716POPI   C4B11376  15.904  10.581   8.028  0.2659 -0.3607  0.1398
  717POPI    C111377  11.556   8.078   5.911  0.2293  0.2228 -0.0352
  717POPI    C211378  11.712   7.774   5.705 -0.2803 -0.0428 -0.0461
  717POPI    C311379  11.490   8.049   5.518  0.0311  0.2430 -0.0047
  717POPI   PO411380  11.443   7.941   6.123  0.1527 -0.1944  0.0972
  717POPI   GL111381  11.317   7.935   6.506  0.1773  0.0271  0.1634
  717POPI   GL211382  11.607   7.816   6.547 -0.0733 -0.0754 -0.1354
  717POPI   C1A11383  11.325   8.150   6.967 -0.1351 -0.2139  0.1480
  717POPI   D2A11384  11.216   8.274   7.357  0.3001  0.0368 -0.4447
  717POPI   C3A11385  11.292   8.305   7.696 -0.2228  0.0566 -0.0414
  717POPI   C4A11386  11.441   8.310   8.038 -0.0052 -0.2159 -0.0025
  717POPI   C1B11387  11.760   7.804   6.922 -0.3153  0.0560 -0.1524
  717POPI   C2B11388  11.933   7.727   7.358 -0.0534 -0.3083 -0.0137
  717POPI   C3B11389  11.741   7.434   7.641 -0.0221 -0.3408  0.0431
  717POPI   C4B11390  11.790   7.151   7.978  0.1146  0.1204 -0.0903
  718POPI    C111391   3.083  16.524   5.603 -0.1297  0.0121  0.2155
  718POPI    C211392   3.051  16.307   5.269  0.2230  0.1558  0.0837
  718POPI    C311393   2.976  16.699   5.259 -0.2011  0.0849  0.2743
  718POPI   PO411394   3.357  16.437   5.809 -0.2309 -0.1920  0.1660
  718POPI   GL111395   3.495  16.332   6.192  0.0698 -0.0246 -0.0489
  718POPI   GL211396   3.756  16.510   6.185 -0.0972 -0.0768  0.1408
  718POPI   C1A11397   3.257  15.995   6.426  0.1595 -0.0622 -0.1252
  718POPI   D2A11398   3.205  15.731   6.889  0.1660  0.2016 -0.2335
  718POPI   C3A11399   3.171  15.580   7.182 -0.2044 -0.1104 -0.2283
  718POPI   C4A11400   3.377  15.725   7.659 -0.1255  0.0321 -0.1686
  718POPI   C1B11401   3.582  16.738   6.504  0.2790  0.2192 -0.0662
  718POPI   C2B11402   3.672  16.753   6.882  0.0595 -0.3966  0.0728
  718POPI   C3B11403   3.553  16.621   7.258  0.2349  0.7150  0.1012
  718POPI   C4B11404   3.436  16.416   7.609  0.1485  0.2562  0.1195
  719POPI    C111405   0.779  16.570   5.474 -0.2157 -0.1234 -0.0754
  719POPI    C211406   1.076  16.509   5.214 -0.0087  0.1614  0.0878
  719POPI    C311407   0.816  16.216   5.292 -0.0313  0.0475 -0.3809
  719POPI   PO411408   0.947  16.608   5.846  0.2668 -0.3278 -0.1996
  719POPI   GL111409   0.674  16.387   6.107  0.1020 -0.2017  0.4944
  719POPI   GL211410   0.335  16.244   6.172 -0.0752  0.0243  0.1856
  719POPI   C1A11411   0.953  16.647   6.549 -0.0441 -0.1855  0.0040
  719POPI   D2A11412   1.129  16.957   6.754 -0.2046  0.1577  0.2238
  719POPI   C3A11413   0.968  16.786   7.161  0.1444  0.0817  0.0788
  719POPI   C4A11414   1.045  16.591   7.601  0.4122 -0.0936 -0.1187
  719POPI   C1B11415   0.295  15.935   6.580 -0.0922 -0.1450 -0.0919
  719POPI   C2B11416   0.389  16.049   7.032  0.0232 -0.1293 -0.1366
  719POPI   C3B11417   0.470  15.793   7.408 -0.1014 -0.0329 -0.0427
  719POPI   C4B11418   0.549  15.815   7.807  0.2207 -0.0938 -0.1483
  720POPI    C111419  10.343  13.952   5.472  0.1317 -0.0250  0.1941
  720POPI    C211420  10.651  14.180   5.360  0.1620 -0.1726 -0.0272
  720POPI    C311421  10.676  13.782   5.332 -0.0343 -0.1869 -0.0108
  720POPI   PO411422  10.305  14.184   5.723  0.1112  0.1466  0.0003
  720POPI   GL111423  10.476  14.151   6.140  0.1641  0.0644 -0.3538
  720POPI   GL211424  10.637  13.948   6.367  0.0128 -0.1789 -0.1869
  720POPI   C1A11425  10.161  14.279   6.433 -0.1597 -0.1825 -0.1926
  720POPI   D2A11426   9.950  14.681   6.473 -0.0942 -0.0718 -0.0106
  720POPI   C3A11427   9.870  14.608   6.911  0.2640  0.1507 -0.3295
  720POPI   C4A11428   9.937  14.320   7.231 -0.1763 -0.0958 -0.1366
  720POPI   C1B11429  10.668  14.225   6.633 -0.0354  0.1412  0.0659
  720POPI   C2B11430  10.685  14.349   7.078 -0.1338 -0.1392  0.0817
  720POPI   C3B11431  10.739  14.429   7.467  0.0866 -0.0075  0.2576
  720POPI   C4B11432  10.978  14.317   7.838  0.1873  0.1265 -0.1516
  721POPI    C111433   0.407  13.592   5.738 -0.0085  0.0587 -0.0754
  721POPI    C211434   0.128  13.666   5.461  0.1377  0.2436 -0.1760
  721POPI    C311435   0.406  13.387   5.395 -0.0739 -0.0053 -0.0373
  721POPI   PO411436   0.264  13.724   5.997 -0.1215  0.0486 -0.1266
  721POPI   GL111437   0.086  13.758   6.316  0.2482  0.1945 -0.3145
  721POPI   GL211438  -0.059  13.478   6.268 -0.1037  0.0241  0.3106
  721POPI   C1A11439   0.055  14.096   6.568 -0.1743  0.0166 -0.1003
  721POPI   D2A11440  -0.203  14.441   6.637  0.1104 -0.0141  0.3214
  721POPI   C3A11441  -0.132  14.628   7.026  0.0440  0.1690  0.0181
  721POPI   C4A11442  -0.095  14.500   7.293 -0.2375 -0.1132 -0.4328
  721POPI   C1B11443   0.076  13.166   6.585 -0.2110 -0.1153  0.0059
  721POPI   C2B11444  -0.134  13.108   7.029 -0.1121  0.0619 -0.0124
  721POPI   C3B11445  -0.182  13.345   7.449  0.3577 -0.2089 -0.1565
  721POPI   C4B11446  -0.453  13.330   7.765  0.0228  0.1562  0.1371
  722POPI    C111447  15.548   3.729   5.897  0.3870 -0.0229 -0.0630
  722POPI    C211448  15.782   4.001   5.719  0.2958 -0.0462 -0.2200
  722POPI    C311449  15.703   3.654   5.536 -0.1105  0.0863 -0.3081
  722POPI   PO411450  15.547   3.741   6.119  0.0009  0.3124  0.1768
  722POPI   GL111451  15.298   3.721   6.472  0.1245 -0.1693 -0.1373
  722POPI   GL211452  15.502   3.965   6.612  0.0023  0.0924 -0.0181
  722POPI   C1A11453  15.470   3.525   6.839  0.0364  0.0119  0.1376
  722POPI   D2A11454  15.740   3.434   7.200 -0.0387 -0.3136 -0.3055
  722POPI   C3A11455  15.694   3.631   7.591 -0.0106 -0.3613 -0.2346
  722POPI   C4A11456  15.393   3.959   7.816  0.0107  0.0750 -0.0466
  722POPI   C1B11457  15.650   3.989   7.026  0.0119 -0.0437  0.1318
  722POPI   C2B11458  15.567   4.276   7.433 -0.0837  0.2210  0.1660
  722POPI   C3B11459  15.344   4.582   7.622  0.0914  0.1080  0.0474
  722POPI   C4B11460  15.482   4.857   7.950  0.1192 -0.0845 -0.0904
  723POPI    C111461  10.785   0.975   5.612 -0.1804 -0.0528  0.0113
  723POPI    C211462  11.055   1.098   5.343  0.0293 -0.2502  0.1276
  723POPI    C311463  10.709   0.940   5.221  0.0809 -0.2470 -0.0251
  723POPI   PO411464  10.947   0.783   5.770 -0.2572  0.1124 -0.0455
  723POPI   GL111465  11.182   0.747   6.123  0.0911 -0.1352 -0.0749
  723POPI   GL211466  11.245   1.034   6.331 -0.1688  0.0684 -0.2991
  723POPI   C1A11467  11.087   0.578   6.451  0.1811 -0.2642  0.2422
  723POPI   D2A11468  10.628   0.415   6.628 -0.2681  0.0229  0.1859
  723POPI   C3A11469  10.579   0.536   6.929  0.1691  0.1388 -0.3086
  723POPI   C4A11470  10.765   0.453   7.331 -0.0702  0.1201  0.0921
  723POPI   C1B11471  11.341   1.049   6.798 -0.1896 -0.0360 -0.0562
  723POPI   C2B11472  11.419   0.821   7.264  0.1844 -0.0279  0.1936
  723POPI   C3B11473  11.510   0.799   7.706 -0.1426  0.1378  0.2872
  723POPI   C4B11474  11.587   0.576   8.116 -0.0749  0.2460 -0.1007
  724POPI    C111475   2.575   2.666   5.690  0.1590  0.0379 -0.0658
  724POPI    C211476   2.839   2.910   5.513 -0.1424  0.3961 -0.0345
  724POPI    C311477   2.496   2.819   5.329  0.0492 -0.1710 -0.1318
  724POPI   PO411478   2.751   2.641   5.980 -0.0546 -0.0361 -0.1415
  724POPI   GL111479   2.808   2.764   6.410 -0.0191 -0.1860 -0.0513
  724POPI   GL211480   3.090   3.051   6.448  0.0773 -0.0463  0.0946
  724POPI   C1A11481   3.137   2.504   6.567  0.0326 -0.0525  0.3117
  724POPI   D2A11482   3.433   2.196   6.675  0.1776 -0.1227  0.0771
  724POPI   C3A11483   3.292   2.029   7.068 -0.1666 -0.0546 -0.0233
  724POPI   C4A11484   3.399   2.116   7.559  0.0648  0.3129 -0.0495
  724POPI   C1B11485   3.034   2.931   6.957  0.0268 -0.0867 -0.0721
  724POPI   C2B11486   3.293   3.030   7.229 -0.0133  0.1334  0.1959
  724POPI   C3B11487   3.586   2.889   7.489  0.0032 -0.0541 -0.1476
  724POPI   C4B11488   3.618   2.661   7.814  0.3298 -0.2830 -0.2516
  725POPI    C111489   7.101   8.522   5.680 -0.2141 -0.0845  0.2829
  725POPI    C211490   6.730   8.417   5.573 -0.0644 -0.1137 -0.2361
  725POPI    C311491   6.831   8.804   5.592 -0.2544 -0.0841  0.4064
  725POPI   PO411492   7.164   8.428   5.824  0.3112 -0.0425 -0.0437
  725POPI   GL111493   7.161   8.566   6.212 -0.0750 -0.1086  0.1151
  725POPI   GL211494   7.002   8.338   6.309 -0.0947  0.1855 -0.2158
  725POPI   C1A11495   7.438   8.486   6.443 -0.0365 -0.1797  0.0595
  725POPI   D2A11496   7.546   8.374   6.820  0.0521 -0.0985  0.1116
  725POPI   C3A11497   7.362   8.203   7.215 -0.0203  0.0949 -0.2023
  725POPI   C4A11498   7.410   8.139   7.681  0.0279  0.0217 -0.0094
  725POPI   C1B11499   7.135   8.101   6.652  0.2578  0.2810 -0.1600
  725POPI   C2B11500   7.094   7.901   6.984  0.0083  0.0049 -0.0359
  725POPI   C3B11501   7.041   7.927   7.460  0.1964  0.1716 -0.0829
  725POPI   C4B11502   6.993   7.970   7.930  0.1057  0.2935  0.1108
  726POPI    C111503  11.425   4.642   5.618 -0.2272  0.1170 -0.0847
  726POPI    C211504  11.072   4.608   5.431 -0.3165  0.0077  0.1013
  726POPI    C311505  11.389   4.402   5.300 -0.2707  0.2543 -0.1844
  726POPI   PO411506  11.441   4.758   5.789  0.1875  0.1223 -0.2321
  726POPI   GL111507  11.552   4.704   6.214 -0.2308 -0.0381 -0.0710
  726POPI   GL211508  11.797   4.681   6.259 -0.0436 -0.0603  0.1082
  726POPI   C1A11509  11.391   4.870   6.552 -0.1063  0.1093  0.1229
  726POPI   D2A11510  11.165   4.657   6.865 -0.0852  0.5132  0.1435
  726POPI   C3A11511  11.329   4.502   7.215  0.2040  0.1017  0.0719
  726POPI   C4A11512  11.183   4.440   7.588 -0.2652 -0.1512  0.3077
  726POPI   C1B11513  11.911   4.895   6.624  0.0712  0.0400 -0.1186
  726POPI   C2B11514  11.980   5.000   6.948 -0.0456  0.0144  0.1922
  726POPI   C3B11515  12.146   5.079   7.387 -0.0901 -0.0934  0.1427
  726POPI   C4B11516  12.092   5.225   7.815  0.0584 -0.0299 -0.0216
  727POPI    C111517  17.387  16.908   5.630 -0.0790  0.1207 -0.0209
  727POPI    C211518  17.178  16.651   5.405 -0.0157  0.1667 -0.1328
  727POPI    C311519  17.577  16.654   5.385  0.0053 -0.0282  0.1960
  727POPI   PO411520  17.288  16.915   5.845 -0.2516  0.3518  0.2455
  727POPI   GL111521  17.342  16.838   6.190  0.2414 -0.1544  0.0558
  727POPI   GL211522  17.578  16.808   6.314  0.2687  0.0740  0.0172
  727POPI   C1A11523  17.138  17.023   6.578 -0.0783  0.0996  0.1780
  727POPI   D2A11524  16.817  17.152   6.770  0.0079  0.1640  0.2364
  727POPI   C3A11525  16.531  16.892   6.912 -0.0858 -0.0120 -0.2558
  727POPI   C4A11526  16.280  16.734   7.288 -0.2191  0.1773 -0.1651
  727POPI   C1B11527  17.597  16.693   6.735 -0.0534 -0.0304  0.1497
  727POPI   C2B11528  17.820  16.710   7.187  0.2253 -0.0607  0.0076
  727POPI   C3B11529  17.858  16.735   7.628 -0.0201 -0.0470  0.1895
  727POPI   C4B11530  17.916  16.888   8.004  0.1719 -0.0244 -0.0395
  728POPI    C111531  11.866   7.545   6.099 -0.0782  0.1058 -0.1751
  728POPI    C211532  12.139   7.254   6.077 -0.3141 -0.1351  0.0230
  728POPI    C311533  12.247   7.622   6.190 -0.0873 -0.2504  0.1890
  728POPI   PO411534  11.691   7.414   6.248 -0.2362 -0.0495 -0.0548
  728POPI   GL111535  11.884   7.125   6.484 -0.0766 -0.0493  0.1512
  728POPI   GL211536  12.149   7.263   6.598 -0.0589 -0.1224  0.0309
  728POPI   C1A11537  11.711   7.351   6.842 -0.0573 -0.1629  0.1828
  728POPI   D2A11538  11.486   7.106   7.069  0.0418 -0.1603 -0.4060
  728POPI   C3A11539  11.441   7.131   7.462  0.0992  0.1224 -0.2406
  728POPI   C4A11540  11.370   6.900   7.868  0.0722  0.0029 -0.0733
  728POPI   C1B11541  12.373   6.977   6.790 -0.2532  0.3288  0.2583
  728POPI   C2B11542  12.458   7.054   7.306  0.2322 -0.1738  0.3092
  728POPI   C3B11543  12.264   7.277   7.749  0.0775  0.1735 -0.1999
  728POPI   C4B11544  12.266   7.241   8.136 -0.2298 -0.0985  0.0754
  729POPI    C111545   3.377  13.115   6.021 -0.1453  0.0171  0.0842
  729POPI    C211546   3.513  13.121   5.645 -0.2274  0.1280  0.0558
  729POPI    C311547   3.127  13.044   5.716 -0.1481 -0.2120  0.1375
  729POPI   PO411548   3.564  12.982   6.224 -0.0808 -0.0292  0.0319
  729POPI   GL111549   3.708  12.900   6.691 -0.2897 -0.2950 -0.1544
  729POPI   GL211550   3.738  13.266   6.866 -0.4739  0.1748 -0.2622
  729POPI   C1A11551   3.771  12.718   7.008 -0.2397  0.0224 -0.4553
  729POPI   D2A11552   3.951  12.596   7.417  0.1542 -0.2643  0.1305
  729POPI   C3A11553   4.189  12.697   7.709  0.1860  0.1947 -0.2708
  729POPI   C4A11554   4.408  12.768   8.021 -0.0260  0.1323  0.1320
  729POPI   C1B11555   3.878  13.123   7.298 -0.1730  0.0781 -0.0285
  729POPI   C2B11556   3.886  13.192   7.813  0.0468  0.0427  0.0344
  729POPI   C3B11557   3.951  13.625   8.008  0.0273 -0.2309 -0.0520
  729POPI   C4B11558   4.197  13.859   8.151 -0.1021 -0.2603 -0.0548
  730POPI    C111559   0.271  11.196   5.903  0.3248 -0.0512 -0.0386
  730POPI    C211560   0.378  10.835   6.038 -0.0287 -0.0990  0.1246
  730POPI    C311561   0.099  10.867   5.753 -0.0159  0.0460  0.1275
  730POPI   PO411562   0.234  11.307   6.114 -0.1372 -0.0621  0.0425
  730POPI   GL111563   0.119  10.949   6.467  0.0226  0.1352 -0.0851
  730POPI   GL211564   0.381  10.854   6.607  0.7222 -0.0865 -0.0178
  730POPI   C1A11565  -0.209  10.881   6.850 -0.0880  0.1247  0.0296
  730POPI   D2A11566  -0.385  10.605   7.180 -0.2549 -0.3917  0.0659
  730POPI   C3A11567  -0.351  10.818   7.543 -0.0292  0.0592 -0.6081
  730POPI   C4A11568  -0.587  10.982   7.801  0.0205  0.0130  0.2392
  730POPI   C1B11569   0.523  11.003   6.886  0.0911  0.3332  0.3382
  730POPI   C2B11570   0.708  11.042   7.303 -0.1186  0.2504 -0.0266
  730POPI   C3B11571   0.950  10.799   7.465  0.2449 -0.3461 -0.2410
  730POPI   C4B11572   1.060  10.410   7.693 -0.1481  0.1684 -0.0229
  731POPI    C111573  13.483   2.497   5.540 -0.1329 -0.1573  0.2035
  731POPI    C211574  13.640   2.195   5.750 -0.0821 -0.2432  0.0438
  731POPI    C311575  13.667   2.196   5.351 -0.1158 -0.0460  0.0411
  731POPI   PO411576  13.644   2.691   5.614  0.2128 -0.2060  0.3440
  731POPI   GL111577  13.793   2.674   5.970  0.1251 -0.1295  0.1314
  731POPI   GL211578  14.026   2.458   5.991  0.3021  0.0097  0.1639
  731POPI   C1A11579  13.840   2.920   6.321 -0.0734  0.1253 -0.1119
  731POPI   D2A11580  13.805   2.899   6.810 -0.2310 -0.1437  0.0756
  731POPI   C3A11581  13.561   2.733   7.132 -0.0130  0.0660  0.0859
  731POPI   C4A11582  13.540   2.546   7.593  0.4280 -0.1765  0.2586
  731POPI   C1B11583  14.039   2.493   6.419 -0.1726  0.3020  0.2139
  731POPI   C2B11584  14.141   2.430   6.938  0.1783  0.1127 -0.1142
  731POPI   C3B11585  13.987   2.468   7.340 -0.1356 -0.1568 -0.1943
  731POPI   C4B11586  14.077   2.498   7.714  0.0726 -0.0320  0.1104
  732POPI    C111587   7.990   9.048   5.986  0.1268 -0.0114  0.1659
  732POPI    C211588   8.155   9.067   5.622  0.0285  0.1002  0.1267
  732POPI    C311589   7.785   9.206   5.682  0.0358  0.0621  0.2647
  732POPI   PO411590   8.128   8.892   6.114  0.1574 -0.2371 -0.2389
  732POPI   GL111591   8.275   8.818   6.512 -0.1764  0.2676 -0.3291
  732POPI   GL211592   8.409   8.460   6.472  0.1336 -0.0707 -0.0578
  732POPI   C1A11593   8.037   8.655   6.893  0.0282  0.0221  0.0376
  732POPI   D2A11594   8.121   8.612   7.404 -0.2543  0.1502  0.1621
  732POPI   C3A11595   7.899   8.823   7.694  0.0779 -0.1158 -0.2032
  732POPI   C4A11596   7.714   9.001   8.071  0.3564  0.1004  0.1503
  732POPI   C1B11597   8.508   8.463   6.901  0.0584 -0.0401  0.0644
  732POPI   C2B11598   8.580   8.451   7.397  0.0754 -0.0924 -0.1437
  732POPI   C3B11599   8.606   8.268   7.811 -0.0875  0.1197 -0.0558
  732POPI   C4B11600   8.617   8.412   8.236  0.0023 -0.0846 -0.2167
  733POPI    C111601   6.233  10.121   6.094  0.0984 -0.2173 -0.0773
  733POPI    C211602   6.392  10.422   5.882  0.0507 -0.1312  0.0087
  733POPI    C311603   6.335  10.065   5.711  0.2555 -0.1376 -0.0482
  733POPI   PO411604   6.298  10.135   6.315 -0.2120  0.0416  0.2444
  733POPI   GL111605   6.212  10.389   6.678 -0.0049 -0.0858  0.0072
  733POPI   GL211606   6.372  10.612   6.774 -0.1986  0.1447 -0.0380
  733POPI   C1A11607   6.198  10.333   7.136 -0.1231  0.0122 -0.1558
  733POPI   D2A11608   6.214  10.272   7.452 -0.0125 -0.0715 -0.2506
  733POPI   C3A11609   6.178  10.339   7.915  0.0258 -0.3599 -0.2502
  733POPI   C4A11610   5.936  10.391   8.322 -0.4928 -0.0741  0.1344
  733POPI   C1B11611   6.581  10.849   7.151 -0.0976 -0.2634 -0.1911
  733POPI   C2B11612   6.865  11.029   7.319 -0.0617 -0.0159  0.0893
  733POPI   C3B11613   6.968  11.066   7.748  0.1342 -0.3320  0.2984
  733POPI   C4B11614   7.059  10.902   8.211  0.0220  0.1747  0.0333
  734POPI    C111615   4.629   9.478   6.041 -0.0306  0.0890 -0.0013
  734POPI    C211616   4.941   9.677   6.194 -0.0505  0.1159  0.0041
  734POPI    C311617   4.871   9.686   5.800  0.1186 -0.1188 -0.0340
  734POPI   PO411618   4.751   9.201   6.190 -0.2659 -0.1487 -0.2873
  734POPI   GL111619   4.911   9.037   6.549 -0.0688 -0.1715 -0.0945
  734POPI   GL211620   4.563   8.965   6.707 -0.3313  0.0354 -0.2044
  734POPI   C1A11621   5.122   9.427   6.842 -0.0608 -0.2989  0.0799
  734POPI   D2A11622   5.322   9.420   7.260 -0.2301  0.2337 -0.0935
  734POPI   C3A11623   5.335   9.380   7.704 -0.4410 -0.2171 -0.4369
  734POPI   C4A11624   5.509   9.110   8.100  0.0972  0.0289  0.0695
  734POPI   C1B11625   4.844   9.037   7.048  0.0366 -0.0905  0.0407
  734POPI   C2B11626   4.900   9.121   7.441 -0.2097  0.0224  0.0540
  734POPI   C3B11627   5.050   9.014   7.872  0.0603 -0.3088 -0.0472
  734POPI   C4B11628   4.829   8.987   8.292  0.0896  0.2573  0.0389
  735POPI    C111629   5.531   9.519   5.779 -0.2425  0.1377  0.1502
  735POPI    C211630   5.307   9.543   5.448  0.1170 -0.2868 -0.1349
  735POPI    C311631   5.671   9.708   5.455 -0.0974  0.1975  0.2470
  735POPI   PO411632   5.422   9.598   5.997  0.3701  0.3164 -0.1419
  735POPI   GL111633   5.424   9.584   6.433 -0.1046  0.1011 -0.1067
  735POPI   GL211634   5.376   9.247   6.395  0.1035  0.3490  0.0796
  735POPI   C1A11635   5.681   9.625   6.740  0.0965 -0.0113 -0.2905
  735POPI   D2A11636   5.369   9.858   7.026 -0.1896  0.1702 -0.2662
  735POPI   C3A11637   5.422   9.970   7.515 -0.2403  0.1828  0.0506
  735POPI   C4A11638   5.373   9.817   7.979  0.1980 -0.2082 -0.1182
  735POPI   C1B11639   5.359   8.981   6.818  0.2462  0.2176  0.2786
  735POPI   C2B11640   5.311   8.891   7.228  0.1960 -0.4029 -0.1338
  735POPI   C3B11641   5.418   8.671   7.575  0.1870  0.1754 -0.1791
  735POPI   C4B11642   5.590   8.626   7.905  0.2060  0.2411  0.2601
  736POPI    C111643  14.611   2.835   5.512  0.1237 -0.2724  0.1454
  736POPI    C211644  14.370   2.772   5.199 -0.1587  0.3362  0.2275
  736POPI    C311645  14.763   2.821   5.142 -0.1452  0.0131  0.0199
  736POPI   PO411646  14.578   2.669   5.682 -0.2631 -0.0225  0.1374
  736POPI   GL111647  14.561   2.466   6.024  0.1437  0.0134  0.0953
  736POPI   GL211648  14.870   2.558   6.081  0.0060  0.0611  0.1641
  736POPI   C1A11649  14.602   2.408   6.494  0.3765  0.2008 -0.0442
  736POPI   D2A11650  14.604   2.526   6.941  0.0289 -0.1167  0.0949
  736POPI   C3A11651  14.933   2.308   7.211  0.0266  0.1450 -0.2980
  736POPI   C4A11652  15.339   2.155   7.136  0.2302 -0.4901 -0.1671
  736POPI   C1B11653  14.922   2.765   6.481 -0.3056  0.1780 -0.0563
  736POPI   C2B11654  14.723   3.023   6.811 -0.1306 -0.1635 -0.2276
  736POPI   C3B11655  14.627   3.334   7.194  0.1418 -0.1017 -0.0394
  736POPI   C4B11656  14.741   3.676   7.288 -0.3680  0.0432 -0.1121
  737POPI    C111657  13.690  15.190   5.709  0.0757  0.0170  0.0534
  737POPI    C211658  13.934  15.372   5.969  0.1376 -0.1643  0.1237
  737POPI    C311659  14.029  15.011   5.823  0.0493 -0.1121 -0.0669
  737POPI   PO411660  13.503  15.134   5.840 -0.0547  0.3315  0.1168
  737POPI   GL111661  13.590  15.040   6.237  0.1737 -0.1114  0.0265
  737POPI   GL211662  13.804  14.850   6.281 -0.0481  0.1759 -0.2962
  737POPI   C1A11663  13.627  15.105   6.750 -0.0225 -0.0088 -0.0281
  737POPI   D2A11664  13.662  15.023   7.227  0.3227  0.0629 -0.0095
  737POPI   C3A11665  13.489  14.608   7.405 -0.2242  0.2654  0.3189
  737POPI   C4A11666  13.133  14.360   7.731 -0.0155 -0.1136 -0.0676
  737POPI   C1B11667  13.752  14.592   6.693 -0.1322 -0.1647 -0.0371
  737POPI   C2B11668  13.684  14.367   7.019 -0.1669  0.0012 -0.2310
  737POPI   C3B11669  13.584  14.002   7.244  0.2943  0.0091  0.1499
  737POPI   C4B11670  13.238  13.901   7.530  0.1511  0.2638  0.0725
  738POPI    C111671   2.595   8.300   5.787  0.1967  0.3489  0.0419
  738POPI    C211672   2.399   8.205   5.452  0.0620 -0.1521  0.2534
  738POPI    C311673   2.196   8.334   5.771  0.1933  0.3563  0.1396
  738POPI   PO411674   2.758   8.092   5.867 -0.3749  0.3206  0.0920
  738POPI   GL111675   2.941   7.961   6.188 -0.1267 -0.1486 -0.1818
  738POPI   GL211676   3.057   8.227   6.273  0.1737  0.2390 -0.0014
  738POPI   C1A11677   3.167   7.828   6.582  0.1272  0.2488 -0.0019
  738POPI   D2A11678   3.301   7.992   6.987  0.0464 -0.0145 -0.2840
  738POPI   C3A11679   3.063   7.851   7.335 -0.2212  0.0077  0.2322
  738POPI   C4A11680   2.713   7.666   7.345 -0.2275  0.2104 -0.2573
  738POPI   C1B11681   3.116   8.393   6.695  0.0460 -0.0067  0.1202
  738POPI   C2B11682   3.147   8.432   7.110 -0.1800 -0.3345  0.2516
  738POPI   C3B11683   3.257   8.313   7.445  0.0784  0.4003  0.0977
  738POPI   C4B11684   3.395   8.043   7.776  0.0812 -0.0331 -0.0237
  739POPI    C111685  10.087   3.352   5.586 -0.0297 -0.0889  0.0360
  739POPI    C211686   9.778   3.456   5.356 -0.0879 -0.2425  0.0436
  739POPI    C311687  10.078   3.713   5.415 -0.1458 -0.1455 -0.0790
  739POPI   PO411688  10.039   3.257   5.790 -0.1778 -0.0019  0.1555
  739POPI   GL111689  10.257   3.119   6.070 -0.0524 -0.1341 -0.1695
  739POPI   GL211690  10.163   2.847   6.367 -0.3933 -0.0467  0.1967
  739POPI   C1A11691  10.475   3.193   6.424  0.0884  0.2644  0.0922
  739POPI   D2A11692  10.477   3.192   6.927 -0.1389  0.0433  0.2628
  739POPI   C3A11693  10.796   3.168   7.241  0.0480 -0.0441  0.0146
  739POPI   C4A11694  10.990   3.168   7.681 -0.1510 -0.1624  0.0620
  739POPI   C1B11695  10.427   2.777   6.694 -0.0905  0.0442 -0.1879
  739POPI   C2B11696  10.429   2.742   7.105  0.0022  0.1317 -0.1983
  739POPI   C3B11697  10.278   2.660   7.577 -0.1290  0.0345  0.0771
  739POPI   C4B11698  10.159   2.757   7.977  0.0842 -0.0746  0.1387
  740POPI    C111699  17.168  10.193   5.662 -0.1686 -0.1394 -0.1515
  740POPI    C211700  17.173  10.580   5.562 -0.1989 -0.1151 -0.0596
  740POPI    C311701  17.402  10.320   5.363 -0.0015 -0.0126  0.0299
  740POPI   PO411702  17.225  10.197   5.963  0.2278  0.0015  0.0560
  740POPI   GL111703  17.226   9.851   6.254  0.0114 -0.0962 -0.0004
  740POPI   GL211704  17.338   9.936   6.572 -0.1175  0.0425  0.0485
  740POPI   C1A11705  16.900   9.754   6.547 -0.0416  0.1083  0.2183
  740POPI   D2A11706  16.847   9.774   6.945 -0.2079  0.0851 -0.1930
  740POPI   C3A11707  16.484   9.845   7.052 -0.0237 -0.3284 -0.4418
  740POPI   C4A11708  16.100   9.999   7.183 -0.1633 -0.0916  0.0423
  740POPI   C1B11709  17.336   9.699   6.939 -0.1553  0.2682  0.2131
  740POPI   C2B11710  17.372   9.638   7.365 -0.0360 -0.4954  0.1209
  740POPI   C3B11711  17.623   9.664   7.815  0.0396  0.0805 -0.0878
  740POPI   C4B11712  17.853   9.404   8.141  0.2236  0.5062  0.3311
  741POPI    C111713  11.648  12.422   5.524 -0.0423  0.0007  0.0165
  741POPI    C211714  11.655  12.798   5.386 -0.0723  0.1195  0.3287
  741POPI    C311715  11.456  12.514   5.186 -0.0163  0.2597  0.0695
  741POPI   PO411716  11.615  12.464   5.769  0.1555 -0.0681 -0.2128
  741POPI   GL111717  11.518  12.332   6.253 -0.0372 -0.0649  0.0785
  741POPI   GL211718  11.423  11.980   6.397  0.1874 -0.1990  0.0679
  741POPI   C1A11719  11.515  12.352   6.743 -0.2517 -0.0066 -0.3333
  741POPI   D2A11720  11.744  12.520   7.088  0.2705 -0.0992  0.0354
  741POPI   C3A11721  11.483  12.649   7.361 -0.3794 -0.0473 -0.0973
  741POPI   C4A11722  11.445  12.727   7.872  0.1117  0.2788 -0.0316
  741POPI   C1B11723  11.738  11.675   6.569  0.1677 -0.1616 -0.0788
  741POPI   C2B11724  11.666  11.534   6.981  0.1813  0.2527  0.2263
  741POPI   C3B11725  11.849  11.414   7.334  0.0359 -0.1295  0.3279
  741POPI   C4B11726  11.670  11.331   7.717  0.1445 -0.3169  0.0724
  742POPI    C111727  16.445  17.480   5.630 -0.0209  0.1440 -0.1597
  742POPI    C211728  16.617  17.325   5.304  0.2675 -0.0945  0.0990
  742POPI    C311729  16.383  17.097   5.535 -0.0450  0.1098 -0.0093
  742POPI   PO411730  16.328  17.704   5.551  0.1050  0.2477  0.0290
  742POPI   GL111731  16.134  18.193   5.727 -0.2358 -0.3761  0.1502
  742POPI   GL211732  16.437  18.285   5.971 -0.2427 -0.3093 -0.0063
  742POPI   C1A11733  15.960  18.193   6.196  0.3597 -0.4622  0.0257
  742POPI   D2A11734  15.841  18.441   6.551 -0.2627  0.0975  0.4074
  742POPI   C3A11735  16.028  18.503   6.944 -0.2750 -0.0459  0.0044
  742POPI   C4A11736  16.260  18.661   7.252 -0.0942  0.0652 -0.0607
  742POPI   C1B11737  16.436  18.568   6.392  0.0414 -0.0033  0.1582
  742POPI   C2B11738  16.388  18.838   6.748 -0.0425 -0.2210  0.1219
  742POPI   C3B11739  16.371  19.093   7.159  0.3175  0.1667 -0.1277
  742POPI   C4B11740  16.517  19.260   7.563  0.2559  0.1141  0.1953
  743POPI    C111741   4.275  13.347   6.023  0.0564 -0.3926 -0.1494
  743POPI    C211742   4.128  13.536   5.702 -0.0514 -0.0351  0.1047
  743POPI    C311743   3.905  13.265   5.895  0.0033 -0.2302 -0.1022
  743POPI   PO411744   4.407  13.481   6.235  0.1790 -0.0809 -0.1341
  743POPI   GL111745   4.341  13.767   6.519  0.0432  0.3197 -0.2236
  743POPI   GL211746   4.271  14.104   6.465  0.0225 -0.1532 -0.1754
  743POPI   C1A11747   4.645  13.924   6.832  0.2111 -0.0605  0.2545
  743POPI   D2A11748   4.786  14.009   7.291  0.0338 -0.1821  0.0474
  743POPI   C3A11749   5.262  14.059   7.382  0.2856  0.1032  0.0524
  743POPI   C4A11750   5.749  14.213   7.480  0.2234 -0.2422  0.3759
  743POPI   C1B11751   4.162  14.087   6.880 -0.0354 -0.2583  0.1240
  743POPI   C2B11752   4.283  13.951   7.266 -0.1861 -0.5219  0.2648
  743POPI   C3B11753   4.465  13.957   7.694  0.1935  0.0013 -0.0204
  743POPI   C4B11754   4.925  14.138   7.935 -0.0617 -0.1088 -0.0410
  744POPS   CNO11755  16.373   1.181   5.825  0.0978 -0.3561  0.2062
  744POPS   PO411756  16.841   1.156   5.863 -0.2187 -0.0719 -0.0840
  744POPS   GL111757  16.978   1.116   6.284  0.0299 -0.1797 -0.2347
  744POPS   GL211758  17.246   1.118   6.424 -0.2602  0.3155 -0.0276
  744POPS   C1A11759  16.767   1.145   6.786  0.0484 -0.0031  0.1052
  744POPS   D2A11760  16.881   1.081   7.230  0.2333  0.0093 -0.1329
  744POPS   C3A11761  17.050   1.203   7.695  0.0378  0.0596 -0.0271
  744POPS   C4A11762  17.212   1.411   8.108 -0.1820 -0.4114  0.0756
  744POPS   C1B11763  17.261   1.046   6.848 -0.4612 -0.0996  0.1452
  744POPS   C2B11764  17.432   1.140   7.349 -0.0346  0.0071 -0.0665
  744POPS   C3B11765  17.594   0.982   7.750 -0.1518  0.2305  0.1043
  744POPS   C4B11766  17.561   1.029   8.225 -0.0725  0.1012  0.1524
  745POPS   CNO11767   3.010  17.415   5.870 -0.2056  0.2911 -0.0492
  745POPS   PO411768   3.218  17.626   6.149 -0.1071  0.1553 -0.1169
  745POPS   GL111769   3.049  17.438   6.560 -0.0642 -0.0497  0.2064
  745POPS   GL211770   2.809  17.637   6.723 -0.1896  0.0168  0.1076
  745POPS   C1A11771   3.094  17.509   7.068 -0.0720 -0.0183 -0.0804
  745POPS   D2A11772   3.152  17.644   7.503 -0.2091 -0.0469  0.0655
  745POPS   C3A11773   3.087  17.362   7.782 -0.2560  0.1224  0.2655
  745POPS   C4A11774   3.160  16.904   7.694 -0.0369 -0.0869 -0.0169
  745POPS   C1B11775   2.689  17.711   7.090 -0.0521 -0.0244  0.0225
  745POPS   C2B11776   2.637  17.680   7.555 -0.0573  0.0762  0.2050
  745POPS   C3B11777   2.735  17.609   7.962  0.3224  0.1297 -0.0300
  745POPS   C4B11778   2.834  17.123   8.146  0.3086  0.1102 -0.2724
  746POPS   CNO11779  16.696  10.257   5.483 -0.1033  0.0562 -0.0443
  746POPS   PO411780  16.342  10.432   5.811  0.0406  0.5579 -0.0399
  746POPS   GL111781  16.239  10.341   6.202 -0.2448  0.0971  0.1460
  746POPS   GL211782  16.564  10.333   6.356 -0.0425 -0.2072  0.0529
  746POPS   C1A11783  16.261  10.233   6.747 -0.1846 -0.1488  0.1076
  746POPS   D2A11784  16.595  10.397   7.182 -0.1883  0.0065  0.1538
  746POPS   C3A11785  16.765  10.100   7.392  0.2483 -0.0848 -0.2648
  746POPS   C4A11786  17.088   9.916   7.646 -0.2602  0.2959  0.1258
  746POPS   C1B11787  16.801  10.249   6.767  0.1321  0.2998 -0.1108
  746POPS   C2B11788  17.121  10.247   6.951  0.2348 -0.0369 -0.1319
  746POPS   C3B11789  17.337  10.187   7.253 -0.0565  0.2242 -0.0139
  746POPS   C4B11790  17.595  10.174   7.631 -0.1790  0.1846 -0.0513
  747POPS   CNO11791  11.390   1.057   5.720  0.0342 -0.2033  0.1330
  747POPS   PO411792  11.807   0.750   5.668 -0.0591 -0.2540  0.0905
  747POPS   GL111793  11.699   0.767   6.096 -0.0776  0.3641 -0.0653
  747POPS   GL211794  11.717   1.032   6.145  0.0801  0.1119 -0.0747
  747POPS   C1A11795  11.556   0.616   6.549  0.0742 -0.0755  0.1733
  747POPS   D2A11796  11.406   0.182   6.486  0.1481  0.1420 -0.0366
  747POPS   C3A11797  11.402   0.059   6.897  0.0670 -0.0768 -0.0132
  747POPS   C4A11798  11.614   0.333   7.162 -0.0580 -0.1350  0.1990
  747POPS   C1B11799  11.845   1.057   6.592 -0.0828  0.0193  0.2520
  747POPS   C2B11800  12.144   0.969   6.896  0.0397  0.0738 -0.2662
  747POPS   C3B11801  12.410   0.825   7.218 -0.2388 -0.2399 -0.2063
  747POPS   C4B11802  12.390   0.382   7.348  0.0093  0.0699 -0.4272
  748POPS   CNO11803  11.469  14.423   5.366  0.1032  0.0391  0.1180
  748POPS   PO411804  11.512  14.225   5.702 -0.0902 -0.1431 -0.1889
  748POPS   GL111805  11.674  14.135   6.043 -0.1148  0.0496  0.1024
  748POPS   GL211806  11.553  13.795   6.216  0.0274 -0.0769  0.1499
  748POPS   C1A11807  11.860  14.215   6.449 -0.2836  0.0352 -0.1414
  748POPS   D2A11808  11.887  14.325   6.787  0.1523 -0.2201 -0.0903
  748POPS   C3A11809  12.188  14.386   7.066 -0.1569 -0.0136 -0.1883
  748POPS   C4A11810  12.546  14.329   7.333  0.2444 -0.1111  0.1116
  748POPS   C1B11811  11.633  13.814   6.649  0.0660  0.0131 -0.0945
  748POPS   C2B11812  11.709  13.962   7.042  0.0672 -0.0021  0.1061
  748POPS   C3B11813  11.962  14.056   7.328 -0.0326 -0.0171 -0.1185
  748POPS   C4B11814  12.264  13.853   7.747 -0.0539  0.1613  0.3588
  749POPS   CNO11815   4.385   8.586   5.681  0.0194 -0.0083  0.0444
  749POPS   PO411816   4.281   8.281   6.040 -0.0535 -0.0193 -0.3580
  749POPS   GL111817   4.216   8.114   6.467  0.0818  0.1379 -0.1039
  749POPS   GL211818   4.004   8.502   6.410  0.4561  0.2518 -0.1399
  749POPS   C1A11819   4.299   8.152   6.953 -0.0779 -0.1578  0.1412
  749POPS   D2A11820   4.386   8.393   7.335 -0.0469 -0.1583  0.3501
  749POPS   C3A11821   4.292   8.276   7.726 -0.1688  0.1107 -0.1063
  749POPS   C4A11822   4.326   7.844   7.904  0.1494 -0.0029  0.1462
  749POPS   C1B11823   4.260   8.609   6.695  0.1864 -0.4155 -0.1662
  749POPS   C2B11824   4.421   8.849   7.156  0.0706 -0.3457 -0.0359
  749POPS   C3B11825   4.520   8.893   7.623 -0.0459 -0.2460  0.4609
  749POPS   C4B11826   4.472   8.664   8.017 -0.2326  0.2728  0.0396
  750POPS   CNO11827   5.819  17.404   5.391 -0.1933 -0.0399 -0.4102
  750POPS   PO411828   6.091  17.501   5.808  0.3972 -0.1192 -0.0722
  750POPS   GL111829   5.843  17.357   6.139  0.0414  0.4236  0.2966
  750POPS   GL211830   5.831  17.056   6.077  0.1519  0.1811  0.1316
  750POPS   C1A11831   5.733  17.339   6.589 -0.1739  0.1274 -0.3670
  750POPS   D2A11832   5.490  17.351   6.914  0.5295 -0.1605  0.0404
  750POPS   C3A11833   5.493  17.062   7.262 -0.1425  0.0630 -0.3876
  750POPS   C4A11834   5.610  16.815   7.665 -0.1730  0.1105  0.0254
  750POPS   C1B11835   5.504  17.005   6.326 -0.1877  0.0715  0.2301
  750POPS   C2B11836   5.417  16.765   6.782  0.1089  0.1047 -0.2835
  750POPS   C3B11837   5.726  16.649   7.037  0.2882 -0.0911 -0.1123
  750POPS   C4B11838   5.856  16.497   7.327  0.1044 -0.0270  0.0760
  751POPS   CNO11839  13.143  11.070   5.407 -0.2954 -0.0872  0.0620
  751POPS   PO411840  13.387  11.233   5.727  0.0044 -0.1871 -0.0274
  751POPS   GL111841  13.371  11.364   6.111 -0.1079  0.2895  0.1807
  751POPS   GL211842  13.392  11.086   6.401  0.3215 -0.0134  0.4030
  751POPS   C1A11843  13.295  11.573   6.420 -0.0086  0.0543 -0.0259
  751POPS   D2A11844  12.943  11.605   6.633 -0.0884 -0.1543 -0.0169
  751POPS   C3A11845  13.197  11.607   6.966 -0.2004 -0.2112 -0.0336
  751POPS   C4A11846  13.394  11.778   7.315 -0.0280 -0.1385  0.0713
  751POPS   C1B11847  13.060  11.090   6.793 -0.1796 -0.0375  0.2093
  751POPS   C2B11848  13.130  11.114   7.315 -0.1633 -0.1475  0.1162
  751POPS   C3B11849  13.240  11.155   7.737  0.1165  0.1911  0.2472
  751POPS   C4B11850  13.320  11.508   7.818 -0.0716  0.1294  0.0235
  752POPS   CNO11851   6.589   4.266   6.144 -0.1939  0.1242 -0.0083
  752POPS   PO411852   7.080   4.285   6.109  0.0061  0.2811  0.1659
  752POPS   GL111853   7.006   4.548   6.368  0.2052 -0.1025 -0.0178
  752POPS   GL211854   7.181   4.835   6.367 -0.0540  0.1363 -0.1098
  752POPS   C1A11855   6.840   4.521   6.712 -0.1830  0.0396 -0.3355
  752POPS   D2A11856   6.560   4.507   7.059  0.1037 -0.0633 -0.0978
  752POPS   C3A11857   6.674   4.332   7.464 -0.1835  0.1015 -0.3273
  752POPS   C4A11858   6.839   4.078   7.809 -0.2751 -0.1583  0.1431
  752POPS   C1B11859   7.120   4.921   6.872  0.1067 -0.0685 -0.0228
  752POPS   C2B11860   7.033   4.699   7.283  0.0589 -0.0136  0.1372
  752POPS   C3B11861   6.945   4.834   7.694 -0.2039 -0.0043 -0.0595
  752POPS   C4B11862   6.612   4.890   7.918 -0.1059 -0.0942  0.1950
  753POPS   CNO11863   9.137   3.451   6.268 -0.1752  0.0893  0.1406
  753POPS   PO411864   8.718   3.260   6.137 -0.3332  0.0925  0.1171
  753POPS   GL111865   8.697   3.276   6.491 -0.0641 -0.3205  0.0064
  753POPS   GL211866   8.456   3.206   6.564 -0.0793 -0.2054 -0.2256
  753POPS   C1A11867   8.983   3.382   6.697  0.0581 -0.2677  0.2496
  753POPS   D2A11868   8.992   3.376   7.132 -0.3040  0.1236 -0.0573
  753POPS   C3A11869   8.739   3.190   7.372 -0.3684 -0.0234  0.0330
  753POPS   C4A11870   8.629   2.950   7.716  0.0880  0.1899  0.0406
  753POPS   C1B11871   8.454   3.097   6.962 -0.0887  0.0258 -0.0168
  753POPS   C2B11872   8.366   2.868   7.245 -0.1523 -0.0102  0.0145
  753POPS   C3B11873   8.327   2.523   7.600  0.2232  0.3311 -0.0353
  753POPS   C4B11874   8.133   2.372   7.832 -0.0236  0.0281 -0.1140
  754POPS   CNO11875   5.491   0.478   5.971  0.0221  0.0997 -0.0831
  754POPS   PO411876   5.325   0.699   6.137 -0.0443 -0.1565  0.0601
  754POPS   GL111877   5.011   0.481   6.393  0.0747 -0.1730  0.2880
  754POPS   GL211878   4.766   0.761   6.475 -0.0243  0.0220 -0.1505
  754POPS   C1A11879   4.915   0.205   6.726  0.0934  0.1477 -0.1107
  754POPS   D2A11880   4.766  -0.008   7.226  0.0788  0.2080  0.1908
  754POPS   C3A11881   4.938  -0.093   7.521 -0.2378 -0.4296  0.2656
  754POPS   C4A11882   5.017   0.107   7.974  0.1129  0.0131  0.1800
  754POPS   C1B11883   4.819   0.631   6.931  0.1394  0.1545  0.1533
  754POPS   C2B11884   4.982   0.404   7.275 -0.1246 -0.0638 -0.0597
  754POPS   C3B11885   5.226   0.515   7.633  0.3808  0.4932  0.1712
  754POPS   C4B11886   5.432   0.475   7.960  0.0797 -0.1477  0.0431
  755POPS   CNO11887   1.834   8.000   5.977 -0.1808 -0.0695 -0.0217
  755POPS   PO411888   1.882   8.411   6.226 -0.2259  0.1384  0.2340
  755POPS   GL111889   1.847   8.238   6.656  0.3469 -0.4467 -0.0536
  755POPS   GL211890   1.816   7.873   6.562 -0.2512 -0.2093 -0.0506
  755POPS   C1A11891   1.942   8.308   7.097  0.3747  0.0376  0.0554
  755POPS   D2A11892   1.870   8.438   7.525  0.0625 -0.1734  0.1727
  755POPS   C3A11893   1.998   8.722   7.753 -0.0583 -0.0443 -0.0415
  755POPS   C4A11894   2.237   8.905   8.100 -0.1033 -0.0038  0.2880
  755POPS   C1B11895   1.763   7.810   6.991  0.1294 -0.2923  0.3970
  755POPS   C2B11896   1.850   7.534   7.407 -0.1705  0.2220  0.0713
  755POPS   C3B11897   2.061   7.405   7.861 -0.1450 -0.1372 -0.1298
  755POPS   C4B11898   2.290   7.144   8.152  0.1950 -0.1592 -0.4515
  756POPS   CNO11899   6.056   7.461   5.845 -0.0736  0.1265  0.0708
  756POPS   PO411900   6.470   7.691   5.889 -0.0927 -0.1776 -0.0673
  756POPS   GL111901   6.190   7.811   6.205  0.1654 -0.1380  0.3740
  756POPS   GL211902   5.792   7.847   6.122  0.1118  0.1045  0.2527
  756POPS   C1A11903   6.109   8.041   6.562  0.0299  0.2254 -0.1132
  756POPS   D2A11904   5.799   8.099   6.936  0.3050  0.0473 -0.0943
  756POPS   C3A11905   5.762   8.324   7.403  0.1998 -0.0838  0.4424
  756POPS   C4A11906   6.010   8.258   7.794 -0.0851 -0.3701 -0.0737
  756POPS   C1B11907   5.659   7.740   6.595  0.0441 -0.2998 -0.0051
  756POPS   C2B11908   5.636   7.624   7.090  0.1484 -0.2916 -0.0043
  756POPS   C3B11909   5.684   7.385   7.406  0.2081 -0.0218 -0.0633
  756POPS   C4B11910   5.722   7.273   7.809  0.3358 -0.2260  0.1510
  757POPS   CNO11911   4.137   3.811   5.755 -0.0258  0.2715 -0.3214
  757POPS   PO411912   4.209   3.344   5.765 -0.2682 -0.2172  0.1088
  757POPS   GL111913   4.452   3.462   6.180  0.2334  0.1576 -0.3430
  757POPS   GL211914   4.453   3.823   6.184 -0.0043  0.0538  0.0453
  757POPS   C1A11915   4.403   3.374   6.596 -0.0445  0.0986 -0.4694
  757POPS   D2A11916   4.305   3.270   7.026 -0.1922 -0.3967 -0.2504
  757POPS   C3A11917   4.425   3.175   7.364  0.0413  0.0085  0.0300
  757POPS   C4A11918   4.582   3.052   7.828  0.1591 -0.0801  0.4188
  757POPS   C1B11919   4.611   3.958   6.581  0.1736  0.0445 -0.1657
  757POPS   C2B11920   4.678   3.884   7.011 -0.1593 -0.0150  0.0018
  757POPS   C3B11921   4.734   4.056   7.444  0.1124 -0.2585 -0.1825
  757POPS   C4B11922   4.574   4.301   7.764 -0.2396  0.3474  0.1376
  758POPS   CNO11923   8.479  15.901   5.595  0.2718  0.0595  0.0626
  758POPS   PO411924   8.682  15.908   5.962  0.0424  0.2874  0.0140
  758POPS   GL111925   8.730  15.771   6.326 -0.0997 -0.3246 -0.2536
  758POPS   GL211926   8.886  15.489   6.285  0.1546 -0.1104 -0.2117
  758POPS   C1A11927   8.937  15.779   6.735 -0.1871 -0.0903 -0.1678
  758POPS   D2A11928   9.132  15.670   7.171 -0.2628 -0.3015  0.0029
  758POPS   C3A11929   9.517  15.824   7.166 -0.1534  0.0825 -0.2875
  758POPS   C4A11930   9.828  15.722   6.908  0.2753  0.1345  0.1961
  758POPS   C1B11931   8.892  15.269   6.692 -0.2162 -0.0358  0.0474
  758POPS   C2B11932   8.986  15.233   7.161 -0.1262 -0.1423 -0.0517
  758POPS   C3B11933   9.024  14.870   7.461  0.1815 -0.1096  0.1661
  758POPS   C4B11934   8.891  14.659   7.833  0.0401 -0.3628  0.1123
  759POPS   CNO11935  11.662   2.748   5.880 -0.0653 -0.1666 -0.1869
  759POPS   PO411936  12.006   2.719   5.590  0.2234  0.0415 -0.0654
  759POPS   GL111937  12.238   2.474   5.975  0.2219  0.0393 -0.1022
  759POPS   GL211938  11.977   2.558   6.258  0.1094  0.1719  0.1525
  759POPS   C1A11939  12.501   2.284   6.325  0.3843  0.1840  0.3487
  759POPS   D2A11940  12.425   2.463   6.709  0.1130  0.2905  0.2462
  759POPS   C3A11941  12.734   2.271   6.969 -0.1065  0.3484 -0.0059
  759POPS   C4A11942  12.777   2.238   7.298  0.2831 -0.1707  0.1376
  759POPS   C1B11943  11.855   2.549   6.745 -0.0402  0.0144  0.0624
  759POPS   C2B11944  12.102   2.498   7.083  0.0724  0.0927  0.1722
  759POPS   C3B11945  12.426   2.692   7.158  0.0131 -0.2391 -0.0503
  759POPS   C4B11946  12.651   2.997   7.176  0.0120  0.2259 -0.2353
  760POPS   CNO11947  16.270   2.253   5.631  0.2977  0.0895 -0.0053
  760POPS   PO411948  16.232   2.450   6.118 -0.0528 -0.0190 -0.4537
  760POPS   GL111949  16.462   2.596   6.433 -0.1965  0.0886  0.1222
  760POPS   GL211950  16.335   2.797   6.538  0.3124  0.2690  0.3649
  760POPS   C1A11951  16.434   2.427   6.900  0.2461 -0.3176 -0.2606
  760POPS   D2A11952  16.299   2.500   7.371  0.0892 -0.3093  0.0716
  760POPS   C3A11953  16.468   2.417   7.796  0.1788  0.0604  0.0306
  760POPS   C4A11954  16.605   2.172   8.206  0.0464 -0.3333  0.0321
  760POPS   C1B11955  16.411   3.046   6.941  0.1293  0.2132  0.0961
  760POPS   C2B11956  16.093   2.989   7.225  0.0009 -0.3061 -0.0154
  760POPS   C3B11957  16.165   3.300   7.606  0.0635  0.2830  0.0192
  760POPS   C4B11958  16.324   3.721   7.819  0.2155  0.4640  0.1970
  761POPS   CNO11959  14.078   1.536   5.337 -0.1311 -0.0628 -0.1206
  761POPS   PO411960  13.789   1.762   5.556 -0.0342  0.0968 -0.0269
  761POPS   GL111961  13.679   1.646   5.955 -0.1890  0.2975  0.2202
  761POPS   GL211962  13.705   1.310   5.956 -0.4297  0.2912  0.0734
  761POPS   C1A11963  13.551   1.660   6.472  0.1008  0.2497  0.5239
  761POPS   D2A11964  13.606   1.712   6.831 -0.1621  0.2413  0.3535
  761POPS   C3A11965  13.391   1.643   7.108 -0.2097 -0.0433 -0.0550
  761POPS   C4A11966  13.450   1.599   7.520  0.0509  0.0428 -0.0692
  761POPS   C1B11967  13.730   1.139   6.325 -0.0689 -0.0031  0.0441
  761POPS   C2B11968  13.608   1.203   6.684  0.1132 -0.0186  0.1288
  761POPS   C3B11969  13.508   1.092   7.148 -0.4009  0.0560 -0.0496
  761POPS   C4B11970  13.377   1.099   7.565  0.0005  0.3416 -0.1039
  762POPS   CNO11971   5.158   4.988   5.820 -0.1571 -0.1067 -0.1461
  762POPS   PO411972   4.810   5.231   5.897 -0.0752 -0.1992  0.2083
  762POPS   GL111973   4.801   5.240   6.218 -0.2359 -0.0091  0.1152
  762POPS   GL211974   4.959   4.926   6.289 -0.2006 -0.2271 -0.0937
  762POPS   C1A11975   4.674   5.347   6.581 -0.1051  0.3303 -0.2136
  762POPS   D2A11976   4.592   5.534   7.047  0.2933  0.0136 -0.1003
  762POPS   C3A11977   4.829   5.487   7.408  0.0586 -0.0614 -0.2268
  762POPS   C4A11978   4.741   5.231   7.760  0.0352  0.3282  0.1961
  762POPS   C1B11979   4.961   4.984   6.849 -0.0636 -0.0337  0.2350
  762POPS   C2B11980   4.678   5.088   7.229  0.0495  0.2480  0.1344
  762POPS   C3B11981   4.301   5.359   7.432 -0.1650  0.0769 -0.2533
  762POPS   C4B11982   3.957   5.446   7.705 -0.1454  0.1142 -0.0778
  763POPS   CNO11983   8.944   9.522   5.909  0.0618  0.0028 -0.2114
  763POPS   PO411984   9.291   9.607   6.206 -0.1228  0.0773  0.2733
  763POPS   GL111985   9.306   9.433   6.602 -0.0290  0.4343  0.0761
  763POPS   GL211986   9.521   9.103   6.660  0.2568  0.0449 -0.0188
  763POPS   C1A11987   9.122   9.702   6.934  0.0297 -0.0363 -0.0814
  763POPS   D2A11988   8.758   9.777   6.929 -0.2556  0.1316 -0.1442
  763POPS   C3A11989   8.533   9.899   7.292  0.2834 -0.2178 -0.1680
  763POPS   C4A11990   8.548  10.136   7.510  0.3655  0.0464 -0.0048
  763POPS   C1B11991   9.521   9.339   7.014  0.0204 -0.4167 -0.2622
  763POPS   C2B11992   9.881   9.451   7.282  0.0051 -0.0221  0.0006
  763POPS   C3B11993  10.167   9.371   7.644 -0.0563  0.2992 -0.0397
  763POPS   C4B11994  10.222   9.409   8.069 -0.3414 -0.1013 -0.2100
  764POPS   CNO11995  11.815  13.789   5.602  0.0882 -0.0453 -0.0809
  764POPS   PO411996  11.931  13.389   5.730 -0.1258 -0.0472  0.0022
  764POPS   GL111997  11.875  13.384   6.099  0.3745 -0.0274 -0.3338
  764POPS   GL211998  12.182  13.223   6.125 -0.0941  0.1105  0.3713
  764POPS   C1A11999  11.795  13.321   6.555  0.0866  0.0385 -0.0804
  764POPS   D2A12000  11.791  13.395   6.988  0.3405 -0.2544  0.0040
  764POPS   C3A12001  12.049  13.369   7.312 -0.2339  0.0626  0.3415
  764POPS   C4A12002  12.338  13.213   7.511  0.1239  0.2975  0.0488
  764POPS   C1B12003  12.259  13.112   6.500  0.0214 -0.2068  0.2018
  764POPS   C2B12004  12.036  12.952   6.870  0.0030  0.3203  0.0890
  764POPS   C3B12005  12.044  12.797   7.387  0.2770  0.0734  0.0706
  764POPS   C4B12006  11.944  12.939   7.783  0.1420 -0.0121  0.0969
  765POPS   CNO12007  12.644  15.135   5.739 -0.1505  0.1310  0.1731
  765POPS   PO412008  13.082  14.895   5.700 -0.1087 -0.0784 -0.1902
  765POPS   GL112009  13.161  14.656   6.077  0.2132  0.0014 -0.0613
  765POPS   GL212010  12.983  14.513   6.317 -0.0256  0.3719  0.1330
  765POPS   C1A12011  13.471  14.556   6.322 -0.2751  0.2586 -0.0152
  765POPS   D2A12012  13.431  14.176   6.459 -0.0120  0.3305 -0.1447
  765POPS   C3A12013  13.296  14.060   6.790  0.0711  0.0318 -0.1518
  765POPS   C4A12014  13.185  14.222   7.192 -0.0228 -0.2126 -0.2324
  765POPS   C1B12015  13.062  14.484   6.736 -0.0316  0.1369 -0.2496
  765POPS   C2B12016  12.910  14.615   7.210 -0.0425  0.1047 -0.0267
  765POPS   C3B12017  12.735  14.737   7.649 -0.0439  0.2568  0.0595
  765POPS   C4B12018  12.831  14.893   8.067  0.0577  0.1032 -0.0743
  766POPS   CNO12019  16.371   4.741   5.523 -0.0667  0.1280 -0.3071
  766POPS   PO412020  16.596   4.815   5.910  0.1638  0.0418 -0.1371
  766POPS   GL112021  16.475   4.839   6.363  0.0382  0.3598  0.0105
  766POPS   GL212022  16.204   4.723   6.511  0.3062 -0.1016 -0.0692
  766POPS   C1A12023  16.554   5.073   6.813  0.4929 -0.0634 -0.0998
  766POPS   D2A12024  16.622   5.362   7.183  0.1665 -0.1251 -0.2945
  766POPS   C3A12025  16.391   5.361   7.512  0.0216 -0.0020 -0.3040
  766POPS   C4A12026  16.013   5.622   7.740 -0.0947 -0.2498 -0.0277
  766POPS   C1B12027  16.300   4.706   6.930  0.1852 -0.3210 -0.1667
  766POPS   C2B12028  16.295   4.601   7.335 -0.0600 -0.0764  0.0491
  766POPS   C3B12029  16.406   4.400   7.635  0.0557 -0.0460  0.0498
  766POPS   C4B12030  16.621   4.046   7.560 -0.0284  0.0774  0.0236
  767POPS   CNO12031   7.491  15.538   5.617 -0.3392  0.1767 -0.1278
  767POPS   PO412032   7.721  15.813   5.843  0.3394  0.2351  0.0980
  767POPS   GL112033   7.636  15.660   6.162 -0.2109 -0.0907  0.1379
  767POPS   GL212034   7.807  15.423   6.361 -0.0416 -0.1106  0.0700
  767POPS   C1A12035   7.283  15.650   6.483 -0.1373  0.2445  0.1280
  767POPS   D2A12036   7.091  15.478   6.775  0.1535  0.0711 -0.0925
  767POPS   C3A12037   6.966  15.663   7.193 -0.1289  0.1720  0.2837
  767POPS   C4A12038   6.954  15.916   7.525 -0.2739 -0.0079 -0.2325
  767POPS   C1B12039   7.604  15.280   6.791  0.2229  0.0089 -0.1549
  767POPS   C2B12040   7.407  15.291   7.088  0.0950 -0.0840  0.0640
  767POPS   C3B12041   7.315  15.459   7.492  0.1925  0.2397 -0.2218
  767POPS   C4B12042   6.923  15.415   7.741  0.0021  0.1507  0.1022
  768POPS   CNO12043   2.516  15.596   6.000 -0.2770  0.0660  0.1395
  768POPS   PO412044   2.956  15.634   5.974  0.1950  0.1484  0.0791
  768POPS   GL112045   3.007  15.456   6.282  0.1287  0.1920  0.1016
  768POPS   GL212046   2.876  15.599   6.570 -0.0184  0.0862  0.0568
  768POPS   C1A12047   3.392  15.412   6.546  0.0388 -0.1515 -0.2918
  768POPS   D2A12048   3.566  15.309   6.999  0.0268  0.0208  0.0664
  768POPS   C3A12049   3.737  15.668   7.226  0.1276  0.2298 -0.2221
  768POPS   C4A12050   3.851  16.041   7.507 -0.0273  0.1865 -0.0466
  768POPS   C1B12051   2.703  15.669   7.036 -0.0895 -0.0785 -0.2062
  768POPS   C2B12052   2.784  15.475   7.461  0.1774 -0.0111 -0.0225
  768POPS   C3B12053   2.707  15.025   7.572  0.1527  0.1197  0.1675
  768POPS   C4B12054   2.557  14.912   8.043  0.1591  0.2963 -0.0107
  769POPS   CNO12055  14.472  11.117   5.883 -0.0362 -0.2234 -0.1506
  769POPS   PO412056  14.781  10.956   5.982 -0.3209  0.0931  0.2679
  769POPS   GL112057  14.746  11.269   6.285  0.0745 -0.0651 -0.1549
  769POPS   GL212058  15.067  11.447   6.375  0.0892 -0.2274 -0.2294
  769POPS   C1A12059  14.604  11.362   6.636  0.0491 -0.0527 -0.0359
  769POPS   D2A12060  14.771  11.406   7.030  0.2201  0.3458  0.1057
  769POPS   C3A12061  15.008  11.498   7.383  0.1291 -0.0385 -0.1505
  769POPS   C4A12062  15.111  11.651   7.860  0.0882  0.1396 -0.3533
  769POPS   C1B12063  15.204  11.803   6.703  0.3742  0.0204 -0.4622
  769POPS   C2B12064  15.412  11.821   7.129  0.2066  0.1954  0.1051
  769POPS   C3B12065  15.471  11.818   7.460  0.0749 -0.1035  0.1032
  769POPS   C4B12066  15.388  12.069   7.789 -0.1243 -0.2637  0.1076
  770POPS   CNO12067  10.535   0.012   6.062  0.1134 -0.0254 -0.0923
  770POPS   PO412068  11.050  -0.006   6.108 -0.0288  0.3385  0.1669
  770POPS   GL112069  10.919  -0.067   6.519  0.0330 -0.1733  0.0662
  770POPS   GL212070  10.685  -0.103   6.496  0.0089  0.2576  0.0235
  770POPS   C1A12071  10.897   0.083   6.916 -0.0903 -0.2935 -0.1214
  770POPS   D2A12072  11.059   0.068   7.392  0.1066  0.1172  0.2924
  770POPS   C3A12073  11.301  -0.172   7.710  0.2706 -0.0474 -0.0609
  770POPS   C4A12074  11.220  -0.328   8.094 -0.0660 -0.0908  0.0850
  770POPS   C1B12075  10.453  -0.011   6.830  0.4925  0.0500  0.3517
  770POPS   C2B12076  10.276   0.201   7.072 -0.1142 -0.2170  0.0096
  770POPS   C3B12077  10.159   0.527   7.223  0.1287 -0.1806 -0.0905
  770POPS   C4B12078  10.394   0.841   7.367 -0.2810  0.4484 -0.0102
  771POPS   CNO12079   6.021   6.586   5.841  0.1375  0.1902  0.0435
  771POPS   PO412080   6.172   6.976   5.991 -0.1326 -0.0594  0.2424
  771POPS   GL112081   6.226   7.046   6.348  0.2553  0.1080 -0.1181
  771POPS   GL212082   6.270   7.362   6.388 -0.0224 -0.3508 -0.1039
  771POPS   C1A12083   6.354   7.050   6.787  0.1739 -0.0611 -0.1232
  771POPS   D2A12084   6.607   6.934   7.101 -0.0065 -0.3665  0.1360
  771POPS   C3A12085   6.584   7.173   7.449  0.2230  0.3247 -0.1661
  771POPS   C4A12086   6.545   7.144   7.794  0.0681 -0.3906 -0.0911
  771POPS   C1B12087   6.105   7.553   6.801 -0.0232  0.0318  0.2291
  771POPS   C2B12088   6.186   7.475   7.152 -0.0890 -0.0023 -0.1655
  771POPS   C3B12089   6.152   7.399   7.620  0.1660 -0.2722  0.1125
  771POPS   C4B12090   6.112   7.011   8.003 -0.2412  0.1616  0.0890
  772POPS   CNO12091   7.698  13.082   6.390 -0.2588  0.0018 -0.0781
  772POPS   PO412092   7.757  13.434   6.193 -0.0691 -0.1149  0.1177
  772POPS   GL112093   7.960  13.630   6.550 -0.1415 -0.1411 -0.0442
  772POPS   GL212094   8.229  13.750   6.521  0.0517  0.0471 -0.0355
  772POPS   C1A12095   8.103  13.772   6.997 -0.2953 -0.1723 -0.0041
  772POPS   D2A12096   8.280  13.970   7.320 -0.0314  0.1147  0.0412
  772POPS   C3A12097   8.322  13.708   7.758  0.3313 -0.0345  0.2161
  772POPS   C4A12098   8.677  13.812   8.196 -0.3037  0.0742  0.1445
  772POPS   C1B12099   8.488  13.564   6.770 -0.2022  0.1640 -0.3624
  772POPS   C2B12100   8.523  13.541   7.179 -0.1327 -0.0712  0.3150
  772POPS   C3B12101   8.550  13.326   7.559  0.0715 -0.0961  0.0977
  772POPS   C4B12102   8.625  13.231   7.998 -0.2009  0.1741  0.0574
  773POPS   CNO12103   6.850   2.227   5.611  0.4593  0.0004 -0.2525
  773POPS   PO412104   7.181   2.371   5.784 -0.0576  0.1150 -0.0900
  773POPS   GL112105   7.173   2.441   6.220  0.1850  0.3298 -0.0893
  773POPS   GL212106   7.289   2.217   6.437  0.1789  0.3201 -0.1135
  773POPS   C1A12107   7.097   2.634   6.702 -0.1527 -0.1043  0.0094
  773POPS   D2A12108   7.326   3.059   6.812  0.2119 -0.0124  0.2208
  773POPS   C3A12109   7.375   2.994   7.194 -0.0299 -0.0404  0.3817
  773POPS   C4A12110   7.393   3.147   7.572 -0.3091 -0.1919 -0.2021
  773POPS   C1B12111   7.513   2.088   6.801 -0.1595  0.0659  0.0234
  773POPS   C2B12112   7.732   2.165   7.216  0.0850  0.0267  0.0890
  773POPS   C3B12113   7.920   1.930   7.625 -0.1835 -0.0932  0.1133
  773POPS   C4B12114   8.158   1.898   8.066  0.0366  0.4334 -0.0091
  774POPS   CNO12115   3.324   1.863   6.074  0.4544 -0.0340  0.2047
  774POPS   PO412116   3.076   2.254   6.011  0.0166  0.0357  0.2794
  774POPS   GL112117   2.893   2.097   6.334 -0.2611  0.1825  0.0692
  774POPS   GL212118   3.134   1.822   6.537 -0.3141 -0.1459  0.0371
  774POPS   C1A12119   2.788   2.203   6.773 -0.3020 -0.1043 -0.1939
  774POPS   D2A12120   2.862   2.490   7.057 -0.0178 -0.1403 -0.4707
  774POPS   C3A12121   2.739   2.431   7.480 -0.1049 -0.0019  0.0270
  774POPS   C4A12122   2.501   2.380   7.905  0.3686  0.0509 -0.1080
  774POPS   C1B12123   2.999   1.560   6.929  0.2106  0.1678 -0.2088
  774POPS   C2B12124   2.800   1.167   7.258  0.0125 -0.2010 -0.3771
  774POPS   C3B12125   2.561   1.087   7.633 -0.1740 -0.1293  0.0533
  774POPS   C4B12126   2.223   0.873   7.713 -0.0130  0.1591 -0.0492
  775POPS   CNO12127  13.944  12.021   6.104 -0.1472 -0.0060 -0.0261
  775POPS   PO412128  14.145  12.344   5.976  0.1096  0.3011  0.1252
  775POPS   GL112129  14.488  12.238   6.342 -0.2026  0.1962 -0.1520
  775POPS   GL212130  14.305  12.073   6.515 -0.1606 -0.0237  0.2180
  775POPS   C1A12131  14.710  11.974   6.702  0.1373  0.1068  0.2929
  775POPS   D2A12132  14.884  11.928   7.114  0.0398 -0.3305  0.1607
  775POPS   C3A12133  14.918  12.001   7.513 -0.1165  0.2581  0.0100
  775POPS   C4A12134  14.632  11.872   7.868 -0.2016 -0.2092 -0.1731
  775POPS   C1B12135  14.164  12.116   6.945  0.0757 -0.1297 -0.1242
  775POPS   C2B12136  14.186  12.029   7.404  0.0885 -0.2865  0.2615
  775POPS   C3B12137  14.164  11.941   7.799  0.1759 -0.2372 -0.0620
  775POPS   C4B12138  13.895  11.704   8.050 -0.0039  0.2085  0.0407
  776POPS   CNO12139  17.403  12.823   6.113 -0.0294  0.0938 -0.0689
  776POPS   PO412140  17.115  13.129   5.916 -0.1500 -0.1891  0.1043
  776POPS   GL112141  17.169  13.241   6.416  0.0480 -0.2664  0.0749
  776POPS   GL212142  17.175  13.523   6.488  0.0311  0.0606 -0.1710
  776POPS   C1A12143  17.611  13.281   6.576 -0.1972 -0.3406 -0.1598
  776POPS   D2A12144  17.858  13.533   6.766  0.0960  0.0116 -0.1821
  776POPS   C3A12145  17.935  13.646   7.079  0.1686 -0.0069 -0.1279
  776POPS   C4A12146  18.161  13.726   7.464  0.0497 -0.1410 -0.0492
  776POPS   C1B12147  17.219  13.522   6.886  0.2701  0.1451 -0.1466
  776POPS   C2B12148  17.466  13.597   7.288  0.0922  0.2487 -0.0497
  776POPS   C3B12149  17.306  13.969   7.566 -0.0945 -0.3922  0.1862
  776POPS   C4B12150  17.168  14.343   7.872 -0.0812  0.0058  0.1789
  777POPS   CNO12151   0.864   2.315   5.735 -0.3873 -0.0621  0.0651
  777POPS   PO412152   0.687   2.140   5.958  0.2033 -0.0457 -0.1459
  777POPS   GL112153   0.678   2.380   6.212 -0.1146  0.0387 -0.1150
  777POPS   GL212154   0.966   2.370   6.337 -0.4014  0.2804  0.0557
  777POPS   C1A12155   0.536   2.576   6.550  0.2499 -0.1062  0.0451
  777POPS   D2A12156   0.572   2.479   6.910 -0.0833  0.1559  0.1354
  777POPS   C3A12157   0.580   2.641   7.408  0.0197  0.1369 -0.3354
  777POPS   C4A12158   0.915   2.787   7.649  0.0187 -0.1444  0.0243
  777POPS   C1B12159   0.937   2.207   6.683 -0.0774  0.1745 -0.0198
  777POPS   C2B12160   0.960   2.191   7.063 -0.1207  0.1902 -0.2066
  777POPS   C3B12161   0.917   2.299   7.462 -0.2788  0.2045 -0.0822
  777POPS   C4B12162   1.209   2.209   7.771 -0.3089 -0.2111 -0.1431
  778POPS   CNO12163   4.216  14.722   5.802  0.0273  0.2177  0.0142
  778POPS   PO412164   4.474  14.550   6.109 -0.2676 -0.1306 -0.3910
  778POPS   GL112165   4.320  14.612   6.481  0.3224 -0.1386 -0.0953
  778POPS   GL212166   4.470  14.911   6.631  0.0156 -0.2327 -0.1713
  778POPS   C1A12167   4.516  14.432   6.781 -0.0849  0.3924 -0.1092
  778POPS   D2A12168   4.491  14.399   7.117  0.1851 -0.0443  0.1913
  778POPS   C3A12169   4.412  14.765   7.207  0.0387  0.0132 -0.1246
  778POPS   C4A12170   4.515  14.912   7.582 -0.1405  0.2963 -0.4131
  778POPS   C1B12171   4.348  15.272   6.675 -0.0751  0.2481  0.0610
  778POPS   C2B12172   3.971  15.556   6.768  0.1311  0.3434  0.1405
  778POPS   C3B12173   3.695  15.782   6.738  0.0710  0.1701  0.2163
  778POPS   C4B12174   3.639  16.206   6.607 -0.0174  0.0238 -0.0059
  779POPS   CNO12175  10.558   4.306   5.580  0.0840 -0.2029 -0.0825
  779POPS   PO412176  10.122   4.150   5.697 -0.1600  0.1056 -0.0452
  779POPS   GL112177  10.031   4.072   6.194 -0.2830 -0.0034  0.4105
  779POPS   GL212178   9.761   4.000   6.356  0.1411 -0.2066 -0.1393
  779POPS   C1A12179  10.248   4.088   6.490 -0.1150 -0.1419  0.3266
  779POPS   D2A12180  10.467   4.027   6.832  0.0991  0.1079  0.2219
  779POPS   C3A12181  10.389   4.135   7.202 -0.0503 -0.2546 -0.0784
  779POPS   C4A12182  10.506   3.992   7.638  0.0010 -0.1222 -0.1343
  779POPS   C1B12183   9.788   4.119   6.769 -0.2298  0.1868 -0.4419
  779POPS   C2B12184   9.846   4.105   7.197  0.2883 -0.0480  0.0241
  779POPS   C3B12185   9.914   4.227   7.617  0.0109  0.1044 -0.0618
  779POPS   C4B12186   9.622   4.106   8.002  0.2262  0.5156 -0.2226
  780POPS   CNO12187   2.085  16.430   5.736 -0.1436 -0.0933 -0.0125
  780POPS   PO412188   1.982  16.718   6.050 -0.3549  0.0875  0.0723
  780POPS   GL112189   1.915  16.573   6.450  0.5899 -0.1149 -0.3804
  780POPS   GL212190   1.796  16.243   6.535 -0.2285 -0.2064 -0.1190
  780POPS   C1A12191   1.976  16.522   6.887  0.2777  0.2812  0.1885
  780POPS   D2A12192   1.835  16.389   7.322 -0.2699 -0.1806 -0.0789
  780POPS   C3A12193   1.574  16.448   7.659 -0.1135  0.0444 -0.1839
  780POPS   C4A12194   1.334  16.602   8.029 -0.0795  0.2814  0.3035
  780POPS   C1B12195   1.445  16.096   6.538  0.1820 -0.0094  0.0802
  780POPS   C2B12196   1.036  16.202   6.699 -0.1525 -0.0780 -0.1085
  780POPS   C3B12197   0.599  16.297   6.588 -0.4690  0.2339 -0.1261
  780POPS   C4B12198   0.382  16.604   6.527 -0.0120 -0.1368 -0.1455
  781POPS   CNO12199   8.023  11.925   5.854 -0.1499  0.2432 -0.5169
  781POPS   PO412200   8.153  11.559   5.998 -0.0531 -0.0693 -0.1097
  781POPS   GL112201   7.980  11.703   6.415 -0.1270  0.1905 -0.0458
  781POPS   GL212202   7.694  11.590   6.441 -0.4277 -0.1157  0.1895
  781POPS   C1A12203   7.952  11.816   6.864 -0.0642  0.1449  0.1999
  781POPS   D2A12204   8.009  12.010   7.312  0.0770  0.1080 -0.2035
  781POPS   C3A12205   8.113  11.814   7.702  0.0611  0.1690  0.1029
  781POPS   C4A12206   8.183  11.520   8.002 -0.0360  0.0493 -0.3108
  781POPS   C1B12207   7.731  11.389   6.778  0.2911 -0.2783  0.1663
  781POPS   C2B12208   7.776  11.097   7.074 -0.4175  0.0973  0.0727
  781POPS   C3B12209   7.579  10.816   7.331 -0.1479  0.0418  0.3122
  781POPS   C4B12210   7.374  10.788   7.505 -0.2002  0.2221 -0.1243
  782POPS   CNO12211   2.296   7.840   5.776  0.1088 -0.2832 -0.1872
  782POPS   PO412212   2.110   7.589   6.185  0.0917 -0.1636 -0.1255
  782POPS   GL112213   2.159   7.387   6.645 -0.1828  0.2000  0.2540
  782POPS   GL212214   2.495   7.320   6.673  0.1853 -0.4396 -0.0080
  782POPS   C1A12215   1.846   7.248   6.949 -0.1527  0.2141  0.1410
  782POPS   D2A12216   1.837   7.009   7.315  0.0957 -0.1950 -0.0270
  782POPS   C3A12217   1.650   6.893   7.634 -0.0933  0.0045  0.2291
  782POPS   C4A12218   1.360   6.539   7.810  0.2227  0.0752 -0.0680
  782POPS   C1B12219   2.766   7.542   6.864 -0.2212  0.4234 -0.1485
  782POPS   C2B12220   3.240   7.385   7.055 -0.4187 -0.2293  0.1167
  782POPS   C3B12221   3.346   7.109   7.308  0.0667  0.0625  0.1056
  782POPS   C4B12222   3.176   6.932   7.680  0.1557  0.2599  0.0296
  783POPS   CNO12223   0.125   1.425   5.630 -0.0111  0.2449  0.2751
  783POPS   PO412224   0.248   1.480   5.965  0.4050 -0.1137 -0.2510
  783POPS   GL112225   0.126   1.537   6.462  0.0648 -0.1526 -0.0087
  783POPS   GL212226  -0.058   1.838   6.626  0.1654 -0.1110 -0.2701
  783POPS   C1A12227   0.522   1.424   6.768  0.2184 -0.0778  0.5018
  783POPS   D2A12228   0.510   1.315   7.150  0.0289 -0.0101  0.0106
  783POPS   C3A12229   0.733   0.970   7.281 -0.1903  0.0407  0.1223
  783POPS   C4A12230   0.974   0.661   7.084 -0.3092  0.2394 -0.2941
  783POPS   C1B12231   0.055   1.545   7.035 -0.0537  0.0580  0.2059
  783POPS   C2B12232  -0.205   1.572   7.396  0.0125 -0.2483  0.1528
  783POPS   C3B12233  -0.203   1.363   7.815  0.0554 -0.0062  0.2289
  783POPS   C4B12234  -0.419   1.538   8.200  0.4041  0.0408 -0.0103
  784POPS   CNO12235  16.106   6.036   6.084  0.1068  0.1174 -0.0854
  784POPS   PO412236  15.740   6.030   5.683  0.0235  0.2401 -0.0216
  784POPS   GL112237  15.545   5.911   6.099 -0.0341  0.0240 -0.0800
  784POPS   GL212238  15.676   6.176   6.275  0.2917  0.0240 -0.2256
  784POPS   C1A12239  15.332   5.877   6.440 -0.0206  0.2360 -0.2248
  784POPS   D2A12240  15.090   6.119   6.762 -0.0657 -0.2017  0.1172
  784POPS   C3A12241  15.001   5.956   7.138 -0.0774  0.2248 -0.1209
  784POPS   C4A12242  15.068   5.901   7.589 -0.2385 -0.0991  0.0304
  784POPS   C1B12243  15.558   6.379   6.687  0.0003  0.0403  0.0292
  784POPS   C2B12244  15.414   6.427   7.110 -0.1680  0.1991  0.0585
  784POPS   C3B12245  15.333   6.307   7.536  0.0276  0.1044 -0.0050
  784POPS   C4B12246  15.197   6.273   7.915 -0.3987 -0.1574 -0.1439
  785POPS   CNO12247  15.451   3.278   5.331  0.0125 -0.1824 -0.0097
  785POPS   PO412248  15.356   3.258   5.685  0.1732 -0.3659  0.1759
  785POPS   GL112249  15.317   3.012   6.095 -0.2053  0.0136  0.1247
  785POPS   GL212250  15.417   3.271   6.355  0.0814  0.0718 -0.2097
  785POPS   C1A12251  15.414   2.754   6.508 -0.1232  0.0367 -0.1178
  785POPS   D2A12252  15.807   2.562   6.750  0.4510 -0.1269  0.0046
  785POPS   C3A12253  15.784   2.588   7.235  0.0285  0.1395 -0.0428
  785POPS   C4A12254  15.402   2.487   7.457  0.1120 -0.1804 -0.0719
  785POPS   C1B12255  15.179   3.188   6.736  0.2971 -0.1561  0.0589
  785POPS   C2B12256  15.175   3.282   7.268  0.0259 -0.0739 -0.0294
  785POPS   C3B12257  15.262   3.642   7.391  0.0846  0.0469  0.0182
  785POPS   C4B12258  15.086   4.032   7.430 -0.4864 -0.0985 -0.0035
  786POPS   CNO12259   5.975  15.346   5.836 -0.2165  0.0504 -0.2036
  786POPS   PO412260   6.104  15.073   5.555 -0.0842  0.0739 -0.3486
  786POPS   GL112261   5.939  14.811   5.921 -0.0153 -0.2664  0.1143
  786POPS   GL212262   5.722  14.929   6.034 -0.0180  0.2583 -0.1691
  786POPS   C1A12263   6.015  14.798   6.374 -0.0611 -0.0356 -0.0012
  786POPS   D2A12264   5.837  15.024   6.793 -0.1495 -0.2027  0.0202
  786POPS   C3A12265   6.126  15.156   7.190 -0.0313  0.0049 -0.3968
  786POPS   C4A12266   5.999  15.417   7.503 -0.2830  0.2395  0.1510
  786POPS   C1B12267   5.745  15.325   6.227  0.0903 -0.2737  0.2038
  786POPS   C2B12268   5.686  15.591   6.594  0.1123  0.1159  0.1521
  786POPS   C3B12269   5.687  15.520   7.082 -0.2643  0.1682  0.0069
  786POPS   C4B12270   5.602  15.132   7.303 -0.0586  0.0565  0.0066
  787POPS   CNO12271  17.106   0.028   5.591 -0.1093 -0.0971 -0.0245
  787POPS   PO412272  16.944   0.363   5.784  0.0615 -0.0872 -0.0193
  787POPS   GL112273  16.952   0.265   6.190 -0.0437  0.0994 -0.1097
  787POPS   GL212274  17.240  -0.054   6.256  0.0681 -0.0467 -0.0122
  787POPS   C1A12275  16.832   0.035   6.545  0.1207  0.1233 -0.2085
  787POPS   D2A12276  17.011   0.051   6.946  0.4476  0.0921 -0.1669
  787POPS   C3A12277  16.934   0.055   7.411 -0.1279  0.2477 -0.0290
  787POPS   C4A12278  16.978   0.320   7.799  0.0603 -0.0062  0.0124
  787POPS   C1B12279  17.288   0.225   6.609 -0.4545  0.0853  0.4718
  787POPS   C2B12280  17.465   0.309   6.973  0.2597  0.2340 -0.1576
  787POPS   C3B12281  17.430   0.641   7.097 -0.1502  0.0183  0.0525
  787POPS   C4B12282  17.220   0.724   7.473 -0.0423 -0.0491 -0.3273
  788POPS   CNO12283   4.521  16.668   5.602  0.1040 -0.3364  0.1257
  788POPS   PO412284   4.236  16.728   5.882 -0.0925  0.2023 -0.1361
  788POPS   GL112285   4.216  16.710   6.293 -0.1536  0.1458  0.0732
  788POPS   GL212286   4.377  16.894   6.422 -0.1637 -0.1809 -0.2054
  788POPS   C1A12287   4.137  16.528   6.656  0.0366  0.0184 -0.1291
  788POPS   D2A12288   4.157  16.665   7.053  0.0287 -0.2839 -0.1757
  788POPS   C3A12289   4.228  16.290   7.361  0.0887  0.2307 -0.2334
  788POPS   C4A12290   4.556  16.099   7.647  0.0467 -0.0866  0.1166
  788POPS   C1B12291   4.566  16.862   6.851 -0.1644 -0.1475 -0.1935
  788POPS   C2B12292   4.669  16.536   7.171 -0.1246 -0.2498 -0.0552
  788POPS   C3B12293   4.894  16.383   7.487  0.0317 -0.2227 -0.0239
  788POPS   C4B12294   5.215  16.433   7.788  0.2013 -0.5301 -0.0831
  789POPS   CNO12295   5.924  14.352   5.744 -0.0786 -0.1787 -0.2061
  789POPS   PO412296   5.745  14.276   6.090  0.0115 -0.0858  0.1911
  789POPS   GL112297   5.683  14.360   6.508  0.0053  0.1901 -0.1738
  789POPS   GL212298   5.407  14.518   6.493 -0.0711 -0.1534 -0.0732
  789POPS   C1A12299   5.549  14.180   6.947  0.1105 -0.0177  0.0209
  789POPS   D2A12300   5.793  13.859   7.198  0.0172 -0.1224 -0.1606
  789POPS   C3A12301   5.601  13.786   7.713  0.0811  0.0447 -0.1746
  789POPS   C4A12302   5.828  13.612   8.135  0.0780  0.0896  0.0784
  789POPS   C1B12303   5.428  14.681   6.869  0.0194  0.1745  0.2358
  789POPS   C2B12304   5.411  14.624   7.371  0.3287  0.0922  0.1378
  789POPS   C3B12305   5.419  14.632   7.807 -0.0188 -0.1761  0.2222
  789POPS   C4B12306   5.732  14.745   8.040 -0.2265 -0.1705 -0.2139
  790POPS   CNO12307   2.265  13.497   5.885  0.2169 -0.1114 -0.1727
  790POPS   PO412308   2.114  13.751   6.200 -0.1086  0.2155 -0.1200
  790POPS   GL112309   2.010  13.925   6.583 -0.1359 -0.0001  0.0370
  790POPS   GL212310   2.105  14.151   6.519  0.1977 -0.0221  0.1216
  790POPS   C1A12311   1.957  13.819   7.057 -0.2284  0.1749  0.0164
  790POPS   D2A12312   1.894  13.917   7.489 -0.0770  0.1074  0.1478
  790POPS   C3A12313   1.982  13.619   7.724  0.1268  0.2959 -0.1990
  790POPS   C4A12314   2.189  13.345   8.081 -0.1004 -0.0726 -0.0262
  790POPS   C1B12315   2.412  14.252   6.928  0.0026 -0.0488  0.2796
  790POPS   C2B12316   2.363  14.143   7.336 -0.1530  0.0525 -0.0580
  790POPS   C3B12317   2.434  13.937   7.706 -0.0615  0.0452  0.1190
  790POPS   C4B12318   2.158  13.913   8.146  0.0865  0.0925  0.0083
  791POPS   CNO12319   4.723  11.940   5.824 -0.2239  0.1080 -0.0358
  791POPS   PO412320   4.993  11.727   6.155 -0.1525 -0.1713 -0.2860
  791POPS   GL112321   5.148  11.421   6.513 -0.2724 -0.2852  0.0515
  791POPS   GL212322   4.817  11.305   6.535  0.0227  0.0778  0.1479
  791POPS   C1A12323   5.446  11.256   6.850  0.4017  0.1212  0.0240
  791POPS   D2A12324   5.454  11.103   7.232 -0.1670  0.1387  0.2119
  791POPS   C3A12325   5.729  11.242   7.643  0.0488  0.0065 -0.1616
  791POPS   C4A12326   5.740  11.406   7.977  0.0241  0.1461 -0.1764
  791POPS   C1B12327   4.904  11.241   6.909  0.1635 -0.1447 -0.0997
  791POPS   C2B12328   4.983  11.181   7.353 -0.0714  0.0348  0.3729
  791POPS   C3B12329   4.844  11.121   7.801 -0.0172 -0.0317 -0.1463
  791POPS   C4B12330   4.946  11.370   8.243 -0.1699  0.1579 -0.0171
  792POPS   CNO12331  14.782   0.000   4.671 -0.0605 -0.3076  0.0422
  792POPS   PO412332  14.776  -0.046   5.246  0.0778  0.3419  0.1129
  792POPS   GL112333  14.788   0.071   5.637  0.4423 -0.0372  0.0522
  792POPS   GL212334  14.969   0.262   5.666 -0.0651  0.3588 -0.2529
  792POPS   C1A12335  14.439   0.158   5.933 -0.2892  0.1441  0.2722
  792POPS   D2A12336  13.884   0.101   5.837 -0.3020 -0.1648 -0.0714
  792POPS   C3A12337  13.558   0.213   6.168 -0.2271  0.0216 -0.0253
  792POPS   C4A12338  13.199   0.111   6.220 -0.0524 -0.0430  0.0527
  792POPS   C1B12339  14.972   0.297   6.061  0.1776  0.3584 -0.1245
  792POPS   C2B12340  14.927   0.603   6.325 -0.2903 -0.0326  0.1023
  792POPS   C3B12341  14.907   0.679   6.700  0.1735 -0.0599  0.0094
  792POPS   C4B12342  14.850   0.615   7.097 -0.2946  0.0038 -0.1040
  793POPS   CNO12343  14.615  16.695   5.920  0.1052 -0.1491 -0.1950
  793POPS   PO412344  14.411  16.334   5.938  0.1983  0.2565  0.1360
  793POPS   GL112345  14.559  16.424   6.365  0.2569  0.0509  0.5672
  793POPS   GL212346  14.811  16.670   6.377  0.1137 -0.0002 -0.0192
  793POPS   C1A12347  14.486  16.401   6.815  0.2270  0.1047 -0.3775
  793POPS   D2A12348  14.225  16.575   7.121  0.1531  0.2425 -0.3223
  793POPS   C3A12349  14.142  16.888   7.486 -0.0742  0.0302 -0.2290
  793POPS   C4A12350  13.799  17.020   7.635  0.0514 -0.1528  0.1208
  793POPS   C1B12351  15.065  17.021   6.500  0.2280 -0.2996  0.2188
  793POPS   C2B12352  15.085  17.230   6.922  0.0308 -0.0182  0.3114
  793POPS   C3B12353  15.085  17.447   7.363  0.0597  0.1153  0.3046
  793POPS   C4B12354  15.046  17.297   7.762  0.0529  0.0866  0.2534
  794POPS   CNO12355   3.451  10.577   5.849  0.0728  0.1065  0.1990
  794POPS   PO412356   3.583  10.751   6.284  0.1367 -0.3601 -0.0972
  794POPS   GL112357   3.617  10.954   6.747 -0.2108  0.2985  0.0882
  794POPS   GL212358   3.927  10.971   6.790 -0.0857  0.1146 -0.3378
  794POPS   C1A12359   3.484  11.083   7.176  0.0068 -0.0237 -0.2812
  794POPS   D2A12360   3.610  11.065   7.614 -0.2315  0.0542 -0.1721
  794POPS   C3A12361   3.450  11.203   8.001  0.0960  0.1887 -0.1268
  794POPS   C4A12362   3.153  11.569   8.060 -0.4509  0.0944  0.2241
  794POPS   C1B12363   4.011  11.001   7.159 -0.0535 -0.2862  0.0917
  794POPS   C2B12364   4.132  11.184   7.583  0.2524 -0.1360  0.2276
  794POPS   C3B12365   3.910  11.228   7.981 -0.0704  0.1533 -0.0357
  794POPS   C4B12366   3.835  11.422   8.258  0.0978  0.1028 -0.3447
  795POPS   CNO12367   1.734   6.920   5.678  0.1979 -0.1320  0.0975
  795POPS   PO412368   1.982   6.720   5.930 -0.1625 -0.0733  0.1165
  795POPS   GL112369   1.935   6.636   6.393 -0.0808 -0.0513  0.0391
  795POPS   GL212370   1.629   6.690   6.584 -0.0337  0.1429  0.2132
  795POPS   C1A12371   2.098   6.819   6.813  0.2207  0.0813  0.0308
  795POPS   D2A12372   2.383   7.038   7.072 -0.2945  0.1146 -0.0728
  795POPS   C3A12373   2.340   7.301   7.429 -0.1315  0.0016 -0.4754
  795POPS   C4A12374   2.595   7.393   7.823  0.1117 -0.1616 -0.0661
  795POPS   C1B12375   1.612   6.649   6.942  0.0152  0.0706  0.2342
  795POPS   C2B12376   1.684   6.490   7.327 -0.1129 -0.0943 -0.0949
  795POPS   C3B12377   1.901   6.438   7.637  0.1139  0.0980 -0.4619
  795POPS   C4B12378   1.843   6.673   8.038 -0.2409 -0.4646 -0.2606
  796POPS   CNO12379   8.599   4.678   6.153  0.1556 -0.0294  0.0132
  796POPS   PO412380   8.258   4.950   6.103 -0.0085  0.3480 -0.1492
  796POPS   GL112381   8.174   4.851   6.499 -0.1510 -0.1663  0.0765
  796POPS   GL212382   8.255   4.502   6.501  0.1116 -0.1960  0.0181
  796POPS   C1A12383   8.281   4.805   6.968  0.0794 -0.1828 -0.1257
  796POPS   D2A12384   8.137   4.939   7.387  0.1452  0.0788 -0.0773
  796POPS   C3A12385   8.276   5.224   7.599  0.1022  0.2718 -0.2368
  796POPS   C4A12386   8.301   5.279   8.067 -0.0626  0.1151  0.2428
  796POPS   C1B12387   8.628   4.671   6.675  0.0056 -0.0690  0.0609
  796POPS   C2B12388   8.693   4.637   7.148 -0.0679  0.1544 -0.3726
  796POPS   C3B12389   8.925   4.591   7.498  0.3037 -0.0820 -0.2474
  796POPS   C4B12390   8.899   4.628   7.929  0.1738  0.1768 -0.1217
  797POPS   CNO12391   8.572   7.320   6.137  0.1503  0.3972 -0.4975
  797POPS   PO412392   8.665   7.714   5.957  0.1369 -0.3957 -0.3158
  797POPS   GL112393   8.705   7.952   6.329 -0.2810 -0.0936 -0.2026
  797POPS   GL212394   8.395   7.698   6.363  0.0970  0.0398 -0.1411
  797POPS   C1A12395   8.635   7.985   6.843 -0.0399 -0.2233  0.0481
  797POPS   D2A12396   8.756   7.945   7.244  0.0281 -0.0642 -0.2264
  797POPS   C3A12397   8.837   7.802   7.724 -0.0649 -0.0862 -0.0008
  797POPS   C4A12398   8.849   7.917   8.138  0.2113 -0.0553  0.0028
  797POPS   C1B12399   8.394   7.624   6.682  0.0780  0.0524 -0.0304
  797POPS   C2B12400   8.483   7.438   7.181  0.0467 -0.0027 -0.1104
  797POPS   C3B12401   8.474   7.419   7.612 -0.1008 -0.0780  0.1293
  797POPS   C4B12402   8.345   7.834   7.956 -0.0067 -0.0208 -0.0983
  798POPS   CNO12403  15.003  10.033   6.111 -0.1347 -0.1339 -0.0942
  798POPS   PO412404  15.416   9.931   6.123 -0.0082 -0.1287 -0.5657
  798POPS   GL112405  15.629   9.790   6.503 -0.0964  0.1456  0.1021
  798POPS   GL212406  15.871  10.073   6.455  0.3071 -0.1164 -0.2706
  798POPS   C1A12407  15.569   9.821   6.877 -0.1764  0.0488  0.1601
  798POPS   D2A12408  15.453   9.886   7.363 -0.1363 -0.0750 -0.2171
  798POPS   C3A12409  15.403   9.824   7.764  0.2567 -0.1902 -0.2280
  798POPS   C4A12410  15.389   9.571   8.226  0.1552  0.1497  0.1441
  798POPS   C1B12411  15.720  10.288   6.800  0.2009  0.0724  0.0872
  798POPS   C2B12412  15.625  10.344   7.162  0.0827 -0.0934 -0.0057
  798POPS   C3B12413  15.771  10.169   7.592 -0.0391 -0.4236 -0.0150
  798POPS   C4B12414  15.865   9.749   7.610 -0.1104 -0.1079 -0.2714
  799POPS   CNO12415  16.389   8.818   5.789 -0.1398  0.2309  0.2527
  799POPS   PO412416  15.981   8.657   5.929  0.1758 -0.1700 -0.3651
  799POPS   GL112417  16.087   8.693   6.287  0.0894 -0.0144 -0.1424
  799POPS   GL212418  15.754   8.516   6.388 -0.0533  0.1865  0.0516
  799POPS   C1A12419  16.277   8.662   6.664  0.2029 -0.1806 -0.0996
  799POPS   D2A12420  16.580   8.396   6.924  0.0067  0.0395  0.1639
  799POPS   C3A12421  16.948   8.545   7.081  0.1107  0.0840 -0.1442
  799POPS   C4A12422  17.255   8.872   6.926 -0.2596  0.2083 -0.0444
  799POPS   C1B12423  15.338   8.714   6.578  0.0474  0.2117 -0.1993
  799POPS   C2B12424  15.149   8.835   6.986 -0.2487 -0.3090  0.0478
  799POPS   C3B12425  15.215   8.831   7.411  0.1079 -0.1934  0.0246
  799POPS   C4B12426  14.995   8.895   7.771  0.0389 -0.0219 -0.0834
  800POPS   CNO12427  11.740  16.476   6.019  0.2054 -0.1690 -0.2763
  800POPS   PO412428  12.128  16.737   5.934  0.2912  0.1488  0.1577
  800POPS   GL112429  12.189  16.704   6.261 -0.2997 -0.1375 -0.1638
  800POPS   GL212430  12.579  16.501   6.257 -0.0324 -0.2214 -0.1256
  800POPS   C1A12431  12.279  16.615   6.668 -0.0258  0.4102 -0.0908
  800POPS   D2A12432  12.102  16.480   7.039 -0.1366 -0.1593  0.0094
  800POPS   C3A12433  11.694  16.398   7.273  0.2408 -0.0923 -0.2368
  800POPS   C4A12434  11.393  16.566   7.504  0.0061  0.0840 -0.0868
  800POPS   C1B12435  12.725  16.490   6.730  0.1446 -0.3369  0.2046
  800POPS   C2B12436  12.587  16.642   7.167  0.0625  0.1144 -0.0408
  800POPS   C3B12437  12.575  16.847   7.513  0.1622 -0.1933  0.1399
  800POPS   C4B12438  12.516  17.230   7.746  0.2205 -0.0120 -0.1592
  801POPS   CNO12439  17.637   7.063   5.914 -0.1440 -0.3094  0.0603
  801POPS   PO412440  17.376   7.489   5.923 -0.0695  0.0621 -0.0795
  801POPS   GL112441  17.303   7.571   6.293  0.0387  0.1334 -0.3442
  801POPS   GL212442  17.003   7.702   6.386 -0.0063 -0.2100 -0.2376
  801POPS   C1A12443  17.237   7.371   6.764  0.1271 -0.2401 -0.1607
  801POPS   D2A12444  17.163   7.477   7.177 -0.0989 -0.2955  0.1030
  801POPS   C3A12445  17.084   7.913   7.357  0.3744  0.0242  0.0209
  801POPS   C4A12446  16.793   8.215   7.387 -0.0287  0.2167  0.2371
  801POPS   C1B12447  17.400   7.949   6.594 -0.1538  0.3524 -0.0668
  801POPS   C2B12448  17.543   7.812   6.975 -0.1246  0.0525 -0.2145
  801POPS   C3B12449  17.553   7.810   7.354 -0.1706  0.0765 -0.1585
  801POPS   C4B12450  17.577   7.854   7.739 -0.2529  0.1097 -0.2621
  802POPS   CNO12451  14.683  15.994   5.756 -0.3349 -0.1329  0.4154
  802POPS   PO412452  14.752  15.635   5.771 -0.1210 -0.0748 -0.1028
  802POPS   GL112453  14.912  15.777   6.120  0.2981  0.0078 -0.2590
  802POPS   GL212454  14.751  15.920   6.251  0.2105 -0.0270  0.1644
  802POPS   C1A12455  15.100  16.130   6.443 -0.1831  0.0092  0.2246
  802POPS   D2A12456  14.990  16.325   6.823  0.1956 -0.1783 -0.1266
  802POPS   C3A12457  14.914  16.732   6.969 -0.0848  0.0736  0.0111
  802POPS   C4A12458  15.073  16.870   7.348  0.2491 -0.1384  0.0902
  802POPS   C1B12459  14.578  15.939   6.661 -0.0608 -0.2745  0.0480
  802POPS   C2B12460  14.597  16.065   7.100 -0.1183  0.0763  0.0492
  802POPS   C3B12461  14.727  16.438   7.290  0.3107  0.0219  0.5445
  802POPS   C4B12462  14.659  16.741   7.528 -0.1223  0.0486 -0.0440
  803POPS   CNO12463   6.912  15.452   5.597 -0.1294  0.0433 -0.0655
  803POPS   PO412464   6.667  15.830   5.787 -0.3752 -0.0018  0.3336
  803POPS   GL112465   6.753  15.616   6.079  0.0815 -0.0279  0.0173
  803POPS   GL212466   6.626  15.345   6.054 -0.0785 -0.0145  0.0130
  803POPS   C1A12467   6.767  15.754   6.448  0.2460 -0.3774 -0.1600
  803POPS   D2A12468   6.582  15.855   6.822 -0.2364 -0.0709  0.2840
  803POPS   C3A12469   6.598  16.070   7.120 -0.1917 -0.1568 -0.1992
  803POPS   C4A12470   6.631  16.325   7.511  0.3168 -0.0626 -0.3813
  803POPS   C1B12471   6.270  15.244   6.360 -0.0498 -0.0750  0.2118
  803POPS   C2B12472   6.170  15.489   6.748  0.2317  0.1220  0.0804
  803POPS   C3B12473   6.189  15.789   7.112 -0.1923  0.0599 -0.2668
  803POPS   C4B12474   6.159  16.083   7.417  0.3977  0.0840  0.0602
  804POPS   CNO12475   7.363   3.099   6.174 -0.0479  0.1521 -0.0770
  804POPS   PO412476   7.761   3.028   6.157 -0.1555 -0.4425 -0.0719
  804POPS   GL112477   7.978   3.264   6.447  0.2903 -0.0152  0.0905
  804POPS   GL212478   8.057   2.896   6.563 -0.1765 -0.1142  0.0911
  804POPS   C1A12479   8.071   3.463   6.776  0.1256  0.2317 -0.0987
  804POPS   D2A12480   8.090   3.605   7.142 -0.3284  0.1844  0.1560
  804POPS   C3A12481   8.271   3.342   7.387 -0.1774 -0.4495 -0.0618
  804POPS   C4A12482   8.467   3.405   7.815 -0.0258  0.1131 -0.3388
  804POPS   C1B12483   7.891   3.005   6.899  0.2102 -0.2700  0.1349
  804POPS   C2B12484   7.848   3.112   7.269 -0.0532  0.0540 -0.2026
  804POPS   C3B12485   8.009   2.956   7.653  0.1405  0.1866  0.0060
  804POPS   C4B12486   7.693   2.900   7.975  0.0066  0.0888 -0.0512
  805POPS   CNO12487   9.023   9.117   6.244 -0.0393  0.0906  0.2431
  805POPS   PO412488   9.084   8.634   6.281  0.0928 -0.2409  0.0303
  805POPS   GL112489   9.105   8.725   6.620 -0.0498 -0.1355  0.0438
  805POPS   GL212490   8.749   8.835   6.649 -0.2275 -0.0219 -0.2783
  805POPS   C1A12491   9.116   8.986   7.024  0.3658 -0.1384  0.4015
  805POPS   D2A12492   8.849   8.903   7.380  0.2455  0.2518  0.0230
  805POPS   C3A12493   8.825   8.982   7.773  0.0299 -0.1377  0.0005
  805POPS   C4A12494   8.970   8.619   7.930 -0.0912  0.2863 -0.0366
  805POPS   C1B12495   8.390   8.947   7.033 -0.0686  0.1065 -0.1448
  805POPS   C2B12496   8.331   9.044   7.473 -0.0634  0.0087 -0.2322
  805POPS   C3B12497   8.580   9.431   7.705 -0.0069  0.4388  0.0029
  805POPS   C4B12498   8.594   9.791   7.882 -0.1651  0.1094 -0.1385
  806POPS   CNO12499   4.677   7.908   6.274  0.3036 -0.0189 -0.0394
  806POPS   PO412500   4.885   7.466   6.264  0.2135 -0.0833  0.0551
  806POPS   GL112501   4.821   7.473   6.652 -0.0093  0.1259  0.2100
  806POPS   GL212502   4.551   7.728   6.703 -0.1178 -0.1424 -0.2000
  806POPS   C1A12503   4.932   7.437   7.077  0.0827  0.0886  0.0497
  806POPS   D2A12504   5.135   7.661   7.341 -0.1196 -0.1861 -0.1660
  806POPS   C3A12505   5.415   7.661   7.742  0.0415 -0.1055  0.0923
  806POPS   C4A12506   5.680   7.785   8.047 -0.0778  0.1350 -0.3225
  806POPS   C1B12507   4.751   7.945   7.042 -0.0550  0.2583 -0.2507
  806POPS   C2B12508   4.796   8.057   7.455  0.1308 -0.0819 -0.1033
  806POPS   C3B12509   4.708   8.145   7.890 -0.0636 -0.0385 -0.1458
  806POPS   C4B12510   4.856   8.400   8.251 -0.0075 -0.3101  0.1161
  807POPS   CNO12511  15.449   4.846   5.406  0.2937  0.2452 -0.0005
  807POPS   PO412512  15.347   5.213   5.564  0.0244  0.0620 -0.0054
  807POPS   GL112513  15.267   5.320   5.990 -0.0611  0.4002 -0.1517
  807POPS   GL212514  15.475   5.433   6.167 -0.0645 -0.2019  0.0294
  807POPS   C1A12515  14.937   5.168   6.366  0.1222  0.3136 -0.1601
  807POPS   D2A12516  14.653   5.131   6.718  0.3538  0.0488  0.1956
  807POPS   C3A12517  14.655   5.354   7.063  0.0786 -0.1029 -0.0814
  807POPS   C4A12518  14.703   5.663   7.391 -0.2709 -0.1128  0.0278
  807POPS   C1B12519  15.410   5.367   6.535 -0.1035 -0.1451  0.0137
  807POPS   C2B12520  15.570   5.394   6.926 -0.2730 -0.0856 -0.1555
  807POPS   C3B12521  15.662   5.251   7.214  0.3118  0.2439  0.0911
  807POPS   C4B12522  15.521   5.135   7.566  0.3648  0.3317  0.0224
  808POPS   CNO12523   2.463   6.622   6.027  0.0140  0.0828 -0.3105
  808POPS   PO412524   2.737   6.509   5.773  0.0674 -0.1020  0.1220
  808POPS   GL112525   2.652   6.204   6.178 -0.1300  0.2565  0.1327
  808POPS   GL212526   2.429   6.244   6.430 -0.0129 -0.0327 -0.1505
  808POPS   C1A12527   2.826   6.179   6.654 -0.4431 -0.2631  0.0609
  808POPS   D2A12528   2.796   5.864   7.099  0.2253  0.1801  0.0054
  808POPS   C3A12529   2.495   6.103   7.397 -0.1730  0.2159  0.2553
  808POPS   C4A12530   2.406   6.429   7.780  0.2653  0.0775  0.1308
  808POPS   C1B12531   2.073   6.258   6.682  0.0058 -0.3666  0.3729
  808POPS   C2B12532   1.999   6.211   7.071  0.2245 -0.0473  0.1241
  808POPS   C3B12533   1.631   5.965   7.056 -0.0877  0.0213  0.1797
  808POPS   C4B12534   1.384   5.654   6.921  0.2787 -0.0455 -0.2914
  809POPS   CNO12535   3.978  13.772   6.141 -0.0908 -0.0401  0.1957
  809POPS   PO412536   3.548  13.932   6.136 -0.1540 -0.2540 -0.0644
  809POPS   GL112537   3.784  14.036   6.489  0.0688  0.1568 -0.2484
  809POPS   GL212538   3.801  13.820   6.685 -0.1267 -0.0306  0.1070
  809POPS   C1A12539   3.813  14.335   6.644  0.1525 -0.2035 -0.0484
  809POPS   D2A12540   3.930  14.539   6.986  0.0574 -0.1542 -0.2860
  809POPS   C3A12541   4.014  14.465   7.345  0.1183 -0.2384  0.0232
  809POPS   C4A12542   4.342  14.430   7.624 -0.0745  0.0642 -0.1752
  809POPS   C1B12543   3.765  13.776   7.083 -0.1137 -0.1300  0.1272
  809POPS   C2B12544   3.609  13.595   7.408 -0.1471  0.1594 -0.0406
  809POPS   C3B12545   3.440  13.576   7.832 -0.2933  0.1652  0.0064
  809POPS   C4B12546   3.214  13.783   8.107  0.0587  0.0099  0.2447
  810POPS   CNO12547  14.796  14.678   5.784  0.0992  0.1114  0.1090
  810POPS   PO412548  14.848  14.296   5.744 -0.3421 -0.0460  0.0751
  810POPS   GL112549  14.799  14.355   6.146 -0.1906 -0.1165 -0.2136
  810POPS   GL212550  14.855  14.056   6.353  0.1112 -0.0259 -0.0996
  810POPS   C1A12551  14.602  14.524   6.561  0.0400 -0.5936 -0.0703
  810POPS   D2A12552  14.217  14.482   6.911  0.0159 -0.0988  0.0305
  810POPS   C3A12553  14.100  14.166   7.250  0.0928 -0.3115 -0.0987
  810POPS   C4A12554  14.072  13.775   7.504  0.0312 -0.1994  0.3789
  810POPS   C1B12555  14.953  13.962   6.835 -0.2386 -0.1058 -0.0132
  810POPS   C2B12556  15.018  13.923   7.253  0.0703 -0.3062  0.0538
  810POPS   C3B12557  15.008  13.887   7.674  0.1408 -0.0026  0.1623
  810POPS   C4B12558  15.215  13.854   8.167 -0.1316  0.0120 -0.0891
  811POPS   CNO12559   2.300   2.311   5.440 -0.0661  0.2266  0.0412
  811POPS   PO412560   2.164   2.364   5.903  0.0969 -0.0227  0.1235
  811POPS   GL112561   1.912   2.264   6.304 -0.0522 -0.1138  0.1397
  811POPS   GL212562   1.910   2.600   6.365  0.1415 -0.0970 -0.3484
  811POPS   C1A12563   1.760   2.213   6.696 -0.0324  0.1310 -0.1182
  811POPS   D2A12564   1.976   2.207   7.094  0.1195  0.3430  0.2345
  811POPS   C3A12565   1.910   2.169   7.473 -0.0126  0.2229  0.0997
  811POPS   C4A12566   1.932   2.381   7.863 -0.0497  0.0487 -0.2363
  811POPS   C1B12567   1.815   2.729   6.854 -0.1507  0.2610  0.2713
  811POPS   C2B12568   1.931   2.661   7.236  0.0017 -0.1703  0.2283
  811POPS   C3B12569   2.255   2.667   7.590  0.0107  0.0259  0.2863
  811POPS   C4B12570   2.527   2.873   7.869  0.0911  0.1317  0.1453
  812POPS   CNO12571   3.276   3.343   5.471  0.4179  0.2209  0.3182
  812POPS   PO412572   3.285   3.750   5.570 -0.2172  0.1277  0.2089
  812POPS   GL112573   3.230   3.638   5.932  0.2985 -0.1044 -0.2460
  812POPS   GL212574   3.131   3.918   6.225 -0.0726 -0.1066  0.0389
  812POPS   C1A12575   2.954   3.478   6.256  0.1633 -0.0099  0.0135
  812POPS   D2A12576   2.737   3.842   6.485  0.0493  0.0506  0.0551
  812POPS   C3A12577   2.781   3.774   6.843 -0.1806  0.1685  0.0848
  812POPS   C4A12578   2.453   3.821   7.208 -0.1742  0.0884  0.0348
  812POPS   C1B12579   3.283   3.699   6.581  0.0419  0.3435  0.1605
  812POPS   C2B12580   3.176   3.397   6.941  0.0469 -0.0354  0.0607
  812POPS   C3B12581   2.814   3.393   7.173  0.0172  0.0064  0.0537
  812POPS   C4B12582   2.664   3.358   7.580  0.0913 -0.1317 -0.2333
  813POPS   CNO12583   0.582  18.071   5.498 -0.0174  0.1281 -0.1480
  813POPS   PO412584   0.320  17.911   5.808 -0.2411  0.0809 -0.0705
  813POPS   GL112585   0.145  17.821   6.287 -0.1241 -0.2872  0.0193
  813POPS   GL212586   0.507  17.818   6.437  0.2061  0.3624  0.2352
  813POPS   C1A12587   0.087  17.662   6.681  0.0690 -0.0845 -0.2140
  813POPS   D2A12588   0.002  17.666   7.139 -0.0253  0.1898  0.3413
  813POPS   C3A12589  -0.227  17.449   7.491 -0.0620  0.0025 -0.2070
  813POPS   C4A12590  -0.061  17.199   7.619 -0.1065  0.0989  0.4243
  813POPS   C1B12591   0.500  17.714   6.902  0.0126  0.0481 -0.0013
  813POPS   C2B12592   0.449  17.456   7.276  0.1581  0.3908 -0.3114
  813POPS   C3B12593   0.562  17.255   7.712  0.0781  0.0383  0.0996
  813POPS   C4B12594   0.652  17.426   8.118  0.0217 -0.0891  0.3493
  814YOPS   CNO12595   6.558   0.328   6.007  0.0174  0.0705 -0.3290
  814YOPS   PO412596   6.829   0.017   5.974 -0.2303 -0.0707  0.0495
  814YOPS   GL112597   6.863   0.111   6.416  0.1082 -0.1303 -0.0045
  814YOPS   GL212598   6.930   0.372   6.404  0.2664  0.3667  0.1023
  814YOPS   C1A12599   6.904  -0.119   6.829  0.1338 -0.0234  0.0835
  814YOPS   D2A12600   6.749  -0.292   7.076  0.0717 -0.1728 -0.4222
  814YOPS   C3A12601   6.661  -0.307   7.493 -0.1149 -0.0305  0.2538
  814YOPS   C4A12602   6.733  -0.476   7.849  0.0946  0.1316 -0.1994
  814YOPS   C1B12603   6.979   0.425   6.860 -0.3623  0.1123 -0.2241
  814YOPS   C2B12604   7.085   0.445   7.361  0.1594  0.0000  0.2858
  814YOPS   D3B12605   7.165   0.476   7.823  0.1383 -0.1755  0.2025
  814YOPS   C4B12606   6.879   0.280   8.108  0.0084  0.2377  0.0289
  815YOPS   CNO12607  16.379   4.412   6.160  0.0236 -0.1521  0.1819
  815YOPS   PO412608  16.067   4.062   6.115 -0.1437 -0.1089  0.1896
  815YOPS   GL112609  16.329   4.050   6.480  0.1779 -0.0517 -0.1846
  815YOPS   GL212610  16.520   4.312   6.669 -0.1824 -0.0839  0.1503
  815YOPS   C1A12611  16.699   3.817   6.638  0.2161  0.1207 -0.2581
  815YOPS   D2A12612  16.723   3.474   6.918 -0.0119  0.0306 -0.1862
  815YOPS   C3A12613  16.957   3.115   7.078 -0.2616 -0.0061 -0.0560
  815YOPS   C4A12614  16.788   2.753   6.863 -0.2491  0.0796  0.0991
  815YOPS   C1B12615  16.594   4.172   7.061 -0.0510 -0.1194 -0.0351
  815YOPS   C2B12616  16.883   4.366   7.243 -0.3968  0.1824  0.3767
  815YOPS   D3B12617  16.915   4.474   7.594  0.0167 -0.0687  0.1016
  815YOPS   C4B12618  16.916   4.760   7.902 -0.2741 -0.1631 -0.2269
  816YOPS   CNO12619   9.621  13.389   6.084 -0.0917  0.2088  0.2273
  816YOPS   PO412620   9.180  13.562   6.026  0.2488  0.0863  0.0861
  816YOPS   GL112621   9.298  13.450   6.504 -0.3781  0.1365 -0.2860
  816YOPS   GL212622   9.537  13.504   6.690  0.6447 -0.0616 -0.0513
  816YOPS   C1A12623   9.024  13.410   6.823  0.0233  0.3770  0.2541
  816YOPS   D2A12624   8.983  13.398   7.265 -0.1754  0.0995  0.0443
  816YOPS   C3A12625   8.972  13.065   7.552  0.2193 -0.0960  0.0779
  816YOPS   C4A12626   8.869  12.658   7.392  0.0408 -0.0816  0.2345
  816YOPS   C1B12627   9.396  13.660   7.077 -0.3089  0.0901 -0.2884
  816YOPS   C2B12628   9.486  13.763   7.444 -0.1559 -0.0454 -0.2970
  816YOPS   D3B12629   9.403  13.747   7.842  0.0991 -0.0921  0.2456
  816YOPS   C4B12630   9.092  14.069   8.017 -0.0212 -0.1400  0.1944
  817YOPS   CNO12631   8.045   3.747   5.856 -0.2361  0.1518  0.0722
  817YOPS   PO412632   7.932   3.868   6.235  0.0778  0.3168  0.0569
  817YOPS   GL112633   7.697   3.676   6.534 -0.2352  0.0315 -0.1121
  817YOPS   GL212634   7.484   3.457   6.527  0.1195  0.3436  0.2989
  817YOPS   C1A12635   7.725   3.905   6.942  0.0237  0.2832 -0.1408
  817YOPS   D2A12636   7.766   4.004   7.373  0.2910 -0.0011 -0.1018
  817YOPS   C3A12637   7.707   4.149   7.721  0.0065  0.2798 -0.2628
  817YOPS   C4A12638   7.330   4.458   7.652  0.3370  0.1155 -0.4512
  817YOPS   C1B12639   7.570   3.427   7.003  0.0195 -0.0026 -0.1550
  817YOPS   C2B12640   7.657   3.530   7.338 -0.0612  0.1817  0.2498
  817YOPS   D3B12641   7.532   3.649   7.692  0.0041  0.0256 -0.2212
  817YOPS   C4B12642   7.509   3.385   8.026  0.0644  0.2129  0.0418
  818YOPS   CNO12643   3.071   9.184   5.695 -0.2908 -0.1926  0.0459
  818YOPS   PO412644   3.239   9.134   6.079  0.1970  0.1514  0.0917
  818YOPS   GL112645   3.358   9.011   6.519  0.2538  0.1339  0.0700
  818YOPS   GL212646   3.558   9.215   6.650  0.0670  0.0030 -0.1172
  818YOPS   C1A12647   3.110   9.002   6.889  0.0342 -0.1188  0.2054
  818YOPS   D2A12648   3.195   9.097   7.347 -0.1071 -0.1439  0.1070
  818YOPS   C3A12649   3.069   9.205   7.627 -0.1039 -0.0327 -0.0123
  818YOPS   C4A12650   3.197   9.342   7.969 -0.0379  0.1336  0.4674
  818YOPS   C1B12651   3.535   9.369   7.047 -0.0436  0.0098  0.2717
  818YOPS   C2B12652   3.527   9.485   7.481 -0.0273  0.2629  0.1994
  818YOPS   D3B12653   3.596   9.671   7.872  0.1223 -0.0833 -0.2437
  818YOPS   C4B12654   3.690  10.099   7.845  0.4810 -0.0361  0.1455
  819YOPS   CNO12655   4.390  10.240   5.862  0.3096  0.0285 -0.3656
  819YOPS   PO412656   4.811  10.144   6.043 -0.1328  0.0941  0.1092
  819YOPS   GL112657   4.863  10.083   6.456  0.0499 -0.4631 -0.1933
  819YOPS   GL212658   5.044   9.861   6.631  0.1008  0.0462 -0.0276
  819YOPS   C1A12659   4.952  10.287   6.845 -0.1302  0.0226 -0.3366
  819YOPS   D2A12660   5.085  10.301   7.217 -0.1902 -0.0851 -0.2783
  819YOPS   C3A12661   5.031  10.218   7.690  0.0981  0.0595 -0.1748
  819YOPS   C4A12662   5.058  10.165   8.129 -0.1339 -0.0837 -0.2774
  819YOPS   C1B12663   4.898   9.794   7.032  0.1200  0.0919  0.0017
  819YOPS   C2B12664   4.968   9.726   7.432 -0.0515  0.1846  0.1508
  819YOPS   D3B12665   4.884   9.703   7.925 -0.0798  0.0400 -0.3767
  819YOPS   C4B12666   5.058   9.379   8.221  0.0759  0.1223 -0.1306
  820YOPS   CNO12667  11.803   8.648   6.283  0.0760  0.0941 -0.4028
  820YOPS   PO412668  11.702   8.328   6.465  0.0918 -0.4333 -0.1498
  820YOPS   GL112669  11.799   8.317   6.884  0.1779  0.0054 -0.0958
  820YOPS   GL212670  11.955   8.457   6.877  0.2610 -0.2266  0.0378
  820YOPS   C1A12671  11.699   8.200   7.309  0.2419  0.2783 -0.0226
  820YOPS   D2A12672  11.834   8.354   7.688 -0.3252 -0.2536  0.0850
  820YOPS   C3A12673  12.142   8.699   7.867 -0.1030 -0.1181  0.1256
  820YOPS   C4A12674  12.379   8.630   7.642  0.0889 -0.0989  0.4233
  820YOPS   C1B12675  12.081   8.562   7.231 -0.4051 -0.0908 -0.3021
  820YOPS   C2B12676  12.008   8.990   7.487  0.2215  0.1755 -0.0528
  820YOPS   D3B12677  11.899   9.220   7.851  0.3488 -0.0207  0.1459
  820YOPS   C4B12678  11.869   9.684   7.722 -0.3026 -0.0413  0.2853
  821YOPS   CNO12679  10.752  17.224   5.762 -0.1060  0.2898  0.3018
  821YOPS   PO412680  10.452  17.070   5.749 -0.0429 -0.0665 -0.2114
  821YOPS   GL112681  10.426  17.040   6.210  0.2925 -0.0452 -0.0023
  821YOPS   GL212682  10.258  16.734   6.335  0.1733 -0.2443  0.2176
  821YOPS   C1A12683  10.745  17.079   6.578 -0.2068 -0.0870 -0.1786
  821YOPS   D2A12684  10.918  16.868   6.883  0.0277 -0.1047 -0.2369
  821YOPS   C3A12685  11.088  16.633   7.108  0.2357 -0.1737 -0.0300
  821YOPS   C4A12686  11.253  16.263   7.088  0.0953  0.1080  0.3295
  821YOPS   C1B12687  10.439  16.714   6.683  0.1700  0.0464 -0.0767
  821YOPS   C2B12688  10.550  16.636   7.127  0.0043  0.1834 -0.3194
  821YOPS   D3B12689  10.892  16.365   7.450  0.1810 -0.0786  0.0182
  821YOPS   C4B12690  10.840  16.010   7.734 -0.0315  0.0921  0.1173
  822YOPS   CNO12691   5.910   2.347   5.505  0.1767 -0.2754 -0.0006
  822YOPS   PO412692   5.902   2.228   5.863  0.0488 -0.0912  0.2496
  822YOPS   GL112693   5.906   2.279   6.346 -0.0290  0.3420  0.1702
  822YOPS   GL212694   6.130   2.115   6.439 -0.1689 -0.1165 -0.1441
  822YOPS   C1A12695   5.782   2.174   6.792 -0.0231  0.0695 -0.2198
  822YOPS   D2A12696   5.770   2.206   7.182 -0.0859 -0.1473 -0.6594
  822YOPS   C3A12697   5.629   2.317   7.612 -0.2481  0.1278 -0.2278
  822YOPS   C4A12698   5.838   2.194   7.969 -0.0506 -0.0083 -0.2020
  822YOPS   C1B12699   6.270   2.194   6.825  0.1431  0.1847  0.1416
  822YOPS   C2B12700   6.226   2.231   7.260 -0.0313 -0.1553  0.0780
  822YOPS   D3B12701   6.124   2.059   7.587 -0.0773  0.0448  0.1928
  822YOPS   C4B12702   6.061   1.670   7.797 -0.2106 -0.2788  0.0219
  823YOPS   CNO12703  15.902  11.792   6.021 -0.1483  0.5839  0.0032
  823YOPS   PO412704  15.400  11.582   5.982  0.0411 -0.0000  0.0821
  823YOPS   GL112705  15.529  11.621   6.382  0.3109  0.2338 -0.1473
  823YOPS   GL212706  15.806  11.513   6.604 -0.5426 -0.1916 -0.0617
  823YOPS   C1A12707  15.648  11.945   6.633  0.1732 -0.1266 -0.2935
  823YOPS   D2A12708  15.796  12.102   7.047  0.1614 -0.2341 -0.2970
  823YOPS   C3A12709  15.869  12.096   7.466  0.0148  0.0313 -0.3218
  823YOPS   C4A12710  16.006  11.858   7.826 -0.2579 -0.2567 -0.0356
  823YOPS   C1B12711  15.821  11.499   7.021  0.0254  0.0214 -0.2240
  823YOPS   C2B12712  15.911  11.579   7.432 -0.1210 -0.1824 -0.0882
  823YOPS   D3B12713  16.018  11.338   7.807  0.0107  0.4016  0.2349
  823YOPS   C4B12714  15.788  11.056   7.991  0.0280 -0.1236  0.0894
  824YOPS   CNO12715   5.436   1.676   5.874 -0.0435 -0.0889 -0.2448
  824YOPS   PO412716   5.716   1.289   5.753  0.3435 -0.0778 -0.2436
  824YOPS   GL112717   5.423   1.256   6.142  0.2144 -0.2220 -0.0352
  824YOPS   GL212718   5.153   1.177   6.281  0.1870 -0.0437  0.1674
  824YOPS   C1A12719   5.574   1.128   6.518 -0.3373  0.1720  0.1875
  824YOPS   D2A12720   5.616   1.178   6.928  0.1549 -0.2274 -0.1869
  824YOPS   C3A12721   5.613   1.018   7.244  0.1915 -0.1753 -0.2136
  824YOPS   C4A12722   5.701   1.271   7.511 -0.0231 -0.0409  0.1517
  824YOPS   C1B12723   5.156   0.948   6.739 -0.1418  0.2254 -0.1355
  824YOPS   C2B12724   5.169   0.850   7.187  0.2110  0.4296  0.0714
  824YOPS   D3B12725   5.107   1.087   7.532 -0.3360  0.2105 -0.0185
  824YOPS   C4B12726   5.014   0.980   7.856 -0.2465  0.3005  0.0924
  825YOPS   CNO12727  15.367   8.136   5.560  0.2158  0.0334  0.1416
  825YOPS   PO412728  15.206   8.055   5.973 -0.0034  0.2255 -0.0208
  825YOPS   GL112729  15.347   8.218   6.351 -0.3513 -0.1736  0.0107
  825YOPS   GL212730  15.698   8.050   6.473  0.2130  0.3190  0.2566
  825YOPS   C1A12731  15.091   8.351   6.826 -0.0342  0.0318  0.2362
  825YOPS   D2A12732  15.059   8.331   7.256  0.3223 -0.1772 -0.2619
  825YOPS   C3A12733  15.123   8.320   7.693 -0.1875  0.1776 -0.2060
  825YOPS   C4A12734  15.250   7.933   7.855  0.0320  0.1297  0.2248
  825YOPS   C1B12735  15.466   8.058   6.924  0.0336 -0.0180  0.2288
  825YOPS   C2B12736  15.374   7.926   7.331  0.0142 -0.0057 -0.0161
  825YOPS   D3B12737  15.103   7.844   7.398 -0.0139  0.2429  0.0835
  825YOPS   C4B12738  14.836   7.758   7.797  0.0569  0.0083 -0.3294
  826YOPS   CNO12739  12.906   8.126   5.968  0.0523  0.1848 -0.1097
  826YOPS   PO412740  12.461   8.079   6.049 -0.0965 -0.1845  0.0811
  826YOPS   GL112741  12.665   7.981   6.426 -0.0121  0.0553 -0.0313
  826YOPS   GL212742  12.760   8.345   6.427  0.2788 -0.1134 -0.2902
  826YOPS   C1A12743  12.808   7.969   6.812  0.3605  0.0499 -0.1323
  826YOPS   D2A12744  12.872   7.649   7.097 -0.0960 -0.0625 -0.2314
  826YOPS   C3A12745  13.080   7.670   7.505  0.1506 -0.1068  0.1214
  826YOPS   C4A12746  13.187   8.070   7.777 -0.0001 -0.0371 -0.1099
  826YOPS   C1B12747  12.731   8.521   6.768  0.2788  0.1168 -0.2259
  826YOPS   C2B12748  12.622   8.603   7.218 -0.1278  0.1659 -0.0121
  826YOPS   D3B12749  12.683   9.018   7.454  0.0928  0.3373  0.1208
  826YOPS   C4B12750  12.674   8.951   7.924 -0.2146  0.1196  0.2654
  827YOPS   CNO12751   2.263  17.785   6.015  0.0274 -0.3008 -0.1415
  827YOPS   PO412752   1.900  18.052   5.905 -0.0060  0.0593  0.2667
  827YOPS   GL112753   2.011  18.257   6.258  0.4876 -0.2042 -0.3165
  827YOPS   GL212754   2.267  18.413   6.213  0.0656  0.1513  0.3158
  827YOPS   C1A12755   1.820  18.306   6.614 -0.0884  0.0489 -0.1052
  827YOPS   D2A12756   1.695  18.365   7.043 -0.1759  0.2890 -0.1162
  827YOPS   C3A12757   1.802  18.313   7.461  0.3301  0.3403 -0.3600
  827YOPS   C4A12758   2.170  18.461   7.574  0.2504  0.1683  0.1248
  827YOPS   C1B12759   2.300  18.453   6.594 -0.2863 -0.3017  0.1825
  827YOPS   C2B12760   2.183  18.461   7.030 -0.3412  0.3830 -0.1047
  827YOPS   D3B12761   1.918  18.821   7.292  0.1731 -0.1502  0.1456
  827YOPS   C4B12762   2.128  19.231   7.355 -0.0850 -0.1789  0.5008
  828YOPS   CNO12763   2.128   4.025   5.303  0.0131  0.0593 -0.0482
  828YOPS   PO412764   2.285   4.085   5.679  0.2453  0.2216 -0.0314
  828YOPS   GL112765   2.283   4.083   6.144 -0.2276 -0.4041  0.0426
  828YOPS   GL212766   2.255   3.898   6.401 -0.4647  0.3631  0.0110
  828YOPS   C1A12767   2.517   4.334   6.419 -0.1362 -0.0488  0.0939
  828YOPS   D2A12768   2.783   4.269   6.778  0.2169 -0.0050  0.1360
  828YOPS   C3A12769   2.687   4.284   7.192 -0.0719 -0.1482  0.0582
  828YOPS   C4A12770   2.963   4.264   7.471 -0.2291 -0.0754 -0.2717
  828YOPS   C1B12771   2.270   4.017   6.777  0.0647  0.1335  0.2230
  828YOPS   C2B12772   2.105   4.233   7.066 -0.1606  0.3493 -0.1667
  828YOPS   D3B12773   2.304   4.239   7.488  0.1196 -0.1357 -0.0227
  828YOPS   C4B12774   2.192   4.585   7.779 -0.1816 -0.0818 -0.2850
  829YOPS   CNO12775   5.060  14.481   5.495  0.0289 -0.0593  0.0622
  829YOPS   PO412776   5.055  14.815   5.677 -0.0679  0.2201 -0.0807
  829YOPS   GL112777   5.058  14.963   6.234  0.1599  0.1112  0.0950
  829YOPS   GL212778   4.826  15.164   6.378 -0.2574 -0.0086  0.0520
  829YOPS   C1A12779   5.344  15.115   6.459 -0.1784 -0.2659 -0.4275
  829YOPS   D2A12780   5.386  15.255   6.853 -0.1105 -0.0413 -0.1384
  829YOPS   C3A12781   5.155  15.544   7.191  0.1147 -0.0484 -0.0436
  829YOPS   C4A12782   5.215  16.032   7.248 -0.2149 -0.0445  0.2825
  829YOPS   C1B12783   4.869  15.307   6.777 -0.0839 -0.2549  0.0150
  829YOPS   C2B12784   4.561  15.323   7.156  0.0329  0.0138  0.0343
  829YOPS   D3B12785   4.663  15.422   7.533 -0.1783  0.1615  0.0874
  829YOPS   C4B12786   5.045  15.724   7.663  0.0571  0.1953  0.1257
  830YOPS   CNO12787   4.277   7.503   6.289 -0.0295 -0.3559 -0.3198
  830YOPS   PO412788   4.019   7.824   6.137  0.0621 -0.2025  0.3280
  830YOPS   GL112789   3.920   7.661   6.601  0.2102 -0.0777 -0.0792
  830YOPS   GL212790   3.615   7.648   6.746 -0.1466  0.1857  0.2246
  830YOPS   C1A12791   4.124   7.654   6.925  0.0209 -0.1214  0.2863
  830YOPS   D2A12792   4.323   7.808   7.329 -0.1487  0.3122  0.2493
  830YOPS   C3A12793   4.629   7.554   7.546  0.1001 -0.0412  0.0826
  830YOPS   C4A12794   4.920   7.705   7.829 -0.1784  0.1291 -0.0946
  830YOPS   C1B12795   3.762   7.517   7.183  0.0197 -0.3270  0.0134
  830YOPS   C2B12796   4.062   7.430   7.485 -0.1937  0.2452 -0.0255
  830YOPS   D3B12797   4.083   7.233   7.865 -0.0236  0.0261  0.2458
  830YOPS   C4B12798   4.156   7.467   8.263 -0.0044  0.1103 -0.1400
  831YOPS   CNO12799   8.530   3.875   5.597 -0.0513  0.3208  0.0719
  831YOPS   PO412800   8.360   4.037   6.074  0.0460 -0.3334  0.0767
  831YOPS   GL112801   8.643   4.143   6.404 -0.0327 -0.2063 -0.1039
  831YOPS   GL212802   8.751   3.822   6.519  0.1277 -0.0166 -0.3333
  831YOPS   C1A12803   8.752   4.151   6.881  0.0018 -0.1618 -0.0892
  831YOPS   D2A12804   8.866   4.162   7.290 -0.0536 -0.1989  0.2816
  831YOPS   C3A12805   8.610   4.177   7.655  0.1091 -0.3964 -0.0604
  831YOPS   C4A12806   8.216   3.865   7.671 -0.0374 -0.0891 -0.3048
  831YOPS   C1B12807   8.589   3.619   6.916 -0.3396  0.0662 -0.0200
  831YOPS   C2B12808   8.539   3.737   7.316  0.0230 -0.0197  0.0405
  831YOPS   D3B12809   8.924   3.721   7.552  0.3838  0.1447 -0.1559
  831YOPS   C4B12810   9.216   3.383   7.583 -0.0048  0.1455 -0.2216
  832YOPS   CNO12811  11.851  14.704   5.555  0.3516 -0.1085  0.0983
  832YOPS   PO412812  11.767  15.034   5.743  0.0017 -0.3202  0.1317
  832YOPS   GL112813  11.785  14.907   6.091  0.0906  0.2086 -0.1349
  832YOPS   GL212814  11.844  14.613   6.079  0.1578 -0.3258 -0.1867
  832YOPS   C1A12815  11.919  15.139   6.435  0.1828 -0.4053  0.0304
  832YOPS   D2A12816  11.786  15.200   6.733 -0.2144  0.2696 -0.1503
  832YOPS   C3A12817  11.752  15.438   7.113  0.1432  0.5107 -0.2201
  832YOPS   C4A12818  11.500  15.765   7.217  0.1318 -0.2054  0.1343
  832YOPS   C1B12819  11.591  14.687   6.482 -0.1382 -0.1587  0.0273
  832YOPS   C2B12820  11.455  14.777   6.804 -0.2901 -0.2521 -0.0219
  832YOPS   D3B12821  11.518  14.910   7.166 -0.0022  0.0300 -0.0894
  832YOPS   C4B12822  11.341  15.281   7.259 -0.1100 -0.0932 -0.2143
  833YOPS   CNO12823  10.523   7.212   6.071 -0.0176  0.0061  0.2655
  833YOPS   PO412824  10.209   6.896   6.190  0.2590  0.1206 -0.1309
  833YOPS   GL112825  10.387   6.819   6.615 -0.2191 -0.0691  0.1199
  833YOPS   GL212826  10.682   6.792   6.713  0.0291 -0.0300 -0.1154
  833YOPS   C1A12827  10.423   7.061   7.068  0.0832 -0.0346 -0.2034
  833YOPS   D2A12828  10.352   7.292   7.442  0.0786 -0.0098 -0.0855
  833YOPS   C3A12829  10.333   7.467   7.826  0.0070  0.0362 -0.1672
  833YOPS   C4A12830  10.448   7.919   8.027  0.0943 -0.1324  0.0627
  833YOPS   C1B12831  10.743   6.720   7.130  0.0728  0.1193 -0.2138
  833YOPS   C2B12832  11.104   6.743   7.456  0.0327 -0.0151 -0.0210
  833YOPS   D3B12833  11.344   6.381   7.769 -0.1953 -0.0149  0.0114
  833YOPS   C4B12834  11.718   6.523   7.799  0.1511  0.1264  0.1196
  834YOPS   CNO12835   9.138  15.379   5.860 -0.1352  0.2264 -0.1451
  834YOPS   PO412836   8.937  14.969   5.961  0.2282  0.0368 -0.0095
  834YOPS   GL112837   8.624  15.037   6.197 -0.1588 -0.2118 -0.0787
  834YOPS   GL212838   8.554  14.786   6.406 -0.0834 -0.2182  0.0655
  834YOPS   C1A12839   8.376  15.298   6.457  0.1031 -0.2372  0.0118
  834YOPS   D2A12840   8.334  15.323   6.986  0.0156  0.0627  0.0585
  834YOPS   C3A12841   8.237  15.411   7.477 -0.0687  0.0278 -0.0246
  834YOPS   C4A12842   8.381  15.872   7.527 -0.2650 -0.2785  0.2639
  834YOPS   C1B12843   8.530  14.898   6.849 -0.1333  0.0597  0.2522
  834YOPS   C2B12844   8.529  15.023   7.326 -0.0117  0.2043  0.0968
  834YOPS   D3B12845   8.196  14.834   7.587  0.4871  0.0641  0.1327
  834YOPS   C4B12846   7.952  14.534   7.464  0.0381  0.0113 -0.0302
  835YOPS   CNO12847  15.863  15.398   5.893 -0.0215  0.0608 -0.0979
  835YOPS   PO412848  16.152  15.098   5.675 -0.0791  0.0861  0.0144
  835YOPS   GL112849  16.279  15.197   6.142  0.2291 -0.0449  0.1556
  835YOPS   GL212850  16.108  14.973   6.287 -0.2234 -0.0023 -0.0341
  835YOPS   C1A12851  16.332  15.320   6.546 -0.0161 -0.0711 -0.1430
  835YOPS   D2A12852  16.270  15.583   6.921  0.0842  0.0339  0.0385
  835YOPS   C3A12853  16.473  15.609   7.337 -0.1317 -0.2084  0.0225
  835YOPS   C4A12854  16.166  15.916   7.626 -0.1587  0.0884 -0.1976
  835YOPS   C1B12855  15.889  14.958   6.719 -0.1645  0.1075  0.1524
  835YOPS   C2B12856  15.886  15.272   7.158 -0.1454 -0.1257 -0.0488
  835YOPS   D3B12857  15.727  15.563   7.472 -0.1238 -0.0375 -0.1029
  835YOPS   C4B12858  15.964  15.531   7.888  0.0900  0.0179 -0.1816
  836YOPS   CNO12859  12.950  16.441   5.330 -0.0157  0.1291 -0.1188
  836YOPS   PO412860  12.940  16.508   5.754  0.0756  0.2775  0.0977
  836YOPS   GL112861  13.062  16.434   6.116  0.1672 -0.0627  0.0194
  836YOPS   GL212862  13.084  16.192   6.216  0.1944 -0.0360 -0.0531
  836YOPS   C1A12863  13.024  16.713   6.446 -0.0136 -0.0082 -0.0522
  836YOPS   D2A12864  12.670  16.983   6.589  0.0837 -0.1894  0.2420
  836YOPS   C3A12865  12.458  17.068   7.018 -0.2436 -0.2812 -0.1640
  836YOPS   C4A12866  12.663  17.362   7.286 -0.0049 -0.0816 -0.0800
  836YOPS   C1B12867  12.924  15.899   6.337  0.0754  0.0055 -0.4064
  836YOPS   C2B12868  12.716  15.848   6.756  0.2023  0.1103 -0.2450
  836YOPS   D3B12869  12.483  15.621   6.943 -0.0709 -0.0238 -0.2517
  836YOPS   C4B12870  12.043  15.671   6.825 -0.1762  0.0352  0.2160
  837YOPS   CNO12871   1.123   9.243   5.610  0.1522 -0.2254 -0.3917
  837YOPS   PO412872   1.048   9.270   6.031 -0.1448  0.0755  0.2242
  837YOPS   GL112873   0.898   9.370   6.462 -0.1063 -0.2103  0.0005
  837YOPS   GL212874   1.176   9.089   6.515 -0.0856 -0.0668  0.0837
  837YOPS   C1A12875   0.951   9.376   6.907  0.0416 -0.0389  0.2473
  837YOPS   D2A12876   1.121   9.472   7.280 -0.0614 -0.0760  0.0252
  837YOPS   C3A12877   1.243   9.968   7.512 -0.3249  0.2362  0.0404
  837YOPS   C4A12878   1.521  10.179   7.236 -0.1475 -0.0673 -0.0374
  837YOPS   C1B12879   1.213   8.983   6.926 -0.2236 -0.0480  0.1830
  837YOPS   C2B12880   1.135   8.965   7.346 -0.3927 -0.0936  0.2465
  837YOPS   D3B12881   1.061   9.141   7.658  0.1675  0.2501  0.3489
  837YOPS   C4B12882   1.318   9.531   7.839  0.0245  0.2623 -0.2415
  838YOPS   CNO12883   4.089   5.508   5.580 -0.0140  0.1306 -0.1633
  838YOPS   PO412884   4.276   5.164   5.725  0.1077 -0.0343  0.0824
  838YOPS   GL112885   4.306   5.233   6.212 -0.2648 -0.3403 -0.0812
  838YOPS   GL212886   4.479   4.870   6.397  0.0371  0.1511 -0.0953
  838YOPS   C1A12887   3.846   5.223   6.403  0.0279  0.1141  0.0055
  838YOPS   D2A12888   3.449   5.072   6.465 -0.1605  0.1756 -0.0729
  838YOPS   C3A12889   3.294   4.842   6.786  0.1401  0.4477  0.0597
  838YOPS   C4A12890   2.861   4.726   6.997  0.1979 -0.1182  0.0835
  838YOPS   C1B12891   4.541   4.523   6.786  0.2236  0.1411 -0.2324
  838YOPS   C2B12892   4.807   4.476   7.104  0.2905  0.1392  0.0264
  838YOPS   D3B12893   5.066   4.423   7.496 -0.0523  0.0652 -0.1066
  838YOPS   C4B12894   5.164   4.659   7.831 -0.2519  0.0322 -0.1564
  839YOPS   CNO12895   7.529  13.937   6.258 -0.0642 -0.1449  0.0815
  839YOPS   PO412896   7.090  13.948   6.127  0.1244 -0.1840  0.2031
  839YOPS   GL112897   7.023  13.924   6.602 -0.1384 -0.0386 -0.2783
  839YOPS   GL212898   7.187  13.638   6.636 -0.1858  0.0573  0.0142
  839YOPS   C1A12899   6.822  13.821   7.007 -0.1940  0.0498 -0.0409
  839YOPS   D2A12900   6.903  13.612   7.381 -0.0856 -0.0574  0.0480
  839YOPS   C3A12901   7.063  13.448   7.693 -0.1443  0.0995 -0.1545
  839YOPS   C4A12902   6.867  13.619   8.038 -0.0092 -0.0775  0.0877
  839YOPS   C1B12903   7.559  13.946   6.741  0.2149  0.1248  0.1828
  839YOPS   C2B12904   7.741  14.208   7.036  0.1070 -0.0581 -0.0154
  839YOPS   D3B12905   7.432  14.356   7.390  0.0114  0.2149 -0.1519
  839YOPS   C4B12906   7.159  14.405   7.497 -0.0836  0.1293 -0.0912
  840YOPS   CNO12907   3.113   0.483   6.031 -0.0364  0.0068 -0.1032
  840YOPS   PO412908   3.116  -0.008   5.899  0.2952 -0.3074  0.0919
  840YOPS   GL112909   3.111   0.017   6.351 -0.1504  0.0671  0.3022
  840YOPS   GL212910   3.358  -0.050   6.524  0.2228 -0.1167  0.1675
  840YOPS   C1A12911   2.820   0.098   6.676 -0.2531  0.1719 -0.2449
  840YOPS   D2A12912   2.640   0.196   6.946 -0.2263 -0.1559 -0.0233
  840YOPS   C3A12913   2.595   0.185   7.381  0.2839  0.2092  0.1197
  840YOPS   C4A12914   2.782   0.022   7.769 -0.0302  0.2796 -0.1123
  840YOPS   C1B12915   3.154  -0.061   6.984  0.1554  0.1097  0.2680
  840YOPS   C2B12916   3.146   0.081   7.353 -0.0764 -0.0074 -0.2406
  840YOPS   D3B12917   3.335   0.051   7.867  0.2279 -0.1104  0.0768
  840YOPS   C4B12918   3.237  -0.301   8.037  0.2439 -0.0535 -0.0317
  841YOPS   CNO12919   0.615   4.488   5.823 -0.0235  0.1617  0.1038
  841YOPS   PO412920   0.843   4.920   5.990 -0.0574  0.1222 -0.1133
  841YOPS   GL112921   0.957   5.129   6.339  0.1777 -0.1083  0.2270
  841YOPS   GL212922   0.721   5.294   6.410 -0.0362  0.1986  0.2081
  841YOPS   C1A12923   1.139   5.213   6.817  0.2312 -0.3331 -0.0849
  841YOPS   D2A12924   1.148   5.295   7.163 -0.4275 -0.2173 -0.1928
  841YOPS   C3A12925   0.911   5.375   7.512  0.2608  0.0847  0.1862
  841YOPS   C4A12926   0.549   5.213   7.512 -0.0309  0.1548  0.0179
  841YOPS   C1B12927   0.514   5.313   6.873  0.2750  0.0881 -0.0479
  841YOPS   C2B12928   0.631   5.550   7.139  0.3477  0.1714 -0.0297
  841YOPS   D3B12929   0.466   5.749   7.463 -0.2349 -0.4071  0.1323
  841YOPS   C4B12930   0.324   5.738   7.880  0.1510  0.2173 -0.2885
  842YOPS   CNO12931   8.751  10.400   5.795  0.1004  0.0074  0.0159
  842YOPS   PO412932   8.331  10.487   5.783  0.3174  0.0234  0.0003
  842YOPS   GL112933   8.138  10.682   6.152 -0.0265 -0.0929 -0.0651
  842YOPS   GL212934   8.405  10.817   6.318  0.1451 -0.0303  0.3908
  842YOPS   C1A12935   7.937  10.625   6.537 -0.0678  0.0405  0.1282
  842YOPS   D2A12936   8.021  10.647   6.881 -0.0281 -0.0877 -0.0296
  842YOPS   C3A12937   8.088  10.663   7.352  0.1654 -0.2070 -0.2442
  842YOPS   C4A12938   7.778  10.706   7.774  0.1284 -0.1302 -0.0760
  842YOPS   C1B12939   8.459  10.907   6.633  0.0608  0.2875  0.0069
  842YOPS   C2B12940   8.443  10.923   7.040  0.0811  0.0804 -0.2602
  842YOPS   D3B12941   8.345  11.055   7.432 -0.3129 -0.2015 -0.1923
  842YOPS   C4B12942   7.973  11.143   7.560 -0.0659 -0.4454  0.0803
  843YOPS   CNO12943  12.235  11.245   5.861 -0.0964 -0.1691 -0.0633
  843YOPS   PO412944  12.559  11.035   5.912  0.1416  0.0338 -0.2978
  843YOPS   GL112945  12.357  10.977   6.367 -0.0687 -0.2360  0.0415
  843YOPS   GL212946  12.236  10.704   6.457  0.1816 -0.0061  0.1855
  843YOPS   C1A12947  12.555  11.142   6.743  0.0649 -0.2975 -0.1981
  843YOPS   D2A12948  12.757  11.419   7.100 -0.0464 -0.0166 -0.1268
  843YOPS   C3A12949  12.884  11.631   7.362 -0.1942 -0.0141  0.2260
  843YOPS   C4A12950  12.629  11.945   7.465 -0.3480 -0.0278 -0.2479
  843YOPS   C1B12951  12.269  10.752   6.930  0.2500  0.1299  0.2700
  843YOPS   C2B12952  12.345  10.759   7.293  0.1154 -0.1345 -0.0889
  843YOPS   D3B12953  12.613  11.104   7.473  0.1201 -0.0948  0.2202
  843YOPS   C4B12954  12.788  11.391   7.790 -0.1014  0.0911  0.1303
  844POPE   NH312955  16.567   0.753   5.582 -0.1175 -0.0838  0.3735
  844POPE   PO412956  16.226   0.650   5.823 -0.0908 -0.1429 -0.0078
  844POPE   GL112957  15.962   0.705   6.098  0.1130  0.0081 -0.0626
  844POPE   GL212958  15.595   0.925   6.158  0.3045  0.0786  0.1447
  844POPE   C1A12959  15.899   0.845   6.546  0.2275  0.0245  0.0075
  844POPE   D2A12960  15.887   0.885   6.914 -0.3252 -0.2075 -0.0427
  844POPE   C3A12961  15.636   1.114   7.156  0.1128 -0.1120 -0.1927
  844POPE   C4A12962  15.596   1.433   7.474 -0.0046 -0.0953 -0.0090
  844POPE   C1B12963  15.396   0.805   6.544  0.0111  0.0877 -0.2421
  844POPE   C2B12964  15.470   0.684   6.965 -0.1054  0.3512 -0.0223
  844POPE   C3B12965  15.764   0.657   7.355  0.0090 -0.1921  0.3261
  844POPE   C4B12966  16.041   0.963   7.549  0.0182 -0.2071 -0.1215
  845POPE   NH312967  15.225  17.970   5.416  0.1871 -0.3005  0.1549
  845POPE   PO412968  15.348  17.586   5.704  0.0822 -0.0125  0.0548
  845POPE   GL112969  15.061  17.834   6.028 -0.0112  0.1603 -0.1444
  845POPE   GL212970  14.699  17.800   6.116 -0.0704  0.2172 -0.1924
  845POPE   C1A12971  14.926  18.087   6.432 -0.0858  0.1616  0.1232
  845POPE   D2A12972  14.769  18.281   6.767  0.0716  0.0748 -0.0154
  845POPE   C3A12973  15.033  18.186   7.079 -0.2848 -0.2221  0.1548
  845POPE   C4A12974  14.937  17.960   7.327 -0.1041  0.0877  0.0050
  845POPE   C1B12975  14.478  17.927   6.485  0.2069 -0.1191  0.3148
  845POPE   C2B12976  14.377  18.061   6.942  0.0661  0.0480 -0.2173
  845POPE   C3B12977  14.531  18.329   7.249  0.1810 -0.2972 -0.0527
  845POPE   C4B12978  14.775  18.430   7.547 -0.0688  0.1278  0.1459
  846POPE   NH312979   0.043   9.494   6.140 -0.3209  0.2074  0.1442
  846POPE   PO412980  -0.134   9.101   6.034 -0.4296 -0.0052  0.1630
  846POPE   GL112981  -0.234   8.965   6.416 -0.0155  0.0371 -0.1265
  846POPE   GL212982   0.014   9.121   6.514  0.0474 -0.1089 -0.0054
  846POPE   C1A12983  -0.233   8.805   6.864  0.1281  0.0072  0.3009
  846POPE   D2A12984  -0.287   8.726   7.300  0.1699  0.0991 -0.0904
  846POPE   C3A12985  -0.501   8.772   7.526  0.1319 -0.0130  0.0921
  846POPE   C4A12986  -0.959   8.659   7.537  0.1136 -0.2556  0.2009
  846POPE   C1B12987   0.249   8.729   6.658  0.0074 -0.0206 -0.3033
  846POPE   C2B12988   0.155   8.636   7.090 -0.0361 -0.4362  0.0112
  846POPE   C3B12989   0.043   8.385   7.409  0.1066  0.1419 -0.0257
  846POPE   C4B12990  -0.205   8.385   7.734  0.0351 -0.0695 -0.0436
  847POPE   NH312991   0.795   9.623   5.739 -0.1378 -0.0987  0.0176
  847POPE   PO412992   0.516   9.833   5.988 -0.3327 -0.1503 -0.3498
  847POPE   GL112993   0.476   9.765   6.363  0.2816 -0.0700  0.0394
  847POPE   GL212994   0.234   9.762   6.565 -0.0720  0.0867  0.2850
  847POPE   C1A12995   0.788   9.862   6.617  0.2671  0.2769 -0.1284
  847POPE   D2A12996   1.238   9.819   6.595  0.1800 -0.1685 -0.1492
  847POPE   C3A12997   1.462   9.584   6.861  0.0318 -0.0686 -0.1678
  847POPE   C4A12998   1.609   9.615   7.386  0.1403  0.0261  0.1506
  847POPE   C1B12999   0.238   9.932   7.060  0.3086  0.0151  0.3694
  847POPE   C2B13000   0.239  10.105   7.465 -0.2013 -0.0876 -0.0468
  847POPE   C3B13001  -0.008  10.468   7.627 -0.1248  0.1130  0.1666
  847POPE   C4B13002  -0.354  10.619   7.992  0.0903 -0.0789 -0.0678
  848POPE   NH313003   9.935  17.083   6.038 -0.0768  0.1448  0.0270
  848POPE   PO413004   9.844  16.706   6.100  0.1873  0.3037 -0.1893
  848POPE   GL113005   9.873  16.905   6.544  0.2188 -0.0183 -0.0548
  848POPE   GL213006   9.677  17.177   6.551  0.1563  0.1757  0.0826
  848POPE   C1A13007   9.966  16.660   6.891 -0.2852  0.1031  0.1857
  848POPE   D2A13008  10.106  16.603   7.332  0.0582 -0.0405  0.1270
  848POPE   C3A13009  10.328  16.770   7.657  0.2610  0.1435  0.0303
  848POPE   C4A13010  10.191  16.819   8.180 -0.2561 -0.0009  0.0518
  848POPE   C1B13011   9.720  17.049   7.052 -0.2302  0.2953 -0.1130
  848POPE   C2B13012  10.037  17.134   7.329 -0.0131 -0.0124  0.1019
  848POPE   C3B13013   9.855  17.498   7.486  0.0430  0.0939  0.0197
  848POPE   C4B13014   9.556  17.488   7.802 -0.1809 -0.0070  0.1082
  849POPE   NH313015  10.445   2.611   6.054  0.0024  0.1402 -0.1798
  849POPE   PO413016  10.307   2.340   5.862  0.0955 -0.0510 -0.2626
  849POPE   GL113017  10.190   2.304   6.349 -0.0319  0.2490 -0.0615
  849POPE   GL213018  10.448   2.105   6.422 -0.2641  0.0657  0.0932
  849POPE   C1A13019   9.993   2.023   6.623  0.0405  0.0377 -0.0916
  849POPE   D2A13020   9.998   1.836   6.981  0.3336 -0.0067  0.1026
  849POPE   C3A13021   9.671   1.927   7.355  0.1025  0.3185 -0.1810
  849POPE   C4A13022   9.432   2.077   7.599 -0.1369  0.1257 -0.2223
  849POPE   C1B13023  10.428   2.294   6.776  0.1539 -0.0685 -0.0608
  849POPE   C2B13024  10.375   2.253   7.287  0.0388  0.1980 -0.0528
  849POPE   C3B13025  10.350   2.235   7.797 -0.2224 -0.2114 -0.0318
  849POPE   C4B13026  10.422   2.273   8.172  0.2097 -0.2773 -0.1860
  850POPE   NH313027  17.879  12.041   6.304 -0.2406 -0.0607 -0.1961
  850POPE   PO413028  17.756  12.434   6.032 -0.0700  0.1409 -0.2050
  850POPE   GL113029  17.899  12.553   6.416 -0.2677 -0.0829 -0.2410
  850POPE   GL213030  17.639  12.768   6.569 -0.1641 -0.2100 -0.0428
  850POPE   C1A13031  18.112  12.613   6.762  0.0664  0.2304  0.0789
  850POPE   D2A13032  18.311  12.816   6.984  0.2041  0.0919 -0.1598
  850POPE   C3A13033  18.153  12.723   7.427  0.0561 -0.0828 -0.3622
  850POPE   C4A13034  18.242  12.900   7.855  0.1146 -0.1414  0.0089
  850POPE   C1B13035  17.396  13.067   7.020 -0.3284  0.2157  0.3124
  850POPE   C2B13036  17.308  13.154   7.402  0.0798  0.1623 -0.3115
  850POPE   C3B13037  17.063  13.569   7.627 -0.1230  0.0711 -0.2380
  850POPE   C4B13038  16.768  13.903   7.645  0.0096  0.1365 -0.0992
  851POPE   NH313039  12.194  15.236   5.888  0.1938  0.3676 -0.1238
  851POPE   PO413040  12.547  15.625   5.877 -0.0933  0.3972 -0.0670
  851POPE   GL113041  12.825  15.476   6.147 -0.0373  0.1114  0.1154
  851POPE   GL213042  12.984  15.147   6.145 -0.0416  0.1368 -0.0144
  851POPE   C1A13043  12.781  15.415   6.571  0.0119 -0.0588  0.0648
  851POPE   D2A13044  12.790  15.174   6.909 -0.0040  0.0006  0.0024
  851POPE   C3A13045  12.625  15.286   7.336 -0.3462  0.1693  0.1769
  851POPE   C4A13046  12.838  15.283   7.742 -0.0517  0.3796  0.0281
  851POPE   C1B13047  13.180  14.924   6.524  0.1910 -0.3078 -0.1616
  851POPE   C2B13048  13.207  14.964   6.954 -0.1275  0.2297 -0.0526
  851POPE   C3B13049  13.113  15.036   7.428 -0.1464  0.3316 -0.1081
  851POPE   C4B13050  13.275  14.797   7.818  0.0535  0.1728  0.2405
  852POPE   NH313051  16.814  10.517   5.985 -0.1176  0.0172  0.2984
  852POPE   PO413052  17.018  10.855   6.373  0.1914 -0.0239 -0.2939
  852POPE   GL113053  16.877  10.955   6.722  0.1830 -0.0407 -0.0880
  852POPE   GL213054  16.636  10.767   6.757  0.1652 -0.0823 -0.1870
  852POPE   C1A13055  16.984  11.189   7.065  0.0864 -0.3040  0.2729
  852POPE   D2A13056  16.897  11.083   7.520 -0.3704 -0.3421 -0.0343
  852POPE   C3A13057  17.059  11.348   7.902 -0.0827  0.1272 -0.3182
  852POPE   C4A13058  17.349  11.354   8.142  0.3421  0.1225  0.2617
  852POPE   C1B13059  16.612  10.848   7.198  0.1400  0.0329  0.1947
  852POPE   C2B13060  16.571  10.686   7.594 -0.1382  0.1214 -0.3338
  852POPE   C3B13061  16.697  10.425   7.900 -0.1154 -0.2897  0.0108
  852POPE   C4B13062  16.747  10.018   7.983 -0.1012  0.0346  0.0531
  853POPE   NH313063   9.885  12.788   6.113  0.0557 -0.0376 -0.0641
  853POPE   PO413064  10.214  12.614   6.218 -0.0366 -0.2905 -0.1478
  853POPE   GL113065  10.219  12.535   6.623  0.2393 -0.3253 -0.3318
  853POPE   GL213066   9.878  12.638   6.703  0.2715 -0.0188  0.1487
  853POPE   C1A13067  10.337  12.536   7.039 -0.1679  0.0373 -0.1385
  853POPE   D2A13068  10.232  12.488   7.474  0.1060  0.0056  0.1156
  853POPE   C3A13069  10.518  12.561   7.754  0.2335  0.2047 -0.0842
  853POPE   C4A13070  10.481  12.615   8.205 -0.3285 -0.1162  0.0497
  853POPE   C1B13071   9.812  12.458   7.069  0.1005 -0.2619  0.1495
  853POPE   C2B13072   9.743  12.519   7.535 -0.0454  0.2149  0.2002
  853POPE   C3B13073   9.628  12.277   7.872 -0.1013 -0.0258 -0.4046
  853POPE   C4B13074   9.549  12.124   8.229 -0.1483  0.1516  0.0325
  854POPE   NH313075   8.745  16.714   6.057  0.2041  0.1163  0.1876
  854POPE   PO413076   8.253  16.668   5.892 -0.3669 -0.1235  0.1183
  854POPE   GL113077   8.297  16.817   6.356  0.1035  0.4669  0.2171
  854POPE   GL213078   8.034  17.000   6.360 -0.1724 -0.0366 -0.0575
  854POPE   C1A13079   8.488  16.827   6.653  0.0926 -0.2686  0.0349
  854POPE   D2A13080   8.416  16.803   7.109  0.0587 -0.2409  0.0205
  854POPE   C3A13081   8.613  16.984   7.306 -0.0177  0.0348  0.0367
  854POPE   C4A13082   8.898  16.994   7.715  0.1240  0.2326  0.1436
  854POPE   C1B13083   8.106  17.132   6.742 -0.0584  0.0148 -0.0273
  854POPE   C2B13084   8.274  17.378   6.938  0.2830 -0.2729  0.2992
  854POPE   C3B13085   8.294  17.494   7.446 -0.2587 -0.0282  0.0673
  854POPE   C4B13086   8.345  17.356   7.899  0.2575  0.2039  0.1323
  855POPE   NH313087   0.006   6.814   5.819  0.1376  0.2047  0.0805
  855POPE   PO413088   0.385   6.535   5.949  0.0429  0.0302 -0.2346
  855POPE   GL113089   0.433   6.320   6.340  0.1873  0.1759 -0.3832
  855POPE   GL213090   0.760   6.392   6.299 -0.2613 -0.0325  0.0868
  855POPE   C1A13091   0.355   6.408   6.752  0.0618 -0.0820 -0.1048
  855POPE   D2A13092   0.007   6.349   7.014 -0.0926  0.2031  0.2118
  855POPE   C3A13093   0.077   6.636   7.316 -0.0686  0.1215  0.1169
  855POPE   C4A13094  -0.190   6.954   7.440  0.0863  0.0274 -0.3652
  855POPE   C1B13095   0.783   6.175   6.826 -0.1382 -0.0599  0.0902
  855POPE   C2B13096   0.668   6.185   7.259  0.2274 -0.0202  0.5832
  855POPE   C3B13097   0.265   6.200   7.533  0.0785  0.2785  0.1385
  855POPE   C4B13098  -0.130   6.535   7.768 -0.5515  0.1388 -0.1515
  856POPE   NH313099   4.406   9.848   6.250  0.2524  0.0816  0.0555
  856POPE   PO413100   4.016  10.015   6.243 -0.2527 -0.0491  0.0340
  856POPE   GL113101   3.909  10.053   6.612  0.1320  0.1143  0.0989
  856POPE   GL213102   3.902  10.442   6.606 -0.0566 -0.2368  0.2767
  856POPE   C1A13103   3.574  10.124   6.844  0.3921  0.3120  0.1566
  856POPE   D2A13104   3.196  10.383   7.046  0.4604 -0.1409  0.0487
  856POPE   C3A13105   2.908  10.085   7.230  0.0228  0.1073  0.3374
  856POPE   C4A13106   2.496   9.873   7.089  0.2311 -0.1794  0.3785
  856POPE   C1B13107   3.781  10.547   6.990  0.0228  0.0624 -0.1008
  856POPE   C2B13108   3.700  10.540   7.392 -0.0204  0.0636 -0.0224
  856POPE   C3B13109   3.748  10.596   7.893 -0.0770  0.0465 -0.2889
  856POPE   C4B13110   4.004  10.710   8.179  0.1132  0.2189  0.4471
  857POPE   NH313111  11.372  17.235   5.728 -0.1970 -0.1385 -0.1983
  857POPE   PO413112  11.407  16.815   5.705  0.1711 -0.2638  0.0474
  857POPE   GL113113  11.670  16.952   5.975 -0.0809  0.0940 -0.1604
  857POPE   GL213114  11.936  17.186   6.052 -0.0815  0.1773  0.0003
  857POPE   C1A13115  11.632  16.841   6.428  0.0400  0.0453 -0.0151
  857POPE   D2A13116  11.882  16.944   6.758 -0.0521 -0.2001 -0.4171
  857POPE   C3A13117  11.825  16.867   7.193 -0.1295 -0.2067 -0.0112
  857POPE   C4A13118  11.915  16.732   7.630 -0.1073  0.3139 -0.0923
  857POPE   C1B13119  11.689  17.328   6.489  0.0092 -0.0353 -0.2298
  857POPE   C2B13120  11.614  17.532   6.840  0.0252 -0.3380  0.2352
  857POPE   C3B13121  11.808  17.377   7.155  0.1934  0.0921 -0.4001
  857POPE   C4B13122  11.654  17.109   7.660  0.1296 -0.0184  0.1345
  858POPE   NH313123   8.757  10.939   5.866  0.2104  0.0302 -0.0791
  858POPE   PO413124   9.178  10.653   5.896  0.1507  0.1223  0.1956
  858POPE   GL113125   9.253  11.013   6.212 -0.1871 -0.0284  0.1738
  858POPE   GL213126   8.964  11.107   6.286 -0.3147  0.1405  0.0464
  858POPE   C1A13127   9.386  11.291   6.548  0.1834  0.3221 -0.0644
  858POPE   D2A13128   9.242  11.471   6.926  0.0720  0.4550 -0.2606
  858POPE   C3A13129   9.435  11.185   7.290 -0.1491 -0.1092 -0.2157
  858POPE   C4A13130   9.821  11.199   7.418 -0.0098  0.1173 -0.2135
  858POPE   C1B13131   8.758  11.295   6.714 -0.1281  0.0445  0.0480
  858POPE   C2B13132   8.727  11.322   7.125 -0.1677 -0.0075  0.1684
  858POPE   C3B13133   8.605  11.497   7.506 -0.2028  0.0311  0.1736
  858POPE   C4B13134   8.896  11.819   7.788 -0.1210 -0.3366  0.0332
  859POPE   NH313135   5.414   2.228   5.763 -0.0116  0.1576  0.0936
  859POPE   PO413136   5.117   2.266   5.917 -0.2065 -0.0397  0.1282
  859POPE   GL113137   5.226   2.144   6.305 -0.0906  0.1000  0.0952
  859POPE   GL213138   5.471   2.069   6.248 -0.0174  0.0999  0.2230
  859POPE   C1A13139   5.205   2.066   6.763 -0.0105  0.0697  0.2804
  859POPE   D2A13140   5.318   1.920   7.051  0.1155  0.2651 -0.1038
  859POPE   C3A13141   5.222   2.153   7.395  0.0632 -0.0754  0.0906
  859POPE   C4A13142   5.161   2.173   7.819  0.0494  0.0055  0.0839
  859POPE   C1B13143   5.438   1.717   6.418  0.1421 -0.0354 -0.0012
  859POPE   C2B13144   5.233   1.494   6.690 -0.0484 -0.3753  0.4424
  859POPE   C3B13145   5.298   1.415   7.167  0.1191 -0.0666 -0.0208
  859POPE   C4B13146   5.113   1.632   7.531  0.1205  0.1968  0.1056
  860POPE   NH313147   1.700  11.035   6.341 -0.1348 -0.3722 -0.0773
  860POPE   PO413148   1.273  11.243   6.417 -0.1216 -0.1299  0.0247
  860POPE   GL113149   1.106  11.241   6.816  0.0941  0.1341 -0.5145
  860POPE   GL213150   0.850  11.394   6.728  0.0344  0.1380 -0.1972
  860POPE   C1A13151   1.187  11.173   7.233  0.2549 -0.1866 -0.2105
  860POPE   D2A13152   1.393  11.329   7.505 -0.3543  0.1739  0.1417
  860POPE   C3A13153   1.421  11.160   7.926  0.1988 -0.0017  0.0005
  860POPE   C4A13154   1.495  11.375   8.304 -0.0670 -0.1367 -0.1785
  860POPE   C1B13155   0.591  11.529   7.087 -0.0736 -0.1604 -0.0576
  860POPE   C2B13156   0.489  11.414   7.535 -0.1423 -0.0481 -0.0866
  860POPE   C3B13157   0.530  11.447   7.920 -0.1256  0.1268  0.1651
  860POPE   C4B13158   0.441  11.227   8.190  0.2545  0.0983  0.2886
  861POPE   NH313159  17.901   8.747   5.652  0.0385 -0.1089  0.0549
  861POPE   PO413160  17.594   8.455   5.735  0.1076 -0.3183  0.1266
  861POPE   GL113161  17.624   8.580   6.112 -0.1010  0.0970 -0.3670
  861POPE   GL213162  17.469   8.450   6.256 -0.0303  0.2176  0.1494
  861POPE   C1A13163  17.384   8.921   6.406  0.0927  0.0160 -0.0553
  861POPE   D2A13164  17.070   9.207   6.558 -0.1089  0.1624 -0.0465
  861POPE   C3A13165  17.075   9.292   7.021 -0.3231 -0.1134  0.0654
  861POPE   C4A13166  17.178   9.156   7.414  0.3315  0.1126 -0.0843
  861POPE   C1B13167  17.465   8.455   6.644 -0.1871  0.2205 -0.0231
  861POPE   C2B13168  17.327   8.281   7.071  0.0068  0.0781  0.4762
  861POPE   C3B13169  17.425   8.311   7.423  0.1071  0.1927  0.0936
  861POPE   C4B13170  17.376   8.310   7.895 -0.2384 -0.3607 -0.0109
  862POPE   NH313171  11.382   0.560   5.754  0.1977  0.1626  0.1797
  862POPE   PO413172  11.549   0.164   5.923 -0.0070 -0.1634  0.0233
  862POPE   GL113173  11.857   0.209   6.234 -0.1879 -0.0523  0.2024
  862POPE   GL213174  12.233   0.136   6.132 -0.0138  0.0200 -0.3000
  862POPE   C1A13175  11.911   0.281   6.668  0.0962 -0.1567  0.0961
  862POPE   D2A13176  12.063   0.430   6.996  0.1275 -0.1552 -0.1965
  862POPE   C3A13177  11.925   0.662   7.357  0.2229  0.3157  0.0810
  862POPE   C4A13178  11.936   0.570   7.735 -0.0976  0.0571 -0.1068
  862POPE   C1B13179  12.714   0.238   6.222  0.0275 -0.1800  0.0494
  862POPE   C2B13180  12.925  -0.039   6.567 -0.0982 -0.2160 -0.2779
  862POPE   C3B13181  13.240  -0.314   6.622 -0.0171  0.1338 -0.0066
  862POPE   C4B13182  13.666  -0.049   6.732 -0.0094  0.3225  0.0178
  863POPE   NH313183   7.306  11.762   6.177  0.0077 -0.0140 -0.1981
  863POPE   PO413184   7.580  12.099   6.034  0.0008 -0.0816  0.0422
  863POPE   GL113185   7.632  12.116   6.489  0.1756 -0.0450  0.1313
  863POPE   GL213186   7.420  12.504   6.593 -0.3415  0.2435 -0.0095
  863POPE   C1A13187   7.666  12.205   6.959 -0.0746  0.0501  0.0409
  863POPE   D2A13188   7.414  12.197   7.298  0.1142  0.1375  0.0774
  863POPE   C3A13189   7.247  12.531   7.557  0.0806 -0.0785  0.2528
  863POPE   C4A13190   7.540  12.968   7.658  0.1845  0.0849  0.1189
  863POPE   C1B13191   7.471  12.704   7.085 -0.0004 -0.1217  0.0530
  863POPE   C2B13192   7.776  12.539   7.351 -0.1219 -0.1064  0.0644
  863POPE   C3B13193   7.767  12.443   7.703 -0.0976  0.2532  0.0839
  863POPE   C4B13194   7.834  12.697   8.132 -0.0430  0.2146  0.0402
  864POPE   NH313195  10.289   8.123   5.958 -0.1572  0.1214 -0.1721
  864POPE   PO413196  10.757   8.146   6.093  0.5095 -0.0329 -0.5240
  864POPE   GL113197  10.784   8.118   6.550 -0.0160 -0.1317  0.1930
  864POPE   GL213198  10.821   7.849   6.673  0.0274  0.1286  0.2377
  864POPE   C1A13199  10.867   8.407   6.827  0.2684  0.1831  0.2429
  864POPE   D2A13200  10.919   8.613   7.154 -0.1791 -0.1695 -0.0718
  864POPE   C3A13201  10.929   8.990   7.332 -0.1654 -0.1978 -0.0256
  864POPE   C4A13202  11.086   9.301   7.646 -0.2799 -0.0719  0.1382
  864POPE   C1B13203  10.867   7.983   7.081 -0.1081  0.3420 -0.1055
  864POPE   C2B13204  10.796   8.173   7.516 -0.2736  0.2173 -0.0547
  864POPE   C3B13205  10.584   8.453   7.734  0.2636  0.1694  0.0867
  864POPE   C4B13206  10.643   8.724   8.166 -0.0263  0.0268  0.2742
  865POPE   NH313207   1.415  17.738   5.863 -0.3520  0.1225  0.2141
  865POPE   PO413208   1.847  17.574   5.729 -0.0848  0.0057  0.0840
  865POPE   GL113209   1.824  17.591   6.190  0.2694 -0.1584  0.1666
  865POPE   GL213210   1.776  17.792   6.495 -0.1346 -0.2322  0.1080
  865POPE   C1A13211   1.898  17.400   6.699  0.1900 -0.0482 -0.1216
  865POPE   D2A13212   1.880  17.388   7.083 -0.1198  0.0638  0.0652
  865POPE   C3A13213   1.791  17.476   7.423 -0.0843  0.0306 -0.0736
  865POPE   C4A13214   1.308  17.540   7.596 -0.2630  0.0910  0.0019
  865POPE   C1B13215   1.576  17.907   6.900  0.3283 -0.3690  0.1337
  865POPE   C2B13216   1.522  17.928   7.323 -0.1598 -0.0138  0.1186
  865POPE   C3B13217   1.719  17.793   7.766  0.0040  0.1162 -0.1663
  865POPE   C4B13218   1.717  17.421   7.944 -0.1360  0.0542  0.1771
  866POPE   NH313219   1.336  16.920   5.498  0.0197  0.2295 -0.1225
  866POPE   PO413220   1.576  16.705   5.792 -0.1548 -0.0119 -0.1786
  866POPE   GL113221   1.397  16.692   6.242 -0.1347 -0.4412  0.1443
  866POPE   GL213222   1.201  16.969   6.203 -0.1635 -0.2094 -0.2215
  866POPE   C1A13223   1.393  16.569   6.721 -0.1902 -0.0674 -0.3101
  866POPE   D2A13224   1.384  16.467   7.210 -0.0696 -0.0356 -0.0346
  866POPE   C3A13225   1.200  16.105   7.411 -0.1591 -0.0142  0.0759
  866POPE   C4A13226   0.906  16.081   7.602  0.1175  0.1573 -0.2321
  866POPE   C1B13227   0.863  17.179   6.377 -0.0713  0.0357 -0.1178
  866POPE   C2B13228   0.852  17.394   6.718 -0.1964  0.4633  0.0650
  866POPE   C3B13229   0.893  17.284   7.192 -0.2648  0.3049 -0.1294
  866POPE   C4B13230   1.017  17.096   7.565  0.2273  0.0603 -0.0285
  867POPE   NH313231   0.667   5.435   5.838  0.0491 -0.1371 -0.2432
  867POPE   PO413232   0.198   5.579   5.711 -0.0272  0.3104 -0.2496
  867POPE   GL113233  -0.211   5.549   5.972  0.0096  0.0226  0.0827
  867POPE   GL213234  -0.075   5.833   6.066 -0.0123 -0.0216 -0.2098
  867POPE   C1A13235  -0.112   5.543   6.436  0.0458  0.0680 -0.1120
  867POPE   D2A13236  -0.277   5.503   6.777  0.0933  0.0033 -0.1256
  867POPE   C3A13237  -0.175   5.459   7.130 -0.2831  0.1257  0.2016
  867POPE   C4A13238   0.065   5.422   7.424 -0.1902  0.1075  0.2312
  867POPE   C1B13239  -0.068   6.025   6.485 -0.1447 -0.1247  0.0516
  867POPE   C2B13240  -0.349   6.033   6.826  0.1695 -0.0437  0.0926
  867POPE   C3B13241  -0.512   5.955   7.133 -0.0640 -0.0679  0.0546
  867POPE   C4B13242  -0.739   6.025   7.470  0.1879  0.1210  0.2130
  868POPE   NH313243  16.916   7.314   5.922  0.0027 -0.2077  0.0569
  868POPE   PO413244  16.732   6.936   6.124 -0.0381 -0.1732  0.0469
  868POPE   GL113245  16.750   6.637   6.422  0.0649 -0.0953  0.1215
  868POPE   GL213246  16.616   6.291   6.410  0.1387  0.0005 -0.2204
  868POPE   C1A13247  16.813   6.670   6.831  0.0125  0.0278  0.1232
  868POPE   D2A13248  16.522   6.608   7.134  0.0842 -0.0984 -0.1738
  868POPE   C3A13249  16.400   6.735   7.667 -0.1273 -0.2074  0.0518
  868POPE   C4A13250  16.436   6.891   8.102  0.3835  0.0705 -0.0198
  868POPE   C1B13251  16.605   6.233   6.830  0.0342 -0.5614  0.0364
  868POPE   C2B13252  16.692   6.096   7.266 -0.1524  0.4118  0.0574
  868POPE   C3B13253  16.679   5.814   7.601 -0.1316  0.1321 -0.0198
  868POPE   C4B13254  17.103   5.679   7.732 -0.0436 -0.1648 -0.0715
  869POPE   NH313255  11.367   4.247   5.924  0.0267  0.0206  0.1027
  869POPE   PO413256  10.913   4.407   5.976 -0.0743  0.2439  0.1191
  869POPE   GL113257  10.973   4.245   6.300 -0.0677  0.1458 -0.1056
  869POPE   GL213258  11.241   4.361   6.402 -0.4637  0.0776 -0.0201
  869POPE   C1A13259  10.926   4.049   6.617 -0.1848  0.2295 -0.1924
  869POPE   D2A13260  10.891   4.057   7.017 -0.1339  0.0296 -0.1607
  869POPE   C3A13261  10.919   4.077   7.399 -0.1293 -0.0653 -0.1387
  869POPE   C4A13262  11.008   4.031   7.897 -0.2524  0.0037  0.0857
  869POPE   C1B13263  11.368   4.064   6.777  0.1912  0.2019  0.2076
  869POPE   C2B13264  11.388   3.937   7.158  0.0676  0.2160 -0.2301
  869POPE   C3B13265  11.426   4.044   7.617  0.1590 -0.0658  0.1681
  869POPE   C4B13266  11.482   4.043   8.015  0.0927  0.0790 -0.3786
  870POPE   NH313267  13.747   6.912   5.745 -0.0134 -0.0127  0.2361
  870POPE   PO413268  13.465   6.563   5.861 -0.0431 -0.0788  0.1204
  870POPE   GL113269  13.624   6.211   6.210 -0.0291  0.0019 -0.2811
  870POPE   GL213270  13.798   6.298   6.535  0.0355  0.0149  0.2464
  870POPE   C1A13271  13.713   5.843   6.481 -0.1405  0.0508 -0.2537
  870POPE   D2A13272  13.883   5.549   6.757 -0.0719 -0.1968 -0.1316
  870POPE   C3A13273  13.759   5.695   7.191 -0.0633 -0.0135 -0.0196
  870POPE   C4A13274  13.524   5.975   7.550 -0.0026 -0.1100 -0.1998
  870POPE   C1B13275  13.704   6.609   6.846 -0.2730 -0.1440 -0.1667
  870POPE   C2B13276  13.811   6.831   7.170  0.2767  0.0857 -0.0273
  870POPE   C3B13277  14.006   6.908   7.522 -0.0205  0.0706  0.0577
  870POPE   C4B13278  14.131   7.121   7.941  0.0043  0.1536 -0.1388
  871POPE   NH313279  15.651  16.426   5.487  0.1486  0.0895 -0.1733
  871POPE   PO413280  15.166  16.469   5.520 -0.2814  0.1816  0.0149
  871POPE   GL113281  15.453  16.453   5.950 -0.0833 -0.1435 -0.0503
  871POPE   GL213282  15.663  16.282   6.016 -0.0739  0.1402  0.0211
  871POPE   C1A13283  15.389  16.570   6.374  0.3886 -0.2881  0.0157
  871POPE   D2A13284  15.487  16.380   6.823 -0.0116  0.0089 -0.3929
  871POPE   C3A13285  15.363  16.500   7.184 -0.1692 -0.1286 -0.1727
  871POPE   C4A13286  15.287  16.429   7.615 -0.0209 -0.0906  0.5525
  871POPE   C1B13287  15.715  16.193   6.375  0.0575  0.0547  0.0201
  871POPE   C2B13288  15.537  15.861   6.661 -0.1006  0.0940  0.0026
  871POPE   C3B13289  15.336  15.972   7.064  0.1585 -0.0745 -0.1176
  871POPE   C4B13290  15.060  16.075   7.299  0.1256 -0.0986 -0.3235
  872POPE   NH313291   9.386  14.802   5.903  0.1313  0.1543  0.2344
  872POPE   PO413292   9.734  14.991   6.099 -0.0388  0.1349 -0.1416
  872POPE   GL113293   9.464  14.922   6.395 -0.0502  0.0470  0.2900
  872POPE   GL213294   9.085  14.761   6.398 -0.0843 -0.0667  0.0624
  872POPE   C1A13295   9.392  14.912   6.779 -0.0556 -0.1424  0.1250
  872POPE   D2A13296   9.501  14.819   7.182  0.1131 -0.0544  0.1423
  872POPE   C3A13297   9.774  14.914   7.525 -0.2671 -0.2582 -0.1704
  872POPE   C4A13298   9.906  15.138   7.905 -0.1491  0.1600 -0.0854
  872POPE   C1B13299   9.311  14.459   6.652 -0.1824 -0.0726 -0.0025
  872POPE   C2B13300   9.596  14.182   6.616  0.0104  0.3169  0.1313
  872POPE   C3B13301   9.801  13.922   6.922 -0.0358 -0.0257 -0.1494
  872POPE   C4B13302  10.151  13.890   7.319  0.1106 -0.0723  0.0760
  873POPE   NH313303   9.653  17.870   5.885  0.2675 -0.0943 -0.0304
  873POPE   PO413304   9.693  17.376   5.733  0.1154 -0.0083 -0.0509
  873POPE   GL113305   9.749  17.501   6.200 -0.3006  0.2153  0.2326
  873POPE   GL213306  10.083  17.391   6.391 -0.5103  0.1661  0.1586
  873POPE   C1A13307   9.709  17.665   6.642  0.1057  0.1664  0.3026
  873POPE   D2A13308   9.917  17.520   6.936  0.0428 -0.0026 -0.2630
  873POPE   C3A13309  10.301  17.635   7.179  0.2730 -0.3280  0.2931
  873POPE   C4A13310  10.560  18.013   7.359  0.0022  0.2548  0.0536
  873POPE   C1B13311  10.205  17.171   6.849  0.1093 -0.3143  0.2406
  873POPE   C2B13312  10.490  17.130   7.100 -0.0529 -0.3203 -0.0684
  873POPE   C3B13313  10.692  17.410   7.405  0.1629 -0.0835 -0.1765
  873POPE   C4B13314  10.768  17.758   7.763 -0.3097  0.1393 -0.0285
  874YOPE   NH313315   5.584   6.343   5.972 -0.0114  0.3392 -0.2084
  874YOPE   PO413316   5.307   6.089   5.743  0.1063 -0.0684 -0.0982
  874YOPE   GL113317   5.121   6.001   6.116  0.3405  0.1502  0.2017
  874YOPE   GL213318   5.001   5.722   6.301  0.1207  0.1823 -0.0948
  874YOPE   C1A13319   5.376   6.026   6.543  0.0962  0.3918  0.0471
  874YOPE   D2A13320   5.494   6.033   6.926 -0.1081  0.0561 -0.1347
  874YOPE   C3A13321   5.554   5.676   7.284  0.2362  0.1161  0.1362
  874YOPE   C4A13322   5.339   5.362   7.607 -0.0300  0.0313 -0.0746
  874YOPE   C1B13323   5.080   5.555   6.757  0.0459  0.2069 -0.2193
  874YOPE   C2B13324   5.199   5.318   7.143 -0.0471  0.0097  0.5325
  874YOPE   D3B13325   5.237   4.925   7.362  0.0110  0.1315  0.1277
  874YOPE   C4B13326   5.617   4.741   7.632 -0.0001  0.3425  0.0796
  875YOPE   NH313327  14.166   5.069   5.743  0.1386  0.0545  0.0957
  875YOPE   PO413328  14.541   4.827   5.900  0.0680 -0.1230  0.0564
  875YOPE   GL113329  14.359   4.790   6.374 -0.1919 -0.0748 -0.1492
  875YOPE   GL213330  14.108   4.932   6.232  0.1318  0.0494 -0.1822
  875YOPE   C1A13331  14.232   4.641   6.764  0.0030 -0.0088  0.2389
  875YOPE   D2A13332  14.140   4.551   7.144  0.2070 -0.2103  0.3003
  875YOPE   C3A13333  14.378   4.761   7.498  0.1068  0.0046  0.0115
  875YOPE   C4A13334  14.558   5.113   7.534 -0.1456  0.0641  0.0521
  875YOPE   C1B13335  13.662   5.027   6.397  0.0287  0.0918 -0.1425
  875YOPE   C2B13336  13.476   5.280   6.707 -0.0357  0.2807 -0.2752
  875YOPE   D3B13337  13.291   5.658   6.877  0.1449 -0.0461 -0.1825
  875YOPE   C4B13338  13.210   5.892   7.195 -0.2196 -0.0650  0.0783
  876YOPE   NH313339  10.696   6.714   6.206 -0.1317 -0.2040  0.0801
  876YOPE   PO413340  10.812   6.221   6.078  0.0394  0.2635  0.1471
  876YOPE   GL113341  10.819   6.276   6.526  0.1371  0.0387  0.1020
  876YOPE   GL213342  10.466   6.288   6.521 -0.1751  0.0191  0.1207
  876YOPE   C1A13343  10.707   6.083   6.882 -0.1439  0.1522 -0.1160
  876YOPE   D2A13344  10.632   5.868   7.233  0.1609  0.0961 -0.0174
  876YOPE   C3A13345  10.845   5.899   7.538  0.1566  0.1730 -0.1244
  876YOPE   C4A13346  11.053   6.064   7.947  0.0007 -0.0442  0.0084
  876YOPE   C1B13347  10.377   6.448   6.953 -0.1316 -0.3966  0.1589
  876YOPE   C2B13348  10.487   6.351   7.290  0.3173  0.1267 -0.1154
  876YOPE   D3B13349  10.259   6.246   7.701 -0.1189  0.1254 -0.1304
  876YOPE   C4B13350  10.415   6.542   7.976 -0.1128  0.1782 -0.3162
  877YOPE   NH313351  11.124  13.957   5.472 -0.0656 -0.0797  0.2781
  877YOPE   PO413352  11.262  13.627   5.825 -0.2033  0.1624  0.1287
  877YOPE   GL113353  11.000  13.651   6.257  0.0373 -0.2451  0.2982
  877YOPE   GL213354  10.730  13.438   6.197 -0.0558 -0.0310 -0.0990
  877YOPE   C1A13355  10.979  13.787   6.719  0.2655  0.2553 -0.1282
  877YOPE   D2A13356  10.620  13.876   6.989 -0.0067 -0.0463 -0.2131
  877YOPE   C3A13357  10.621  13.924   7.454 -0.3207 -0.2067  0.0815
  877YOPE   C4A13358  10.376  14.199   7.648  0.1501 -0.0687 -0.0326
  877YOPE   C1B13359  10.560  13.419   6.553  0.0731 -0.3235  0.0337
  877YOPE   C2B13360  10.413  13.426   7.045  0.3266 -0.3109  0.0106
  877YOPE   D3B13361  10.580  13.263   7.374 -0.1994 -0.0531  0.1613
  877YOPE   C4B13362  10.626  12.881   7.427  0.1739 -0.0602 -0.0736
  878YOPE   NH313363  14.874   3.084   5.864  0.1914 -0.3524  0.1351
  878YOPE   PO413364  14.549   3.309   5.840 -0.1700 -0.0062 -0.1828
  878YOPE   GL113365  14.359   3.182   6.195 -0.1457 -0.1786  0.2872
  878YOPE   GL213366  14.368   2.856   6.188 -0.0308 -0.6174 -0.3767
  878YOPE   C1A13367  14.405   3.352   6.525  0.0716  0.2314 -0.0065
  878YOPE   D2A13368  14.646   3.558   6.753 -0.0457 -0.0547  0.2582
  878YOPE   C3A13369  14.973   3.623   6.831  0.0383  0.2404 -0.2809
  878YOPE   C4A13370  15.146   3.958   6.972  0.1308 -0.3206 -0.1453
  878YOPE   C1B13371  14.282   2.864   6.619 -0.2290 -0.3240  0.1974
  878YOPE   C2B13372  14.234   2.826   7.131  0.3644 -0.2119  0.0473
  878YOPE   D3B13373  14.457   2.702   7.409  0.1361  0.2071 -0.1769
  878YOPE   C4B13374  14.624   2.435   7.646 -0.2050 -0.1123  0.3482
  879YOPE   NH313375  10.316   4.601   5.953  0.1716  0.0361 -0.2148
  879YOPE   PO413376  10.402   4.954   6.180  0.2363  0.0878  0.1674
  879YOPE   GL113377  10.594   5.046   6.464  0.2106 -0.0280  0.0901
  879YOPE   GL213378  10.375   5.191   6.674 -0.0131 -0.1217  0.1272
  879YOPE   C1A13379  10.776   5.016   6.880  0.2865 -0.1849 -0.4406
  879YOPE   D2A13380  10.951   4.881   7.301  0.1635 -0.0386  0.1353
  879YOPE   C3A13381  10.733   5.059   7.679  0.0913  0.2864 -0.0126
  879YOPE   C4A13382  10.891   5.199   8.078 -0.0691 -0.1069  0.0075
  879YOPE   C1B13383  10.369   5.033   7.209  0.1631  0.0918  0.2141
  879YOPE   C2B13384  10.264   4.967   7.599  0.0968 -0.3433  0.0723
  879YOPE   D3B13385  10.230   4.613   7.903  0.2844 -0.2428 -0.0376
  879YOPE   C4B13386   9.931   4.437   8.107 -0.2596 -0.2139 -0.2074
  880YOPE   NH313387   0.732  14.587   6.102 -0.3282  0.0845  0.0486
  880YOPE   PO413388   0.642  14.185   6.065  0.0823  0.1290  0.1815
  880YOPE   GL113389   0.591  13.998   6.461 -0.0640  0.0316  0.0231
  880YOPE   GL213390   0.829  13.875   6.576  0.1326  0.0652  0.1317
  880YOPE   C1A13391   0.529  14.182   6.817 -0.2841  0.0574 -0.2493
  880YOPE   D2A13392   0.304  14.555   6.883 -0.0627 -0.0119  0.1710
  880YOPE   C3A13393   0.312  14.830   7.242 -0.1038  0.1420  0.0531
  880YOPE   C4A13394   0.073  15.123   7.545  0.1271  0.1112 -0.2544
  880YOPE   C1B13395   0.963  14.100   7.025 -0.0517 -0.1060 -0.0206
  880YOPE   C2B13396   1.113  14.049   7.479  0.0413  0.2682 -0.0951
  880YOPE   D3B13397   1.067  14.092   7.898 -0.0521 -0.0476 -0.0495
  880YOPE   C4B13398   1.177  14.426   8.209  0.1756  0.0558 -0.1995
  881YOPE   NH313399   1.762   2.980   5.921 -0.0485  0.0393 -0.0921
  881YOPE   PO413400   2.003   3.253   6.157 -0.2011 -0.0194  0.2592
  881YOPE   GL113401   1.781   3.129   6.534  0.2862  0.2712 -0.1357
  881YOPE   GL213402   1.545   3.178   6.414  0.4571 -0.0895  0.1545
  881YOPE   C1A13403   1.900   3.237   6.940 -0.2273  0.2543  0.0763
  881YOPE   D2A13404   2.117   3.095   7.267 -0.0483  0.3440  0.1456
  881YOPE   C3A13405   2.155   3.402   7.587 -0.2350  0.0116 -0.4944
  881YOPE   C4A13406   2.334   3.813   7.751  0.1161  0.0350 -0.1043
  881YOPE   C1B13407   1.369   3.066   6.811 -0.2318 -0.1255  0.1588
  881YOPE   C2B13408   1.613   3.055   7.256  0.3066 -0.0609  0.1020
  881YOPE   D3B13409   1.794   2.952   7.651 -0.0606 -0.1003  0.1728
  881YOPE   C4B13410   2.009   3.014   7.943 -0.1649  0.1647  0.3090
  882YOPE   NH313411  12.724   7.648   6.066 -0.0390  0.2580  0.2655
  882YOPE   PO413412  12.605   7.213   5.959 -0.1395 -0.0078  0.3439
  882YOPE   GL113413  12.649   7.311   6.401 -0.1358  0.1444 -0.0925
  882YOPE   GL213414  12.905   7.084   6.482 -0.1283  0.0224 -0.0703
  882YOPE   C1A13415  12.509   7.593   6.718  0.2521  0.1386 -0.0485
  882YOPE   D2A13416  12.262   7.511   7.113  0.2353 -0.0058  0.4060
  882YOPE   C3A13417  12.490   7.597   7.444  0.1452  0.2904  0.3511
  882YOPE   C4A13418  12.332   7.735   7.806 -0.4776 -0.1780  0.0300
  882YOPE   C1B13419  12.813   7.102   6.985 -0.1176 -0.0546  0.0719
  882YOPE   C2B13420  12.940   7.177   7.407  0.3549  0.1105  0.0312
  882YOPE   D3B13421  13.162   7.187   7.796 -0.5122 -0.2404 -0.0876
  882YOPE   C4B13422  13.307   7.527   7.911  0.2019 -0.3952  0.0629
  883YOPE   NH313423  17.591   2.461   6.030  0.0336  0.1889 -0.0903
  883YOPE   PO413424  17.730   2.116   6.142 -0.0620 -0.1880  0.0799
  883YOPE   GL113425  17.625   2.182   6.489 -0.2779 -0.2333 -0.1524
  883YOPE   GL213426  17.679   2.421   6.650 -0.0361  0.0961 -0.0769
  883YOPE   C1A13427  17.520   2.005   6.883  0.0003  0.1168 -0.0131
  883YOPE   D2A13428  17.487   2.000   7.293  0.0254  0.0416  0.0348
  883YOPE   C3A13429  17.211   2.067   7.523  0.0925  0.1207  0.0208
  883YOPE   C4A13430  16.875   2.126   7.722  0.3334  0.1545  0.1553
  883YOPE   C1B13431  17.686   2.435   7.177 -0.1467 -0.0742  0.1515
  883YOPE   C2B13432  17.556   2.474   7.511  0.0410 -0.3025 -0.0104
  883YOPE   D3B13433  17.413   2.340   7.990 -0.1057 -0.2667 -0.2793
  883YOPE   C4B13434  17.186   2.097   8.195 -0.2114  0.2702 -0.0154
  884YOPE   NH313435   7.066  17.631   5.911 -0.0188  0.2675 -0.0824
  884YOPE   PO413436   7.223  18.017   5.627  0.1405 -0.2935 -0.2484
  884YOPE   GL113437   7.290  18.085   6.104  0.0255 -0.0819 -0.2207
  884YOPE   GL213438   7.505  17.827   6.208 -0.0759 -0.6153 -0.0646
  884YOPE   C1A13439   7.413  18.327   6.365 -0.0371 -0.1725  0.3535
  884YOPE   D2A13440   7.408  18.685   6.585  0.2688  0.0977 -0.1118
  884YOPE   C3A13441   7.541  18.658   6.959 -0.0453  0.0475  0.1397
  884YOPE   C4A13442   7.517  18.740   7.410  0.1160  0.3005  0.1299
  884YOPE   C1B13443   7.587  17.915   6.618 -0.1738 -0.0258 -0.0168
  884YOPE   C2B13444   7.333  18.144   6.887  0.1795 -0.0132  0.0768
  884YOPE   D3B13445   7.185  18.044   7.304 -0.1051 -0.1029 -0.0537
  884YOPE   C4B13446   6.805  18.250   7.645  0.0416 -0.2193 -0.2896
  885YOPE   NH313447   8.655  16.336   5.752 -0.3238 -0.0165 -0.4446
  885YOPE   PO413448   9.015  16.268   5.806  0.0659  0.2541 -0.2193
  885YOPE   GL113449   9.048  16.276   6.320  0.1879 -0.1869  0.1167
  885YOPE   GL213450   8.887  16.555   6.506  0.2063 -0.1335 -0.0663
  885YOPE   C1A13451   9.269  16.178   6.677 -0.1962 -0.1476 -0.1643
  885YOPE   D2A13452   9.181  16.193   7.137  0.0506  0.2748  0.1671
  885YOPE   C3A13453   8.908  15.997   7.484 -0.0841  0.0703 -0.0163
  885YOPE   C4A13454   8.823  15.966   7.937  0.0176  0.0449  0.0645
  885YOPE   C1B13455   8.952  16.579   6.880  0.1139 -0.0395  0.2640
  885YOPE   C2B13456   8.810  16.545   7.313  0.0489 -0.1560  0.0690
  885YOPE   D3B13457   8.867  16.466   7.741 -0.0196  0.0964 -0.1569
  885YOPE   C4B13458   8.731  16.411   8.105 -0.1529 -0.1461  0.2066
  886YOPE   NH313459   1.547   7.573   6.173  0.2234  0.0631  0.1008
  886YOPE   PO413460   1.112   7.638   6.076  0.3680 -0.1573 -0.1066
  886YOPE   GL113461   1.151   7.722   6.491  0.0589  0.0631  0.1267
  886YOPE   GL213462   1.385   7.670   6.744 -0.1090 -0.1661  0.1512
  886YOPE   C1A13463   0.922   7.781   6.894  0.0391  0.2229  0.1168
  886YOPE   D2A13464   0.857   7.955   7.252 -0.2293  0.3100  0.1755
  886YOPE   C3A13465   0.697   8.214   7.744  0.0673  0.0504  0.1345
  886YOPE   C4A13466   0.437   8.063   8.142  0.1057  0.2010  0.1553
  886YOPE   C1B13467   1.335   7.555   7.143  0.1679 -0.1335 -0.2059
  886YOPE   C2B13468   1.370   7.279   7.471  0.2389 -0.0310  0.3284
  886YOPE   D3B13469   1.475   7.440   7.852 -0.1456  0.1967  0.1373
  886YOPE   C4B13470   1.401   7.435   8.244 -0.2191 -0.0035  0.0829
  887YOPE   NH313471   4.479   1.496   5.667  0.2413  0.0295  0.0980
  887YOPE   PO413472   4.495   1.085   5.663 -0.1693  0.0920  0.2476
  887YOPE   GL113473   4.542   1.183   6.079 -0.2828  0.0153  0.1262
  887YOPE   GL213474   4.643   1.404   6.132  0.2595  0.1490 -0.1404
  887YOPE   C1A13475   4.205   1.154   6.389 -0.3317  0.0035 -0.0755
  887YOPE   D2A13476   4.322   0.933   6.802 -0.2360 -0.1291  0.0787
  887YOPE   C3A13477   4.336   0.503   6.725 -0.0223  0.2368 -0.1434
  887YOPE   C4A13478   4.267   0.132   6.814  0.1278 -0.1533 -0.5286
  887YOPE   C1B13479   4.796   1.295   6.527  0.3082 -0.3158  0.3244
  887YOPE   C2B13480   4.751   1.123   6.991 -0.4651  0.2715 -0.0361
  887YOPE   D3B13481   4.428   0.958   7.283  0.0710  0.1387 -0.1185
  887YOPE   C4B13482   4.237   0.722   7.632 -0.2347  0.0150 -0.0297
  888YOPE   NH313483  16.470   5.252   6.072 -0.0535  0.4023  0.3387
  888YOPE   PO413484  16.041   5.503   6.057 -0.0119 -0.0071  0.1168
  888YOPE   GL113485  16.100   5.289   6.444  0.1484  0.0253  0.0666
  888YOPE   GL213486  15.815   5.181   6.449 -0.1446  0.2294 -0.1666
  888YOPE   C1A13487  16.132   5.489   6.810 -0.1772 -0.0280  0.0476
  888YOPE   D2A13488  16.192   5.722   7.160 -0.1370  0.5290  0.0006
  888YOPE   C3A13489  16.142   6.143   7.102 -0.1626  0.1000  0.2518
  888YOPE   C4A13490  16.024   6.499   7.232  0.0461  0.1032  0.2253
  888YOPE   C1B13491  15.944   5.046   6.793  0.0417 -0.1458 -0.0554
  888YOPE   C2B13492  16.117   5.084   7.196 -0.1050  0.1085 -0.3712
  888YOPE   D3B13493  16.014   5.109   7.631 -0.0405  0.2816  0.1797
  888YOPE   C4B13494  15.719   5.295   7.988 -0.2343 -0.3658 -0.0492
  889YOPE   NH313495   7.279  13.433   6.181  0.1417  0.1788 -0.2433
  889YOPE   PO413496   7.190  13.007   6.292 -0.1222 -0.1666  0.1533
  889YOPE   GL113497   7.318  13.137   6.706 -0.1547  0.2080  0.1041
  889YOPE   GL213498   7.656  13.285   6.814 -0.1270 -0.0616  0.0817
  889YOPE   C1A13499   7.263  13.312   7.204  0.1585 -0.0585 -0.1505
  889YOPE   D2A13500   7.566  13.453   7.607  0.0643 -0.1576 -0.1110
  889YOPE   C3A13501   7.786  13.710   7.890  0.1271  0.1760 -0.0526
  889YOPE   C4A13502   7.754  13.720   8.370  0.2476  0.3656 -0.3869
  889YOPE   C1B13503   7.641  13.594   7.114 -0.0821  0.0588  0.0526
  889YOPE   C2B13504   7.752  13.971   7.452  0.0329  0.2033 -0.1772
  889YOPE   D3B13505   8.078  14.128   7.777  0.1206  0.0897  0.0931
  889YOPE   C4B13506   8.097  14.321   8.184 -0.1054 -0.1777  0.0210
  890YOPE   NH313507  14.459  14.028   5.720  0.0251  0.3558  0.0935
  890YOPE   PO413508  14.047  13.854   5.679  0.0616  0.2205 -0.2824
  890YOPE   GL113509  14.185  13.847   6.114  0.1847  0.1122 -0.1184
  890YOPE   GL213510  14.349  14.021   6.253 -0.2715 -0.2185 -0.0876
  890YOPE   C1A13511  14.406  13.557   6.497 -0.4649  0.2684  0.1348
  890YOPE   D2A13512  14.690  13.487   6.907  0.0259  0.0738  0.1666
  890YOPE   C3A13513  14.550  13.189   7.239 -0.0095 -0.0032  0.0664
  890YOPE   C4A13514  14.683  13.047   7.618  0.0906  0.0162  0.1451
  890YOPE   C1B13515  14.522  14.057   6.685  0.0477 -0.1277 -0.0314
  890YOPE   C2B13516  14.551  13.885   7.105 -0.0236 -0.0251 -0.1283
  890YOPE   D3B13517  14.558  13.654   7.508  0.1149  0.0718  0.2623
  890YOPE   C4B13518  14.382  13.373   7.784 -0.0475  0.5242  0.1066
  891YOPE   NH313519  16.893  16.273   5.244  0.3247 -0.1497  0.1870
  891YOPE   PO413520  16.650  16.595   5.434 -0.0951 -0.1651 -0.0171
  891YOPE   GL113521  16.506  16.690   5.844 -0.2614  0.2314 -0.0081
  891YOPE   GL213522  16.469  16.483   6.045  0.0568 -0.0759 -0.0679
  891YOPE   C1A13523  16.371  17.008   6.045 -0.1767 -0.0781  0.1741
  891YOPE   D2A13524  16.468  17.071   6.441 -0.1622 -0.1645  0.0763
  891YOPE   C3A13525  16.355  17.343   6.754  0.1711 -0.4862  0.0168
  891YOPE   C4A13526  16.261  17.670   7.185 -0.0634  0.2242 -0.2341
  891YOPE   C1B13527  16.226  16.227   6.308  0.4044  0.0098  0.0860
  891YOPE   C2B13528  16.039  16.023   6.710 -0.1950 -0.0992 -0.1596
  891YOPE   D3B13529  15.903  15.880   7.095  0.3576 -0.2562  0.1121
  891YOPE   C4B13530  15.703  16.082   7.445  0.0676 -0.0793 -0.1077
  892YOPE   NH313531   0.314   6.072   5.856 -0.1067 -0.1760  0.2595
  892YOPE   PO413532   0.758   5.923   6.020  0.1093 -0.0037  0.0814
  892YOPE   GL113533   0.825   5.825   6.354  0.1345 -0.1285 -0.0786
  892YOPE   GL213534   1.141   5.938   6.389 -0.0794  0.3570  0.4644
  892YOPE   C1A13535   0.922   5.678   6.760  0.0487  0.2929  0.1549
  892YOPE   D2A13536   1.004   5.860   7.181  0.1404 -0.1871  0.0355
  892YOPE   C3A13537   1.278   5.850   7.443  0.0393  0.2678  0.0391
  892YOPE   C4A13538   1.504   6.096   7.655  0.1081  0.3670 -0.0890
  892YOPE   C1B13539   1.286   6.098   6.686  0.0696 -0.0868  0.1906
  892YOPE   C2B13540   1.204   6.283   7.049 -0.1261  0.0058  0.0004
  892YOPE   D3B13541   1.061   6.307   7.462  0.3675 -0.1949  0.4068
  892YOPE   C4B13542   0.793   6.077   7.731 -0.1024 -0.0080 -0.1593
  893YOPE   NH313543  15.009   9.499   6.046 -0.2302  0.1858 -0.3565
  893YOPE   PO413544  14.543   9.293   5.937 -0.0167  0.1873 -0.0616
  893YOPE   GL113545  14.590   9.431   6.265 -0.2180 -0.0872 -0.0951
  893YOPE   GL213546  14.271   9.662   6.418 -0.1641 -0.0192  0.2169
  893YOPE   C1A13547  14.682   9.557   6.643  0.0429 -0.0246 -0.0809
  893YOPE   D2A13548  14.786   9.356   7.027  0.0935  0.0005  0.1604
  893YOPE   C3A13549  14.945   9.252   7.402  0.1708  0.1115 -0.3046
  893YOPE   C4A13550  15.253   9.328   7.589  0.2529  0.0217 -0.2522
  893YOPE   C1B13551  14.319   9.507   6.924  0.1070 -0.1076 -0.0697
  893YOPE   C2B13552  14.431   9.495   7.372  0.0533  0.0589 -0.0458
  893YOPE   D3B13553  14.547   9.345   7.788  0.0616 -0.0862  0.1318
  893YOPE   C4B13554  14.857   9.419   8.131 -0.2477 -0.2325 -0.2422
  894YOPE   NH313555   8.411  12.629   5.911  0.0272 -0.2465 -0.1222
  894YOPE   PO413556   8.563  12.287   5.715  0.4168  0.0435 -0.1233
  894YOPE   GL113557   8.403  12.174   6.083 -0.3756  0.1364 -0.1397
  894YOPE   GL213558   8.619  12.301   6.339  0.3000  0.1973  0.0577
  894YOPE   C1A13559   8.095  12.231   6.484  0.0818  0.0597 -0.1322
  894YOPE   D2A13560   8.132  12.315   6.861  0.0289  0.0336  0.1325
  894YOPE   C3A13561   8.033  12.750   6.965 -0.1639  0.1368  0.1604
  894YOPE   C4A13562   7.803  13.021   7.197  0.2914  0.1388 -0.2395
  894YOPE   C1B13563   8.895  12.296   6.667  0.1583  0.0163 -0.0311
  894YOPE   C2B13564   8.984  12.262   7.122  0.2345  0.2553 -0.0789
  894YOPE   D3B13565   9.175  12.187   7.514 -0.2227 -0.0782 -0.0506
  894YOPE   C4B13566   9.147  12.317   7.984 -0.0812  0.5023 -0.1393
  895YOPE   NH313567   9.065  14.034   5.796 -0.2716 -0.0685 -0.1548
  895YOPE   PO413568   9.031  14.448   5.994 -0.1080  0.0832 -0.1964
  895YOPE   GL113569   8.776  14.319   6.264 -0.0759 -0.1449 -0.0241
  895YOPE   GL213570   8.473  14.278   6.355  0.0342  0.1876 -0.2924
  895YOPE   C1A13571   8.763  14.463   6.729 -0.2863  0.0668 -0.2420
  895YOPE   D2A13572   8.978  14.633   7.029 -0.1737 -0.2100  0.0637
  895YOPE   C3A13573   9.131  14.376   7.483 -0.0273 -0.3976  0.2993
  895YOPE   C4A13574   9.603  14.300   7.566 -0.0502 -0.1089  0.2720
  895YOPE   C1B13575   8.461  14.077   6.746 -0.1603 -0.0785 -0.1372
  895YOPE   C2B13576   8.735  14.083   7.180  0.1739 -0.2595 -0.1259
  895YOPE   D3B13577   9.029  13.882   7.385  0.2620 -0.2028  0.2197
  895YOPE   C4B13578   8.928  13.588   7.765 -0.0324 -0.2253  0.2011
  896YOPE   NH313579   9.775   6.821   5.955 -0.0678  0.0141 -0.1213
  896YOPE   PO413580   9.891   6.335   6.037 -0.4147 -0.0708  0.0642
  896YOPE   GL113581   9.919   6.582   6.373 -0.0513 -0.0320  0.2352
  896YOPE   GL213582   9.690   6.872   6.444  0.1540  0.1486 -0.1068
  896YOPE   C1A13583   9.959   6.680   6.832  0.1720 -0.1494 -0.0562
  896YOPE   D2A13584  10.093   6.670   7.274  0.0909  0.1937 -0.1295
  896YOPE   C3A13585  10.351   6.777   7.461 -0.2035  0.2706 -0.1238
  896YOPE   C4A13586  10.600   6.821   7.622  0.0389  0.1740 -0.1286
  896YOPE   C1B13587   9.530   6.487   6.689  0.2505  0.1398 -0.0318
  896YOPE   C2B13588   9.172   6.275   7.046 -0.0117  0.1592  0.0846
  896YOPE   D3B13589   9.126   6.027   7.393 -0.0971 -0.0167 -0.1193
  896YOPE   C4B13590   9.382   5.898   7.673 -0.0436  0.0576  0.1090
  897YOPE   NH313591   9.488  16.300   5.995 -0.0499  0.0058 -0.0263
  897YOPE   PO413592   9.230  16.691   6.094  0.0325 -0.1102 -0.1398
  897YOPE   GL113593   9.454  16.619   6.447 -0.0084  0.2416  0.0919
  897YOPE   GL213594   9.731  16.440   6.500 -0.1033  0.1312  0.3195
  897YOPE   C1A13595   9.435  16.602   6.902  0.0603  0.2153  0.0576
  897YOPE   D2A13596   9.580  16.617   7.350  0.1063  0.1521 -0.0783
  897YOPE   C3A13597   9.358  16.650   7.682  0.0698 -0.2534 -0.0166
  897YOPE   C4A13598   9.358  17.036   7.858 -0.0490  0.1094  0.2732
  897YOPE   C1B13599   9.754  16.207   6.904 -0.0240 -0.1598  0.2342
  897YOPE   C2B13600   9.839  16.164   7.309  0.2777 -0.1937  0.0195
  897YOPE   D3B13601   9.463  16.156   7.609  0.0665  0.0745 -0.0089
  897YOPE   C4B13602   9.271  16.344   8.045 -0.3902  0.0390  0.2812
  898YOPE   NH313603  13.745  11.045   6.009 -0.1316  0.0612  0.1339
  898YOPE   PO413604  13.902  11.337   5.767 -0.0011 -0.1293  0.0789
  898YOPE   GL113605  13.920  11.514   6.153  0.4396  0.1214  0.5332
  898YOPE   GL213606  13.753  11.396   6.402  0.0196 -0.0906  0.1457
  898YOPE   C1A13607  14.167  11.615   6.556  0.0082  0.0452  0.0024
  898YOPE   D2A13608  14.375  11.651   6.975 -0.2347  0.0748 -0.2435
  898YOPE   C3A13609  14.535  11.645   7.441  0.0043  0.0384  0.0380
  898YOPE   C4A13610  14.328  11.465   7.839 -0.0386  0.1555  0.1188
  898YOPE   C1B13611  13.579  11.344   6.793 -0.1754 -0.0403  0.1137
  898YOPE   C2B13612  13.609  11.107   7.082 -0.2689  0.0199 -0.1966
  898YOPE   D3B13613  13.739  11.107   7.509 -0.2215  0.0771 -0.0276
  898YOPE   C4B13614  14.216  10.971   7.645 -0.0630  0.0550 -0.1114
  899YOPE   NH313615  12.034   0.311   5.665 -0.0558  0.0287 -0.1061
  899YOPE   PO413616  12.468   0.378   5.511 -0.1459  0.0519  0.1079
  899YOPE   GL113617  12.362   0.631   5.921  0.1773  0.2226  0.1922
  899YOPE   GL213618  12.235   0.977   5.911 -0.3028  0.0030 -0.1718
  899YOPE   C1A13619  12.685   0.709   6.144 -0.2443 -0.1748  0.1882
  899YOPE   D2A13620  12.831   1.000   6.477  0.0391  0.1467 -0.0875
  899YOPE   C3A13621  12.712   1.199   6.855 -0.0612  0.1819  0.0490
  899YOPE   C4A13622  12.819   1.204   7.232 -0.2360 -0.1637  0.0712
  899YOPE   C1B13623  12.329   1.094   6.363 -0.0552 -0.1349  0.0815
  899YOPE   C2B13624  12.231   1.458   6.608 -0.3437  0.0966 -0.1763
  899YOPE   D3B13625  12.218   1.467   7.067  0.3125  0.2964  0.1351
  899YOPE   C4B13626  12.479   1.642   7.380  0.5832  0.0993 -0.0003
  900YOPE   NH313627  14.746  15.148   5.527 -0.0149  0.1088  0.0559
  900YOPE   PO413628  15.169  15.029   5.716  0.0216 -0.1334  0.3818
  900YOPE   GL113629  14.986  15.252   6.062 -0.0372 -0.2785  0.0013
  900YOPE   GL213630  14.847  15.031   6.180  0.4158 -0.4520 -0.0091
  900YOPE   C1A13631  14.858  15.448   6.453 -0.0370  0.2773 -0.0354
  900YOPE   D2A13632  15.013  15.752   6.739 -0.1839 -0.0360  0.2215
  900YOPE   C3A13633  14.940  15.623   7.183  0.0072 -0.2306  0.2608
  900YOPE   C4A13634  14.832  15.705   7.610 -0.0063 -0.3027  0.1043
  900YOPE   C1B13635  14.718  15.040   6.642 -0.3158 -0.1053  0.2339
  900YOPE   C2B13636  14.782  14.846   7.020 -0.0822  0.2639 -0.0344
  900YOPE   D3B13637  15.059  14.910   7.329  0.0563  0.2717  0.2038
  900YOPE   C4B13638  15.227  14.862   7.783 -0.1307  0.0544  0.1642
  901YOPE   NH313639  13.733   4.283   5.891  0.0692  0.1857 -0.2281
  901YOPE   PO413640  13.907   4.683   5.895  0.3351  0.0809 -0.4392
  901YOPE   GL113641  14.124   4.349   6.318 -0.1625 -0.1728  0.0754
  901YOPE   GL213642  14.498   4.220   6.194 -0.1349  0.0814 -0.1151
  901YOPE   C1A13643  14.003   4.242   6.756  0.1815  0.1094  0.2444
  901YOPE   D2A13644  13.680   4.388   7.073  0.0250  0.1739 -0.0609
  901YOPE   C3A13645  13.846   4.486   7.530  0.0297 -0.1334 -0.1821
  901YOPE   C4A13646  14.013   4.710   7.865 -0.1418 -0.2341 -0.0601
  901YOPE   C1B13647  14.230   3.863   6.548  0.2612 -0.2094 -0.1994
  901YOPE   C2B13648  14.198   3.809   7.010 -0.2403 -0.2698 -0.1479
  901YOPE   D3B13649  13.951   4.049   7.325  0.0506 -0.1663 -0.1990
  901YOPE   C4B13650  13.909   4.066   7.809  0.0029  0.1025  0.0054
  902YOPE   NH313651  13.364  10.581   6.271  0.1477  0.0550 -0.2004
  902YOPE   PO413652  13.796  10.796   6.432  0.0384  0.2638  0.1314
  902YOPE   GL113653  14.032  10.821   6.806 -0.0640 -0.3120  0.0746
  902YOPE   GL213654  14.078  11.182   6.797 -0.0426  0.0848  0.0861
  902YOPE   C1A13655  13.946  10.766   7.240  0.2975 -0.0880  0.0884
  902YOPE   D2A13656  13.843  10.671   7.648  0.0328 -0.1416 -0.1431
  902YOPE   C3A13657  13.701  10.267   7.756  0.1250 -0.0550 -0.1420
  902YOPE   C4A13658  13.388  10.023   7.651  0.0129 -0.1281  0.0376
  902YOPE   C1B13659  14.122  11.357   7.248  0.0130 -0.2068  0.1408
  902YOPE   C2B13660  13.877  11.662   7.477  0.0396 -0.1128 -0.0698
  902YOPE   D3B13661  13.702  12.084   7.721 -0.0595  0.1494 -0.3210
  902YOPE   C4B13662  13.875  12.400   7.524 -0.2201 -0.0449 -0.1090
  903YOPE   NH313663   2.883  12.480   5.785  0.0834  0.0744 -0.2752
  903YOPE   PO413664   2.969  12.787   6.087 -0.1091 -0.3899  0.1658
  903YOPE   GL113665   2.955  13.125   6.409 -0.2343 -0.0934  0.0573
  903YOPE   GL213666   3.169  13.140   6.471 -0.0682  0.2365  0.1541
  903YOPE   C1A13667   2.804  13.363   6.791 -0.1319  0.1512  0.1866
  903YOPE   D2A13668   2.869  13.149   7.222 -0.3048  0.0488 -0.1544
  903YOPE   C3A13669   2.926  13.118   7.604  0.0880  0.0566  0.0842
  903YOPE   C4A13670   3.094  13.254   7.984 -0.3015  0.1110 -0.0075
  903YOPE   C1B13671   3.225  13.020   6.829 -0.0944  0.0294 -0.3307
  903YOPE   C2B13672   3.375  13.157   7.238 -0.3796 -0.0041 -0.2544
  903YOPE   D3B13673   3.459  13.085   7.703  0.1534  0.0869 -0.2546
  903YOPE   C4B13674   3.484  12.899   8.180 -0.0151  0.3193  0.3583
  904YOPE   NH313675   3.620   5.961   6.076 -0.0526  0.2575  0.0309
  904YOPE   PO413676   3.347   5.606   5.886  0.0922  0.2816  0.1759
  904YOPE   GL113677   3.378   5.592   6.336  0.1718 -0.1847  0.0634
  904YOPE   GL213678   3.144   5.744   6.449 -0.2005  0.0246  0.0743
  904YOPE   C1A13679   3.540   5.449   6.754 -0.1530  0.2699 -0.2369
  904YOPE   D2A13680   3.622   5.143   6.952  0.1013 -0.3119 -0.0979
  904YOPE   C3A13681   3.900   5.163   7.229 -0.1804  0.1372 -0.0440
  904YOPE   C4A13682   3.977   4.856   7.650 -0.1710  0.3173 -0.1798
  904YOPE   C1B13683   3.291   5.840   6.868 -0.0209 -0.1479 -0.0505
  904YOPE   C2B13684   3.308   6.012   7.253  0.1503  0.3943 -0.1312
  904YOPE   D3B13685   3.502   6.025   7.672 -0.1377  0.0906 -0.1518
  904YOPE   C4B13686   3.380   6.204   8.109  0.1900 -0.0654 -0.2238
  905YOPE   NH313687   7.102  12.223   6.313  0.1639  0.0422  0.2041
  905YOPE   PO413688   6.746  12.251   6.145  0.1330 -0.0321 -0.0512
  905YOPE   GL113689   6.574  12.310   6.570 -0.0670 -0.0347 -0.2630
  905YOPE   GL213690   6.573  12.063   6.756  0.1083  0.0310  0.1268
  905YOPE   C1A13691   6.129  12.276   6.784  0.0795  0.3256 -0.0762
  905YOPE   D2A13692   5.808  12.350   7.026  0.1945 -0.0330 -0.0840
  905YOPE   C3A13693   5.866  12.346   7.391  0.1699 -0.1834  0.2068
  905YOPE   C4A13694   5.874  12.483   7.776  0.2453 -0.3026  0.1313
  905YOPE   C1B13695   6.735  12.080   7.186 -0.0546 -0.1417  0.1388
  905YOPE   C2B13696   6.791  12.241   7.523  0.0608  0.2059  0.0039
  905YOPE   D3B13697   7.095  12.095   7.910 -0.0987  0.1864  0.4006
  905YOPE   C4B13698   7.396  12.008   8.319 -0.1896  0.0855  0.0479
  906YOPE   NH313699  13.373  10.030   6.075  0.0145 -0.2330 -0.2175
  906YOPE   PO413700  13.098  10.192   6.384 -0.1109 -0.1039 -0.4874
  906YOPE   GL113701  13.420  10.168   6.573  0.0051 -0.1480  0.2046
  906YOPE   GL213702  13.418   9.820   6.655 -0.1861 -0.1423 -0.2218
  906YOPE   C1A13703  13.634  10.250   6.876  0.0166  0.2128 -0.2596
  906YOPE   D2A13704  13.737  10.164   7.297  0.2054 -0.0873 -0.0346
  906YOPE   C3A13705  13.902   9.833   7.633 -0.0347  0.1099  0.5766
  906YOPE   C4A13706  14.034   9.503   7.680  0.0850 -0.3873  0.1220
  906YOPE   C1B13707  13.421   9.851   7.081 -0.1923  0.1073 -0.1592
  906YOPE   C2B13708  13.441   9.561   7.436  0.1149  0.0230 -0.2545
  906YOPE   D3B13709  13.498   9.526   7.841 -0.0728 -0.0717  0.1065
  906YOPE   C4B13710  13.596   9.341   8.234 -0.0192 -0.0838 -0.1815
  907YOPE   NH313711  11.420  13.088   5.781 -0.0569 -0.1894 -0.2262
  907YOPE   PO413712  10.930  13.086   5.907  0.2140 -0.0693 -0.3511
  907YOPE   GL113713  10.859  12.962   6.348 -0.2300  0.1471 -0.1530
  907YOPE   GL213714  10.628  12.808   6.472  0.0868  0.4768 -0.0811
  907YOPE   C1A13715  11.117  13.101   6.679 -0.0119 -0.0096  0.1074
  907YOPE   D2A13716  11.352  13.405   6.778  0.2262  0.0174  0.1384
  907YOPE   C3A13717  11.293  13.712   7.125 -0.0780 -0.2318  0.0003
  907YOPE   C4A13718  11.062  14.025   7.236  0.1965 -0.0433 -0.0990
  907YOPE   C1B13719  10.655  12.997   6.882  0.0982 -0.0710  0.1273
  907YOPE   C2B13720  10.931  13.380   7.041 -0.1217 -0.0272 -0.2216
  907YOPE   D3B13721  11.068  13.436   7.458 -0.0109  0.0074 -0.0147
  907YOPE   C4B13722  10.782  13.474   7.870  0.2609 -0.1654  0.0311
  908YOPE   NH313723  17.065   4.562   5.960  0.0877  0.0661  0.0587
  908YOPE   PO413724  16.988   4.086   5.957  0.0046  0.2965  0.2901
  908YOPE   GL113725  16.870   4.238   6.328 -0.0775 -0.0314  0.2140
  908YOPE   GL213726  17.156   4.491   6.421  0.1124 -0.1559 -0.1120
  908YOPE   C1A13727  17.036   4.196   6.771  0.1523 -0.0847 -0.3623
  908YOPE   D2A13728  17.317   4.188   7.121 -0.1206 -0.0856 -0.1734
  908YOPE   C3A13729  17.254   3.898   7.629  0.2026 -0.0967  0.1274
  908YOPE   C4A13730  16.930   3.783   7.871 -0.0270  0.1289 -0.0409
  908YOPE   C1B13731  17.278   4.637   6.784  0.2436 -0.0299  0.3994
  908YOPE   C2B13732  17.319   4.783   7.241 -0.0643  0.0947 -0.1416
  908YOPE   D3B13733  17.359   4.746   7.669  0.0645 -0.1158  0.0728
  908YOPE   C4B13734  17.703   4.548   7.882 -0.0776  0.1113  0.1232
  909YOPE   NH313735  17.602  10.302   6.323 -0.0622 -0.1499 -0.1550
  909YOPE   PO413736  17.926  10.602   6.168 -0.2766  0.0215  0.0975
  909YOPE   GL113737  18.041  10.504   6.551 -0.0226 -0.1340  0.0714
  909YOPE   GL213738  17.737  10.308   6.784 -0.1625 -0.1465 -0.0286
  909YOPE   C1A13739  18.212  10.497   6.904 -0.1573  0.1154 -0.0863
  909YOPE   D2A13740  18.196  10.757   7.242 -0.0553  0.2588  0.2193
  909YOPE   C3A13741  18.383  10.835   7.519 -0.1253  0.1173  0.0127
  909YOPE   C4A13742  18.385  10.831   7.907  0.0196  0.0294  0.1731
  909YOPE   C1B13743  17.854  10.160   7.120  0.3312 -0.0376  0.0492
  909YOPE   C2B13744  17.882   9.788   7.340 -0.1595  0.4334  0.1035
  909YOPE   D3B13745  18.327   9.594   7.389  0.2363  0.2945 -0.0460
  909YOPE   C4B13746  18.454   9.677   7.842  0.0070 -0.1762  0.0262
  910YOPE   NH313747  14.918   5.485   5.399 -0.3880 -0.1111 -0.1311
  910YOPE   PO413748  14.496   5.425   5.550  0.0217  0.0047 -0.3241
  910YOPE   GL113749  14.781   5.376   5.890 -0.3762  0.1357 -0.2016
  910YOPE   GL213750  14.526   5.287   6.099  0.2481 -0.1976  0.1843
  910YOPE   C1A13751  15.027   5.726   6.081  0.0227 -0.2485  0.0200
  910YOPE   D2A13752  14.952   6.173   6.113 -0.0240 -0.0001  0.2135
  910YOPE   C3A13753  15.181   6.465   6.316  0.2586 -0.2616 -0.3404
  910YOPE   C4A13754  15.476   6.708   6.157 -0.1381  0.3344 -0.3822
  910YOPE   C1B13755  14.379   5.441   6.512  0.1981 -0.0625 -0.0183
  910YOPE   C2B13756  14.295   5.702   6.963 -0.0784  0.0592  0.1289
  910YOPE   D3B13757  14.209   5.573   7.359  0.0153 -0.0438  0.2509
  910YOPE   C4B13758  13.885   5.602   7.685  0.3894  0.2847  0.3776
  911YOPE   NH313759  12.769   5.950   6.141  0.2980 -0.1083 -0.3202
  911YOPE   PO413760  12.394   5.880   6.077 -0.0481  0.3759 -0.1168
  911YOPE   GL113761  12.533   5.558   6.416  0.2014  0.1156  0.1181
  911YOPE   GL213762  12.615   5.196   6.279 -0.0715  0.0964  0.1582
  911YOPE   C1A13763  12.674   5.634   6.852 -0.0207 -0.1772  0.1811
  911YOPE   D2A13764  12.840   5.630   7.296 -0.0462  0.2845  0.0357
  911YOPE   C3A13765  12.677   5.555   7.699  0.3192  0.1395 -0.2224
  911YOPE   C4A13766  12.905   5.537   8.126  0.4036 -0.1630 -0.1857
  911YOPE   C1B13767  12.381   5.131   6.695  0.1855  0.0057 -0.1127
  911YOPE   C2B13768  12.516   5.178   7.163 -0.0009  0.1307 -0.2512
  911YOPE   D3B13769  12.909   5.086   7.499  0.0894  0.2098 -0.1375
  911YOPE   C4B13770  12.934   5.139   7.845  0.2099  0.1313 -0.1967
  912YOPE   NH313771  17.173   1.914   5.958 -0.1971 -0.3065  0.0198
  912YOPE   PO413772  16.948   1.641   5.891 -0.0203  0.0793 -0.0899
  912YOPE   GL113773  16.633   1.477   6.245  0.1262  0.1100 -0.1240
  912YOPE   GL213774  16.277   1.537   6.259  0.0631  0.0498 -0.2169
  912YOPE   C1A13775  16.591   1.610   6.625  0.1386 -0.0654  0.1056
  912YOPE   D2A13776  16.478   1.547   7.013 -0.2010 -0.3385  0.3397
  912YOPE   C3A13777  16.141   1.466   7.259  0.3574 -0.0806 -0.0954
  912YOPE   C4A13778  15.994   1.627   7.683 -0.1318 -0.1093  0.2080
  912YOPE   C1B13779  15.976   1.194   6.266 -0.3602  0.1585  0.1273
  912YOPE   C2B13780  15.670   1.256   6.628  0.0407 -0.1834 -0.3203
  912YOPE   D3B13781  15.178   1.195   6.771 -0.1256  0.3653 -0.3019
  912YOPE   C4B13782  15.116   1.004   7.236 -0.3209 -0.0325 -0.1511
  913YOPE   NH313783  15.982   7.442   5.961  0.0123 -0.2493 -0.0899
  913YOPE   PO413784  16.173   7.767   5.809  0.2810  0.0476  0.1871
  913YOPE   GL113785  16.126   7.985   6.209 -0.4468  0.1569  0.3286
  913YOPE   GL213786  16.049   7.664   6.442 -0.0005 -0.0302  0.1245
  913YOPE   C1A13787  16.213   8.238   6.401 -0.0088  0.1415  0.1994
  913YOPE   D2A13788  15.947   8.326   6.785 -0.0359  0.3030 -0.1002
  913YOPE   C3A13789  16.143   8.397   7.155  0.0287  0.3997  0.3211
  913YOPE   C4A13790  16.011   8.481   7.611 -0.3998 -0.1736  0.1524
  913YOPE   C1B13791  15.827   7.719   6.819 -0.1289 -0.2476 -0.3158
  913YOPE   C2B13792  15.866   7.938   7.208 -0.0122 -0.1162 -0.0903
  913YOPE   D3B13793  15.740   8.002   7.650 -0.0561  0.1594 -0.1260
  913YOPE   C4B13794  15.620   7.941   8.226  0.1314 -0.0273 -0.0006
  914YOPE   NH313795  16.495   2.006   6.144 -0.1246 -0.1083 -0.1281
  914YOPE   PO413796  16.827   2.280   6.181 -0.1731 -0.1527 -0.3529
  914YOPE   GL113797  16.843   2.102   6.544  0.0108 -0.2846 -0.1554
  914YOPE   GL213798  17.143   2.117   6.524 -0.0826  0.0751  0.1969
  914YOPE   C1A13799  16.648   2.006   6.864 -0.3919  0.1003 -0.2758
  914YOPE   D2A13800  16.584   2.052   7.261  0.1517 -0.0094  0.0058
  914YOPE   C3A13801  16.339   1.950   7.632 -0.0293 -0.2549  0.1374
  914YOPE   C4A13802  16.097   1.978   8.047 -0.2027 -0.0776  0.1679
  914YOPE   C1B13803  17.062   2.300   6.989 -0.0661 -0.2304 -0.0976
  914YOPE   C2B13804  16.766   2.497   7.294 -0.2368 -0.0888  0.0207
  914YOPE   D3B13805  16.657   2.907   7.460  0.0621 -0.1154  0.1931
  914YOPE   C4B13806  16.990   3.085   7.721  0.2234  0.0795 -0.2837
  915YOPE   NH313807   5.515  11.756   6.274  0.0856 -0.0678  0.3400
  915YOPE   PO413808   5.876  11.742   6.328 -0.1870 -0.0373 -0.0884
  915YOPE   GL113809   5.986  11.814   6.769 -0.1325 -0.0520 -0.0035
  915YOPE   GL213810   6.202  11.713   6.932 -0.0643  0.1654 -0.0014
  915YOPE   C1A13811   5.781  11.837   7.162 -0.0217 -0.2301 -0.1567
  915YOPE   D2A13812   5.700  11.773   7.588  0.1159 -0.0474 -0.0438
  915YOPE   C3A13813   6.035  12.003   7.775  0.0608 -0.0466  0.2781
  915YOPE   C4A13814   6.113  12.272   8.133 -0.1228  0.0827  0.2076
  915YOPE   C1B13815   6.216  12.049   7.220  0.0691 -0.4934  0.2197
  915YOPE   C2B13816   6.326  12.356   7.563  0.2260 -0.2367 -0.2756
  915YOPE   D3B13817   6.409  12.575   7.868  0.1083 -0.1615 -0.2176
  915YOPE   C4B13818   6.444  12.590   8.294  0.1559 -0.1041  0.1753
  916YOPE   NH313819  17.723   2.975   5.870 -0.1380 -0.0828  0.2744
  916YOPE   PO413820  17.358   2.836   5.714  0.1333  0.2078  0.2250
  916YOPE   GL113821  17.269   2.851   6.148 -0.2001 -0.1003 -0.1046
  916YOPE   GL213822  17.531   2.876   6.356  0.1909 -0.1577  0.0214
  916YOPE   C1A13823  17.152   2.624   6.518  0.1629 -0.3699 -0.1378
  916YOPE   D2A13824  17.276   2.754   6.924  0.1812  0.0388 -0.1188
  916YOPE   C3A13825  17.162   2.753   7.330  0.1525  0.1631 -0.3537
  916YOPE   C4A13826  17.099   2.594   7.731  0.4270  0.0834 -0.1231
  916YOPE   C1B13827  17.721   2.917   6.805  0.0736  0.0891  0.2388
  916YOPE   C2B13828  17.707   2.930   7.239 -0.0184 -0.1186 -0.1168
  916YOPE   D3B13829  17.584   3.043   7.651  0.0465  0.0742  0.0230
  916YOPE   C4B13830  17.769   3.217   8.038  0.1556 -0.0388  0.0223
  917YOPE   NH313831   7.262   7.110   5.825 -0.4225  0.1584  0.1832
  917YOPE   PO413832   6.977   6.914   5.897  0.5102  0.1621 -0.1071
  917YOPE   GL113833   7.075   6.710   6.254 -0.1714  0.0462  0.0093
  917YOPE   GL213834   7.104   6.477   6.340  0.0748  0.4126  0.0907
  917YOPE   C1A13835   7.172   6.996   6.669 -0.0371 -0.1099 -0.2357
  917YOPE   D2A13836   7.142   6.794   7.056 -0.1620 -0.2393  0.2015
  917YOPE   C3A13837   7.047   7.117   7.288 -0.1369  0.0390  0.1906
  917YOPE   C4A13838   7.010   7.320   7.633 -0.1211 -0.0093  0.0406
  917YOPE   C1B13839   7.159   6.382   6.759  0.2540 -0.0634 -0.2596
  917YOPE   C2B13840   7.384   6.205   7.080 -0.4213  0.0479 -0.0911
  917YOPE   D3B13841   7.213   6.356   7.362  0.1164 -0.0525 -0.1142
  917YOPE   C4B13842   7.077   6.774   7.665  0.0738  0.0547 -0.0578
  918YOPE   NH313843  17.902  18.026   5.799 -0.3369 -0.3737  0.2090
  918YOPE   PO413844  17.946  18.237   6.041  0.2012 -0.1997 -0.0001
  918YOPE   GL113845  17.901  18.339   6.480  0.1415  0.0277  0.2984
  918YOPE   GL213846  17.709  18.578   6.549 -0.2263  0.1359 -0.2971
  918YOPE   C1A13847  17.887  18.058   6.897  0.0214  0.1968  0.0071
  918YOPE   D2A13848  17.858  18.034   7.412  0.0682 -0.3147 -0.0179
  918YOPE   C3A13849  17.693  17.888   7.797 -0.3279 -0.0142  0.0772
  918YOPE   C4A13850  17.828  17.499   8.062  0.0504 -0.1503 -0.2182
  918YOPE   C1B13851  17.942  18.591   7.002  0.1263 -0.2183 -0.2297
  918YOPE   C2B13852  17.770  18.542   7.443  0.1013 -0.0931 -0.3511
  918YOPE   D3B13853  17.482  18.580   7.828  0.1406  0.0008  0.1770
  918YOPE   C4B13854  17.209  18.820   8.101 -0.1123 -0.0237 -0.2216
  919YOPE   NH313855   0.109   4.248   5.973 -0.1645 -0.0617 -0.1584
  919YOPE   PO413856   0.183   4.647   6.010 -0.1086 -0.1379  0.0009
  919YOPE   GL113857   0.461   4.690   6.292  0.1029  0.0152  0.2589
  919YOPE   GL213858   0.306   4.533   6.563  0.1476 -0.2459 -0.1439
  919YOPE   C1A13859   0.632   4.889   6.657 -0.0339  0.1190 -0.1824
  919YOPE   D2A13860   0.792   4.944   7.027  0.2293 -0.0601 -0.0318
  919YOPE   C3A13861   0.711   4.767   7.399 -0.2123  0.1944 -0.3038
  919YOPE   C4A13862   0.847   4.936   7.749 -0.2299  0.1095  0.1005
  919YOPE   C1B13863   0.187   4.415   7.004 -0.2772 -0.0385  0.0342
  919YOPE   C2B13864   0.083   4.242   7.362  0.0396 -0.0330  0.1327
  919YOPE   D3B13865  -0.048   3.863   7.600 -0.2642 -0.1265 -0.4477
  919YOPE   C4B13866   0.003   3.753   8.086  0.2934  0.2300  0.1238
  920YOPE   NH313867   0.574   0.498   5.525 -0.1904  0.0132 -0.1319
  920YOPE   PO413868   0.273   0.415   5.780 -0.3066  0.1995 -0.1193
  920YOPE   GL113869   0.528   0.533   6.115 -0.2989 -0.4185  0.0241
  920YOPE   GL213870   0.351   0.259   6.246 -0.0020 -0.0684 -0.2855
  920YOPE   C1A13871   0.837   0.813   6.294  0.0444  0.0895  0.2445
  920YOPE   D2A13872   1.053   1.088   6.592 -0.0949  0.2299 -0.3233
  920YOPE   C3A13873   1.019   1.277   7.007 -0.1252  0.2387 -0.3551
  920YOPE   C4A13874   1.328   1.493   7.305  0.0013  0.1436  0.0912
  920YOPE   C1B13875   0.256   0.126   6.753  0.2604 -0.1745 -0.6310
  920YOPE   C2B13876   0.247  -0.016   7.223 -0.0007 -0.1212 -0.1071
  920YOPE   D3B13877   0.227  -0.281   7.581 -0.0261 -0.1217  0.0246
  920YOPE   C4B13878   0.174  -0.336   7.974  0.0094  0.0860  0.2125
  921YOPE   NH313879   8.385   5.545   6.083  0.1857  0.0059  0.0338
  921YOPE   PO413880   8.700   5.202   5.899  0.0084  0.0754  0.2484
  921YOPE   GL113881   9.073   4.956   6.082  0.2036 -0.2821  0.1747
  921YOPE   GL213882   9.080   4.859   6.325 -0.0314  0.0053 -0.7446
  921YOPE   C1A13883   9.524   4.980   6.402 -0.4338 -0.1020 -0.1966
  921YOPE   D2A13884   9.929   4.879   6.692 -0.1281 -0.0291  0.2894
  921YOPE   C3A13885  10.276   4.538   6.779  0.1226 -0.0471  0.1733
  921YOPE   C4A13886  10.682   4.511   6.950  0.1534 -0.1753 -0.0448
  921YOPE   C1B13887   9.231   4.935   6.837 -0.1407 -0.2640  0.1681
  921YOPE   C2B13888   9.174   4.916   7.199  0.1497  0.0281  0.0983
  921YOPE   D3B13889   9.289   4.913   7.553 -0.3356 -0.0094  0.2680
  921YOPE   C4B13890   9.391   5.275   7.899  0.0126 -0.3273 -0.2580
  922YOPE   NH313891   4.633   3.677   5.765 -0.0029 -0.0624  0.0426
  922YOPE   PO413892   4.926   4.057   5.963 -0.0902 -0.0657  0.0020
  922YOPE   GL113893   5.003   4.149   6.346 -0.0275  0.1269 -0.2583
  922YOPE   GL213894   4.830   4.433   6.344  0.1893 -0.2481 -0.0364
  922YOPE   C1A13895   5.065   4.100   6.735 -0.0668  0.1365  0.4244
  922YOPE   D2A13896   5.117   3.900   7.117  0.0698  0.1927 -0.1380
  922YOPE   C3A13897   5.381   4.043   7.493  0.2372 -0.2605 -0.1199
  922YOPE   C4A13898   5.543   4.072   7.992 -0.1425 -0.2762 -0.1381
  922YOPE   C1B13899   5.190   4.560   6.588  0.1376 -0.0546  0.0834
  922YOPE   C2B13900   5.356   4.398   6.982 -0.1203  0.2022  0.0846
  922YOPE   D3B13901   5.729   4.316   7.296 -0.0911 -0.3078  0.0233
  922YOPE   C4B13902   5.918   4.341   7.733 -0.0321  0.0060  0.1605
  923YOPE   NH313903   7.893  17.215   5.913 -0.1391  0.3307 -0.0423
  923YOPE   PO413904   8.160  17.507   5.906  0.1124  0.0801  0.0114
  923YOPE   GL113905   8.118  17.817   6.230  0.0598  0.0895 -0.0262
  923YOPE   GL213906   8.498  17.921   6.278 -0.2183 -0.0809 -0.0294
  923YOPE   C1A13907   8.121  17.814   6.652 -0.0079 -0.0614  0.2140
  923YOPE   D2A13908   8.170  17.870   7.110 -0.1235  0.1029  0.0639
  923YOPE   C3A13909   7.985  18.031   7.506  0.0032 -0.2687  0.0120
  923YOPE   C4A13910   7.581  18.228   7.622 -0.0464  0.2745 -0.0482
  923YOPE   C1B13911   8.448  18.206   6.656 -0.2536  0.2542 -0.1534
  923YOPE   C2B13912   8.452  18.285   7.099 -0.0200  0.3421 -0.0707
  923YOPE   D3B13913   8.451  18.253   7.602  0.2959 -0.0859  0.1812
  923YOPE   C4B13914   8.231  18.038   7.966 -0.5957 -0.0343  0.2070
  924YOPE   NH313915  12.704   4.287   5.878  0.2114  0.0795  0.2703
  924YOPE   PO413916  12.802   4.814   5.883  0.1426 -0.0100 -0.1019
  924YOPE   GL113917  12.792   4.758   6.313  0.0570 -0.2887  0.1274
  924YOPE   GL213918  12.921   4.473   6.378  0.0391  0.2170 -0.2347
  924YOPE   C1A13919  12.763   4.879   6.781 -0.0999  0.1741 -0.1822
  924YOPE   D2A13920  12.815   4.718   7.171  0.1662  0.0123  0.0209
  924YOPE   C3A13921  12.548   4.377   7.389  0.2261 -0.2033  0.3372
  924YOPE   C4A13922  12.419   3.995   7.662 -0.1606  0.1911  0.3941
  924YOPE   C1B13923  12.733   4.391   6.780  0.1670 -0.3295  0.1681
  924YOPE   C2B13924  12.380   4.224   6.955  0.1891  0.0441  0.1039
  924YOPE   D3B13925  12.423   3.750   7.192 -0.0004 -0.2369  0.1214
  924YOPE   C4B13926  12.674   3.453   7.491 -0.1558 -0.1442 -0.3795
  925YOPE   NH313927   4.137   6.594   6.311  0.1465  0.1348  0.2775
  925YOPE   PO413928   4.097   6.123   6.168 -0.3419 -0.1402 -0.2072
  925YOPE   GL113929   3.853   6.124   6.512 -0.0443  0.0936 -0.1194
  925YOPE   GL213930   3.865   5.847   6.562  0.0297  0.3056  0.2767
  925YOPE   C1A13931   3.762   6.058   6.993  0.1159  0.1663  0.0635
  925YOPE   D2A13932   3.914   6.029   7.349  0.0091  0.2263 -0.0132
  925YOPE   C3A13933   4.362   5.869   7.429 -0.0814 -0.0238  0.1776
  925YOPE   C4A13934   4.661   5.841   7.774 -0.2312  0.0454 -0.1674
  925YOPE   C1B13935   4.110   5.610   6.561 -0.0615 -0.1023 -0.0106
  925YOPE   C2B13936   4.174   5.239   6.743  0.0687  0.0253  0.4978
  925YOPE   D3B13937   4.237   4.793   7.077  0.0800  0.2231  0.1079
  925YOPE   C4B13938   4.453   4.644   7.465  0.1362 -0.0833  0.0726
  926YOPE   NH313939  11.718   7.013   5.884  0.0381  0.0359 -0.2517
  926YOPE   PO413940  11.707   6.623   6.137  0.0108  0.2239  0.1399
  926YOPE   GL113941  11.869   6.632   6.505 -0.0140 -0.0533 -0.0121
  926YOPE   GL213942  12.242   6.550   6.630 -0.1097  0.0731 -0.0337
  926YOPE   C1A13943  11.904   6.886   6.890  0.4050  0.2104 -0.1408
  926YOPE   D2A13944  11.962   7.143   7.282  0.0711  0.0533  0.1767
  926YOPE   C3A13945  12.076   6.846   7.606 -0.0005  0.0344 -0.0487
  926YOPE   C4A13946  12.104   6.756   8.094 -0.0593  0.0977  0.1217
  926YOPE   C1B13947  11.862   6.311   6.893  0.1705  0.3876 -0.2608
  926YOPE   C2B13948  11.542   6.198   7.210 -0.2334 -0.1517  0.1697
  926YOPE   D3B13949  11.097   6.287   7.303 -0.2409  0.1872 -0.2016
  926YOPE   C4B13950  10.834   6.371   7.655  0.1344  0.0616  0.1824
  927YOPE   NH313951  12.056  14.302   5.763 -0.0007 -0.2035 -0.2032
  927YOPE   PO413952  12.226  14.723   5.827 -0.3562 -0.0205  0.1079
  927YOPE   GL113953  12.356  14.875   6.230 -0.1277  0.1169 -0.1330
  927YOPE   GL213954  12.538  15.071   6.339  0.0671 -0.2326  0.1671
  927YOPE   C1A13955  12.151  14.712   6.555  0.3252 -0.0591 -0.0535
  927YOPE   D2A13956  11.964  14.824   6.969  0.2247 -0.1806  0.0549
  927YOPE   C3A13957  11.681  14.491   7.297  0.0744  0.1590  0.1552
  927YOPE   C4A13958  11.489  14.154   7.494  0.2322 -0.0522  0.0643
  927YOPE   C1B13959  12.339  15.175   6.723  0.0144  0.0227  0.0449
  927YOPE   C2B13960  12.172  15.218   7.133 -0.1404 -0.2784  0.1651
  927YOPE   D3B13961  11.931  15.136   7.548 -0.0633  0.0235  0.3642
  927YOPE   C4B13962  11.499  15.131   7.777 -0.0936 -0.1844  0.1219
  928YOPE   NH313963   5.871   6.018   5.734 -0.3569 -0.1982  0.0481
  928YOPE   PO413964   6.328   6.164   5.778 -0.0359  0.1395 -0.0613
  928YOPE   GL113965   6.229   5.845   6.148 -0.1442 -0.1162  0.2393
  928YOPE   GL213966   6.546   5.692   6.278 -0.0601  0.2430  0.1564
  928YOPE   C1A13967   5.989   5.623   6.309 -0.3617  0.2814 -0.2587
  928YOPE   D2A13968   5.682   5.546   6.626  0.0782 -0.1434  0.0729
  928YOPE   C3A13969   5.862   5.349   6.956 -0.1522 -0.0235 -0.2088
  928YOPE   C4A13970   5.663   5.152   7.315  0.0190 -0.1002 -0.1122
  928YOPE   C1B13971   6.423   5.718   6.721 -0.1120  0.0875 -0.1655
  928YOPE   C2B13972   6.522   5.650   7.172 -0.0471  0.0835  0.0936
  928YOPE   D3B13973   6.500   5.643   7.606 -0.1559  0.3696  0.0257
  928YOPE   C4B13974   6.375   5.259   7.781  0.2766 -0.0709  0.0592
  929YOPE   NH313975  14.543  12.637   5.937  0.1391 -0.0690  0.1735
  929YOPE   PO413976  14.773  13.006   6.076 -0.1085 -0.0190  0.0928
  929YOPE   GL113977  14.730  13.217   6.419 -0.1493  0.0219 -0.1451
  929YOPE   GL213978  15.058  13.115   6.536  0.1935  0.0382  0.0923
  929YOPE   C1A13979  14.442  13.061   6.750  0.0987  0.2864 -0.2913
  929YOPE   D2A13980  14.198  12.888   6.959  0.4431  0.1720 -0.0140
  929YOPE   C3A13981  14.249  12.800   7.426  0.0748 -0.1290  0.1669
  929YOPE   C4A13982  14.170  12.836   7.828  0.0894  0.1274 -0.2125
  929YOPE   C1B13983  14.878  12.934   6.935  0.0851 -0.2288  0.0001
  929YOPE   C2B13984  14.987  12.729   7.327 -0.3760  0.1563  0.0307
  929YOPE   D3B13985  15.014  12.457   7.689 -0.0752  0.1924 -0.1237
  929YOPE   C4B13986  15.010  12.138   8.092 -0.0576  0.1213  0.1050
  930YOPE   NH313987  15.032  16.965   5.552 -0.0332 -0.2584  0.1818
  930YOPE   PO413988  14.639  17.014   5.518 -0.1919 -0.1486 -0.1228
  930YOPE   GL113989  14.378  17.172   5.909  0.0932  0.1272 -0.2703
  930YOPE   GL213990  14.608  17.142   6.261  0.4102 -0.0385  0.0925
  930YOPE   C1A13991  14.049  17.109   6.187 -0.3576  0.1133  0.1541
  930YOPE   D2A13992  13.679  16.875   6.402 -0.0566  0.0128  0.1100
  930YOPE   C3A13993  13.519  16.835   6.732  0.3947 -0.0128  0.1286
  930YOPE   C4A13994  13.055  16.849   6.936 -0.0111  0.1667  0.0180
  930YOPE   C1B13995  14.322  17.441   6.414  0.2095  0.2251 -0.1626
  930YOPE   C2B13996  14.215  17.589   6.857 -0.2130 -0.1195  0.3387
  930YOPE   D3B13997  13.921  17.787   7.151  0.0035  0.0042  0.1432
  930YOPE   C4B13998  14.063  18.141   7.497  0.3605  0.0219 -0.0635
  931YOPE   NH313999   4.332   9.053   5.800  0.1606 -0.1704 -0.0193
  931YOPE   PO414000   4.164   9.369   6.050  0.3308 -0.0620  0.3693
  931YOPE   GL114001   4.139   9.305   6.452  0.0525  0.0991 -0.0882
  931YOPE   GL214002   4.077   9.045   6.550 -0.1955 -0.1626 -0.0519
  931YOPE   C1A14003   3.991   9.581   6.765  0.0086  0.1018 -0.0453
  931YOPE   D2A14004   3.985   9.615   7.193  0.0953  0.0946  0.0630
  931YOPE   C3A14005   4.077   9.871   7.559  0.2543 -0.0349 -0.1165
  931YOPE   C4A14006   4.182  10.345   7.622 -0.1309  0.1722  0.2276
  931YOPE   C1B14007   3.981   9.118   6.925 -0.1380 -0.3248  0.0519
  931YOPE   C2B14008   3.857   9.131   7.334  0.1992  0.1187  0.1281
  931YOPE   D3B14009   3.592   9.089   7.751 -0.2582  0.1355  0.2660
  931YOPE   C4B14010   3.645   9.206   8.156  0.0158 -0.1508  0.0330
  932YOPE   NH314011  10.212  10.526   5.873 -0.1202 -0.2797  0.1270
  932YOPE   PO414012  10.496  10.973   5.871  0.2055 -0.0863 -0.1106
  932YOPE   GL114013  10.401  11.055   6.267 -0.0994  0.1761 -0.0219
  932YOPE   GL214014  10.550  11.389   6.343 -0.0854  0.1388  0.0340
  932YOPE   C1A14015  10.193  10.867   6.574 -0.0322 -0.2141 -0.0441
  932YOPE   D2A14016  10.015  10.906   7.017  0.1986  0.0222 -0.0734
  932YOPE   C3A14017  10.260  10.961   7.400  0.0035 -0.0092 -0.0532
  932YOPE   C4A14018  10.370  11.119   7.824  0.4504 -0.2276 -0.2830
  932YOPE   C1B14019  10.642  11.566   6.767  0.0432  0.0409  0.1618
  932YOPE   C2B14020  10.667  11.747   7.214 -0.0288  0.0578 -0.5487
  932YOPE   D3B14021  10.928  11.784   7.572  0.1958  0.1475  0.1931
  932YOPE   C4B14022  10.956  11.999   7.893 -0.1183 -0.0784 -0.0843
  933YOPE   NH314023  17.506  14.684   5.823  0.0498  0.1631 -0.1035
  933YOPE   PO414024  17.031  14.650   5.729 -0.1751  0.3778 -0.0523
  933YOPE   GL114025  17.098  14.689   6.132 -0.1693 -0.2577 -0.1654
  933YOPE   GL214026  17.147  15.089   6.195  0.2639  0.0241  0.2235
  933YOPE   C1A14027  16.923  14.512   6.509 -0.1579 -0.0209  0.2234
  933YOPE   D2A14028  16.622  14.153   6.500  0.2508  0.0433 -0.1104
  933YOPE   C3A14029  16.405  14.055   6.776 -0.1668 -0.0721 -0.0123
  933YOPE   C4A14030  16.111  13.675   6.792 -0.0011 -0.0103 -0.0241
  933YOPE   C1B14031  16.939  15.030   6.490 -0.1187  0.3293  0.0706
  933YOPE   C2B14032  16.985  14.826   6.942  0.0983 -0.0804  0.2128
  933YOPE   D3B14033  16.641  14.516   6.977 -0.1165 -0.1388 -0.1374
  933YOPE   C4B14034  16.434  14.216   7.271  0.0533  0.1915 -0.1254
  934YOPE   NH314035  13.149   2.832   5.754 -0.0565 -0.1583 -0.5020
  934YOPE   PO414036  13.238   3.316   5.783 -0.1579  0.0020 -0.3290
  934YOPE   GL114037  13.447   3.308   6.223 -0.0386 -0.1111  0.2858
  934YOPE   GL214038  13.481   3.625   6.323 -0.0191  0.4821  0.3604
  934YOPE   C1A14039  13.559   3.301   6.690  0.3856 -0.3694  0.1495
  934YOPE   D2A14040  13.974   3.345   6.838 -0.0659  0.0451 -0.3442
  934YOPE   C3A14041  14.095   3.399   7.247 -0.3038 -0.1361  0.0471
  934YOPE   C4A14042  14.286   3.696   7.516  0.2653  0.3041 -0.1729
  934YOPE   C1B14043  13.228   3.745   6.686 -0.4809 -0.0294 -0.0290
  934YOPE   C2B14044  13.224   3.694   7.108 -0.1816 -0.2128 -0.1635
  934YOPE   D3B14045  13.178   3.504   7.621 -0.1028 -0.4059  0.1053
  934YOPE   C4B14046  12.950   3.174   7.848 -0.0807  0.0835  0.1252
  935YOPE   NH314047   3.331  12.506   6.348  0.0386 -0.0848 -0.0784
  935YOPE   PO414048   3.277  11.990   6.468  0.0180 -0.0887 -0.2214
  935YOPE   GL114049   3.414  11.868   6.846  0.0421  0.0157  0.0830
  935YOPE   GL214050   3.190  11.636   6.848 -0.0679 -0.1131  0.1343
  935YOPE   C1A14051   3.282  11.940   7.298 -0.0991 -0.0531  0.1038
  935YOPE   D2A14052   3.340  11.992   7.844  0.0701 -0.0121 -0.1747
  935YOPE   C3A14053   3.007  12.134   8.130 -0.1525 -0.2238  0.3133
  935YOPE   C4A14054   2.632  12.309   8.347 -0.0277 -0.3653 -0.1439
  935YOPE   C1B14055   3.175  11.430   7.158  0.2718 -0.0234  0.0762
  935YOPE   C2B14056   3.290  11.425   7.577  0.0210 -0.1341  0.1133
  935YOPE   D3B14057   2.983  11.162   7.716 -0.3530 -0.0152  0.0265
  935YOPE   C4B14058   2.986  10.802   7.981  0.0503 -0.0101  0.2680
  936YOPE   NH314059   4.094   1.205   5.384  0.0198  0.1530 -0.1336
  936YOPE   PO414060   3.676   1.383   5.384 -0.0802  0.1337  0.1308
  936YOPE   GL114061   3.752   1.514   5.904  0.1818  0.1878 -0.0502
  936YOPE   GL214062   3.505   1.317   6.141 -0.2667  0.0311  0.1653
  936YOPE   C1A14063   3.768   1.717   6.286  0.1580 -0.0708  0.0143
  936YOPE   D2A14064   3.846   1.775   6.675 -0.2996 -0.0997 -0.0114
  936YOPE   C3A14065   3.759   2.025   7.078 -0.1205  0.0009 -0.0373
  936YOPE   C4A14066   3.814   2.367   7.361 -0.3951  0.0867 -0.0472
  936YOPE   C1B14067   3.745   1.021   6.341 -0.1649  0.2255 -0.1789
  936YOPE   C2B14068   3.931   1.235   6.748 -0.0317  0.0423 -0.0827
  936YOPE   D3B14069   3.968   1.093   7.132  0.3994 -0.0816  0.2165
  936YOPE   C4B14070   4.072   1.154   7.552  0.1667 -0.2082 -0.0733
  937YOPE   NH314071   6.696   2.543   5.992  0.1731 -0.1978  0.2075
  937YOPE   PO414072   6.491   2.890   5.857 -0.5054 -0.0132 -0.0726
  937YOPE   GL114073   6.444   3.069   6.241  0.1519  0.1987  0.1552
  937YOPE   GL214074   6.603   3.426   6.181 -0.1507  0.1588 -0.1040
  937YOPE   C1A14075   6.298   3.108   6.689  0.1459  0.1225 -0.2503
  937YOPE   D2A14076   6.379   3.046   7.045  0.0230  0.3974  0.2215
  937YOPE   C3A14077   6.215   3.117   7.352  0.1611  0.1231 -0.2183
  937YOPE   C4A14078   6.320   3.065   7.874  0.0820  0.1435 -0.0333
  937YOPE   C1B14079   6.556   3.558   6.635  0.1755  0.4041 -0.2282
  937YOPE   C2B14080   6.462   3.583   7.068 -0.1167  0.0241 -0.0439
  937YOPE   D3B14081   6.257   3.576   7.488 -0.0117 -0.0941 -0.1094
  937YOPE   C4B14082   5.950   3.353   7.803  0.0689  0.1201  0.0973
  938YOPE   NH314083   7.787   4.850   6.200  0.0406 -0.1020  0.1178
  938YOPE   PO414084   7.532   4.500   6.156  0.3433 -0.0151  0.0008
  938YOPE   GL114085   7.547   4.500   6.533  0.3007  0.0846  0.1962
  938YOPE   GL214086   7.766   4.285   6.540  0.2645 -0.0550  0.0391
  938YOPE   C1A14087   7.345   4.520   6.938 -0.1304  0.1189 -0.0453
  938YOPE   D2A14088   7.342   4.231   7.182  0.1234 -0.1467  0.2886
  938YOPE   C3A14089   7.209   3.923   7.459 -0.2894  0.0894 -0.0120
  938YOPE   C4A14090   7.073   3.544   7.718  0.2019  0.0303  0.2576
  938YOPE   C1B14091   7.856   4.438   6.886 -0.0884 -0.1752 -0.0554
  938YOPE   C2B14092   7.785   4.528   7.289  0.2133  0.0185  0.3560
  938YOPE   D3B14093   7.821   4.627   7.730  0.0464  0.0130 -0.1645
  938YOPE   C4B14094   7.882   4.956   7.908 -0.0518 -0.0707  0.1718
  939YOPE   NH314095   8.515  17.159   6.033  0.0587  0.3141 -0.1891
  939YOPE   PO414096   8.945  17.195   5.944 -0.3198  0.0497  0.0517
  939YOPE   GL114097   9.028  17.051   6.389 -0.5096  0.1738 -0.0826
  939YOPE   GL214098   8.850  17.095   6.511  0.3648  0.0834 -0.2665
  939YOPE   C1A14099   9.249  17.000   6.723 -0.0031 -0.0653 -0.0011
  939YOPE   D2A14100   9.176  16.925   7.166 -0.2257 -0.0038  0.2097
  939YOPE   C3A14101   9.386  17.064   7.394 -0.0246 -0.0386  0.0372
  939YOPE   C4A14102   9.814  16.891   7.732 -0.2506  0.1344  0.1491
  939YOPE   C1B14103   8.866  17.264   6.900 -0.1701 -0.2005 -0.2108
  939YOPE   C2B14104   8.892  17.347   7.275 -0.0023 -0.2615 -0.2315
  939YOPE   D3B14105   9.056  17.453   7.646 -0.0897 -0.0380  0.0083
  939YOPE   C4B14106   9.105  17.627   7.967  0.1213 -0.0957 -0.0267
  940YOPE   NH314107   6.341  17.100   6.070  0.0632 -0.4430  0.0434
  940YOPE   PO414108   6.589  17.443   5.814 -0.0226 -0.0819  0.0407
  940YOPE   GL114109   6.713  17.388   6.199  0.0835 -0.0623  0.1346
  940YOPE   GL214110   6.704  17.714   6.302  0.0055  0.1286  0.1607
  940YOPE   C1A14111   6.857  17.137   6.583 -0.2104  0.0690  0.1271
  940YOPE   D2A14112   6.602  16.912   6.777  0.3170 -0.0836  0.0003
  940YOPE   C3A14113   6.200  16.732   6.685 -0.0965  0.3063  0.1661
  940YOPE   C4A14114   5.850  16.760   6.535 -0.0075 -0.1721  0.0030
  940YOPE   C1B14115   6.599  17.558   6.715  0.1570 -0.1710  0.1601
  940YOPE   C2B14116   6.613  17.306   7.098  0.0017  0.1371  0.1148
  940YOPE   D3B14117   6.671  16.900   7.296  0.0536  0.1318  0.3453
  940YOPE   C4B14118   6.818  16.768   7.655  0.0479 -0.0571 -0.1209
  941YOPE   NH314119   5.732   7.085   5.665 -0.1528  0.0786  0.0317
  941YOPE   PO414120   5.433   6.853   5.977 -0.1650 -0.0000 -0.3527
  941YOPE   GL114121   5.577   6.773   6.244  0.0750 -0.2108  0.0669
  941YOPE   GL214122   5.861   6.728   6.279  0.0378  0.0556  0.0086
  941YOPE   C1A14123   5.546   6.500   6.719 -0.1921 -0.0260 -0.2203
  941YOPE   D2A14124   5.719   6.448   7.034  0.0075  0.0096  0.2003
  941YOPE   C3A14125   5.632   6.163   7.426 -0.3640  0.2333 -0.0132
  941YOPE   C4A14126   5.617   6.261   7.882  0.0023 -0.1459 -0.1809
  941YOPE   C1B14127   6.049   6.619   6.569 -0.0977 -0.0237  0.0851
  941YOPE   C2B14128   6.206   6.608   6.913  0.1525  0.0169 -0.1033
  941YOPE   D3B14129   6.198   6.473   7.305  0.0319  0.2479  0.2146
  941YOPE   C4B14130   6.092   6.418   7.661 -0.0344  0.2347  0.1432
  942YOPE   NH314131   7.188   8.983   5.908  0.0390 -0.2825  0.1968
  942YOPE   PO414132   7.582   9.265   6.141 -0.0107 -0.3545 -0.1249
  942YOPE   GL114133   7.400   9.077   6.363 -0.0631  0.0553  0.0568
  942YOPE   GL214134   7.696   8.998   6.602  0.0512 -0.1649  0.0166
  942YOPE   C1A14135   7.123   8.885   6.706 -0.2638  0.0656  0.1590
  942YOPE   D2A14136   7.113   8.593   6.972 -0.1641 -0.1833 -0.1152
  942YOPE   C3A14137   7.068   8.591   7.397  0.0818 -0.2992  0.0656
  942YOPE   C4A14138   7.375   8.674   7.770  0.3191 -0.1965  0.2083
  942YOPE   C1B14139   7.962   9.194   6.894 -0.0153  0.0934 -0.0253
  942YOPE   C2B14140   7.895   9.053   7.245  0.1038  0.0134  0.2337
  942YOPE   D3B14141   7.958   9.308   7.686  0.3308 -0.3135 -0.0373
  942YOPE   C4B14142   8.199   9.193   8.044 -0.3354  0.0832 -0.1039
  943YOPE   NH314143  10.043  16.257   6.113  0.2514 -0.1484 -0.0510
  943YOPE   PO414144   9.860  15.890   5.952  0.1191 -0.1957 -0.1093
  943YOPE   GL114145   9.691  15.976   6.351 -0.1642  0.1310 -0.1320
  943YOPE   GL214146  10.059  15.913   6.499 -0.1806 -0.1038  0.1245
  943YOPE   C1A14147   9.441  15.735   6.585  0.0038  0.0155 -0.0161
  943YOPE   D2A14148   9.332  15.455   6.815 -0.3504 -0.3432 -0.0432
  943YOPE   C3A14149   9.488  15.283   7.165 -0.0202 -0.1231 -0.0057
  943YOPE   C4A14150   9.507  15.264   7.689 -0.2308  0.0883  0.0627
  943YOPE   C1B14151  10.367  15.553   6.729  0.0657 -0.3188  0.3595
  943YOPE   C2B14152  10.410  15.408   7.169 -0.2352 -0.0038  0.1312
  943YOPE   D3B14153   9.966  15.438   7.374  0.4654 -0.0336 -0.0375
  943YOPE   C4B14154   9.759  15.730   7.619 -0.1191 -0.2214 -0.0278
  944POPC   NC314155   8.252  13.465   6.109 -0.1712 -0.1320  0.0171
  944POPC   PO414156   8.497  13.137   5.887 -0.1517 -0.0838  0.0702
  944POPC   GL114157   8.459  12.964   6.295  0.0527 -0.0727 -0.0783
  944POPC   GL214158   8.175  13.058   6.496  0.0803 -0.1246  0.3362
  944POPC   C1A14159   8.455  12.647   6.643  0.0268 -0.1969 -0.0289
  944POPC   D2A14160   8.536  12.578   6.981  0.1699 -0.0669 -0.1160
  944POPC   C3A14161   8.266  12.449   7.363 -0.2462 -0.0822 -0.0474
  944POPC   C4A14162   8.250  12.448   7.884 -0.0132  0.2715  0.0636
  944POPC   C1B14163   8.186  13.237   6.942 -0.1080 -0.0382 -0.0912
  944POPC   C2B14164   8.003  13.503   7.416  0.1506 -0.3191  0.1015
  944POPC   C3B14165   8.077  13.307   7.745  0.2007  0.0925 -0.0388
  944POPC   C4B14166   8.205  12.979   8.064 -0.3670  0.1358 -0.1514
  945POPC   NC314167  12.449  13.217   5.735  0.0350  0.0163 -0.0159
  945POPC   PO414168  12.440  12.747   5.779  0.0625  0.0810  0.2410
  945POPC   GL114169  12.141  12.698   6.193  0.1202 -0.0753 -0.1431
  945POPC   GL214170  11.793  12.838   6.260  0.0668  0.1340 -0.0808
  945POPC   C1A14171  11.960  12.370   6.514  0.4150 -0.0511  0.2824
  945POPC   D2A14172  11.903  12.073   6.882  0.2346  0.3071  0.1966
  945POPC   C3A14173  12.190  12.112   7.304  0.4531  0.1264  0.4219
  945POPC   C4A14174  12.314  12.094   7.797 -0.0804 -0.0335  0.0777
  945POPC   C1B14175  11.568  12.823   6.696 -0.1177  0.2956  0.0491
  945POPC   C2B14176  11.517  12.938   7.004  0.2810 -0.2533  0.1312
  945POPC   C3B14177  11.575  13.190   7.408  0.0663 -0.1231  0.3574
  945POPC   C4B14178  11.425  13.253   7.893 -0.3001  0.0926  0.1722
  946POPC   NC314179   8.232   6.979   5.695  0.0923  0.1715  0.2649
  946POPC   PO414180   7.768   6.965   5.604  0.0914 -0.0098 -0.2512
  946POPC   GL114181   7.716   6.916   6.032 -0.0222  0.0201  0.1686
  946POPC   GL214182   8.061   6.833   6.129  0.3581 -0.1205  0.0417
  946POPC   C1A14183   7.554   6.698   6.478 -0.0436  0.0989 -0.3134
  946POPC   D2A14184   7.621   6.577   6.756  0.1104 -0.1179 -0.0752
  946POPC   C3A14185   7.703   6.590   7.183 -0.1494  0.2644 -0.0698
  946POPC   C4A14186   7.692   6.656   7.595 -0.2580 -0.0636 -0.0316
  946POPC   C1B14187   8.074   6.732   6.571 -0.2450 -0.0449  0.1672
  946POPC   C2B14188   8.238   6.631   7.049 -0.1657 -0.0516  0.1928
  946POPC   C3B14189   8.264   6.569   7.473 -0.0684  0.1402  0.3091
  946POPC   C4B14190   8.480   6.446   7.857  0.2425  0.0928  0.0602
  947POPC   NC314191  16.210   2.906   5.896  0.0255  0.0862 -0.0257
  947POPC   PO414192  16.440   3.305   5.851  0.1019  0.1238  0.2288
  947POPC   GL114193  16.242   3.306   6.344  0.0018 -0.1184 -0.0542
  947POPC   GL214194  16.427   3.306   6.554 -0.3693 -0.0087  0.2580
  947POPC   C1A14195  15.964   3.089   6.700  0.3068 -0.1321 -0.0625
  947POPC   D2A14196  15.609   2.995   6.973  0.0393  0.0051 -0.1097
  947POPC   C3A14197  15.573   3.038   7.427 -0.0482 -0.0409 -0.0263
  947POPC   C4A14198  15.371   2.941   7.792 -0.1633  0.0970 -0.1321
  947POPC   C1B14199  16.875   3.161   6.558  0.1364  0.1956  0.1308
  947POPC   C2B14200  17.325   3.152   6.675  0.1176 -0.0055 -0.1832
  947POPC   C3B14201  17.705   3.323   6.548  0.0210 -0.0123 -0.2742
  947POPC   C4B14202  17.686   3.732   6.654  0.2261  0.0807  0.1476
  948POPC   NC314203   9.400   0.588   5.345 -0.0046  0.0904  0.0718
  948POPC   PO414204   9.140   0.891   5.329  0.0316 -0.1167  0.0523
  948POPC   GL114205   9.070   0.959   5.749 -0.0489  0.1166 -0.0154
  948POPC   GL214206   8.953   1.301   5.749 -0.2723 -0.0964  0.1014
  948POPC   C1A14207   9.065   1.031   6.229  0.3827 -0.1326 -0.1367
  948POPC   D2A14208   9.248   1.132   6.499  0.2972 -0.0961 -0.2330
  948POPC   C3A14209   9.199   0.948   6.860 -0.1611 -0.1039  0.0685
  948POPC   C4A14210   9.316   1.189   7.235  0.2249 -0.2048 -0.1381
  948POPC   C1B14211   8.712   1.412   6.140 -0.0566 -0.1455 -0.3395
  948POPC   C2B14212   8.714   1.189   6.628  0.1483 -0.4379  0.1550
  948POPC   C3B14213   8.813   1.152   7.093 -0.0869  0.1146 -0.0589
  948POPC   C4B14214   8.893   0.967   7.426 -0.1503  0.2572 -0.0452
  949POPC   NC314215   4.010   6.499   5.781 -0.3172  0.0072  0.1313
  949POPC   PO414216   3.665   6.516   6.099  0.3423 -0.0479 -0.3805
  949POPC   GL114217   3.642   6.647   6.525 -0.0862 -0.0086  0.1871
  949POPC   GL214218   3.568   7.083   6.545 -0.0289  0.2871 -0.0173
  949POPC   C1A14219   3.884   6.612   6.908  0.2195  0.0289 -0.1240
  949POPC   D2A14220   4.180   6.539   7.217  0.2260  0.1408  0.0761
  949POPC   C3A14221   4.064   6.470   7.532  0.2381 -0.1375 -0.0351
  949POPC   C4A14222   3.724   6.563   7.768 -0.0423 -0.1326 -0.3095
  949POPC   C1B14223   3.457   6.877   6.918 -0.0562 -0.2586  0.1108
  949POPC   C2B14224   3.457   6.587   7.259  0.0767  0.0397  0.0773
  949POPC   C3B14225   3.243   6.409   7.601 -0.0025 -0.2938 -0.0467
  949POPC   C4B14226   2.966   6.510   7.938 -0.1779 -0.0036 -0.1138
  950POPC   NC314227   8.411  14.636   5.811 -0.1902  0.1111 -0.3665
  950POPC   PO414228   8.242  15.028   5.854  0.1804 -0.0217 -0.0186
  950POPC   GL114229   8.049  14.926   6.205 -0.0306  0.1269 -0.3096
  950POPC   GL214230   8.062  14.574   6.234  0.0517 -0.1420  0.3332
  950POPC   C1A14231   8.032  14.977   6.653 -0.1398  0.1738 -0.3312
  950POPC   D2A14232   8.051  14.876   7.081  0.1722  0.2500  0.1007
  950POPC   C3A14233   7.880  15.240   7.219 -0.4271  0.1345 -0.2414
  950POPC   C4A14234   7.746  15.225   7.659 -0.0134  0.2169 -0.0027
  950POPC   C1B14235   8.080  14.411   6.723  0.0786 -0.1032  0.0302
  950POPC   C2B14236   8.314  14.466   7.138  0.1183  0.2178  0.0012
  950POPC   C3B14237   8.641  14.532   7.443 -0.2224  0.0356 -0.3619
  950POPC   C4B14238   8.728  14.155   7.728  0.0179  0.0353  0.2436
  951POPC   NC314239   2.516  12.925   6.274 -0.2825  0.0330 -0.2685
  951POPC   PO414240   2.170  12.976   6.121 -0.0439 -0.1308 -0.2442
  951POPC   GL114241   2.034  13.022   6.535  0.2782 -0.0763 -0.3429
  951POPC   GL214242   2.087  13.380   6.538  0.0126  0.0045 -0.0706
  951POPC   C1A14243   1.940  12.759   6.943  0.2347 -0.3074 -0.0053
  951POPC   D2A14244   1.756  12.729   7.420 -0.0949  0.2931  0.2422
  951POPC   C3A14245   1.627  12.564   7.772  0.0225  0.1820  0.1456
  951POPC   C4A14246   1.704  12.336   8.088 -0.2197 -0.1732 -0.1452
  951POPC   C1B14247   2.233  13.294   6.983 -0.0718 -0.0094  0.1908
  951POPC   C2B14248   1.984  13.296   7.332 -0.2996  0.1076 -0.1285
  951POPC   C3B14249   1.832  13.159   7.735 -0.3016  0.0223  0.2439
  951POPC   C4B14250   1.587  13.060   8.007  0.0316 -0.1522  0.1272
  952POPC   NC314251  16.308   6.920   5.882  0.2366  0.0390 -0.1151
  952POPC   PO414252  16.405   6.461   5.987  0.0847 -0.1094 -0.0594
  952POPC   GL114253  16.212   6.687   6.278  0.1685 -0.1263  0.1949
  952POPC   GL214254  15.973   6.642   6.257  0.0784  0.1603 -0.4489
  952POPC   C1A14255  16.334   6.816   6.605 -0.3501  0.1064 -0.2439
  952POPC   D2A14256  16.189   6.883   6.929  0.1485 -0.0242  0.1357
  952POPC   C3A14257  16.149   7.048   7.280  0.0224  0.2338 -0.2608
  952POPC   C4A14258  15.993   6.994   7.756 -0.1684 -0.2830 -0.0769
  952POPC   C1B14259  15.813   6.820   6.618 -0.1024  0.0438 -0.0933
  952POPC   C2B14260  15.699   6.851   7.070  0.0825 -0.0269 -0.2052
  952POPC   C3B14261  15.606   6.829   7.422 -0.0722 -0.0190  0.1168
  952POPC   C4B14262  15.586   6.603   7.815 -0.2702 -0.0847  0.0935
  953POPC   NC314263   7.826  11.200   5.924 -0.1094 -0.0368 -0.0813
  953POPC   PO414264   7.465  11.237   6.132  0.1048 -0.0325 -0.3260
  953POPC   GL114265   7.446  11.105   6.514  0.1567 -0.2683 -0.1524
  953POPC   GL214266   7.380  10.852   6.411  0.0105  0.1506  0.0582
  953POPC   C1A14267   7.231  11.114   7.007  0.0500 -0.0429  0.1216
  953POPC   D2A14268   7.360  11.265   7.341  0.1809  0.1306  0.1664
  953POPC   C3A14269   7.403  11.217   7.740 -0.1113 -0.2172 -0.1705
  953POPC   C4A14270   7.669  11.516   7.904 -0.0754 -0.1720 -0.0389
  953POPC   C1B14271   7.476  10.686   6.855  0.0738 -0.1455  0.0839
  953POPC   C2B14272   7.698  10.352   7.148 -0.1405  0.3042  0.0377
  953POPC   C3B14273   7.600  10.274   7.628 -0.1176 -0.2174  0.0416
  953POPC   C4B14274   7.645  10.073   7.949 -0.1732  0.1868 -0.1516
  954POPC   NC314275  16.607  15.486   5.632  0.0440 -0.2283 -0.1178
  954POPC   PO414276  16.233  15.645   5.572  0.1071  0.1709 -0.2181
  954POPC   GL114277  16.152  15.817   5.974  0.2234  0.3352  0.1986
  954POPC   GL214278  16.472  15.706   6.041 -0.1517 -0.1246 -0.1389
  954POPC   C1A14279  15.949  15.686   6.275  0.0560  0.0641 -0.0269
  954POPC   D2A14280  15.834  15.412   6.600  0.1857 -0.2150  0.2363
  954POPC   C3A14281  15.452  15.445   6.913 -0.0175  0.0740  0.0880
  954POPC   C4A14282  15.091  15.234   6.900  0.1142 -0.1572 -0.0342
  954POPC   C1B14283  16.482  15.871   6.527 -0.0916  0.1813 -0.0771
  954POPC   C2B14284  16.539  15.982   7.007 -0.3152  0.2021 -0.1029
  954POPC   C3B14285  16.675  16.081   7.407 -0.2397 -0.2763 -0.0314
  954POPC   C4B14286  16.772  15.951   7.845 -0.1835 -0.1723  0.0930
  955POPC   NC314287   3.044  14.129   6.148  0.1076  0.0535  0.1329
  955POPC   PO414288   3.126  14.453   6.009  0.1081 -0.0737  0.3028
  955POPC   GL114289   3.084  14.526   6.463 -0.2787  0.0447 -0.1040
  955POPC   GL214290   2.835  14.319   6.561  0.1364  0.0935 -0.2487
  955POPC   C1A14291   3.392  14.547   6.761 -0.1433  0.0249 -0.1571
  955POPC   D2A14292   3.515  14.744   7.162  0.0355  0.1392 -0.0874
  955POPC   C3A14293   3.639  14.755   7.547  0.2074  0.5524 -0.0772
  955POPC   C4A14294   3.505  14.848   7.953 -0.0024 -0.0924 -0.4171
  955POPC   C1B14295   2.957  14.477   7.015  0.2939  0.0590  0.2130
  955POPC   C2B14296   3.122  14.562   7.434 -0.0796 -0.1285 -0.0623
  955POPC   C3B14297   2.937  14.612   7.916 -0.0157  0.0226  0.1857
  955POPC   C4B14298   2.853  14.546   8.312  0.2092 -0.1185  0.2544
  956POPC   NC314299   0.928   7.300   5.672  0.1517  0.0791 -0.0797
  956POPC   PO414300   1.355   7.194   5.910  0.1520  0.0706 -0.0085
  956POPC   GL114301   1.243   7.140   6.367  0.0343 -0.0541 -0.1295
  956POPC   GL214302   1.481   7.212   6.612 -0.0344 -0.0517 -0.1061
  956POPC   C1A14303   1.022   7.296   6.772  0.4442 -0.2262 -0.0790
  956POPC   D2A14304   0.933   7.164   7.206 -0.1543 -0.0804 -0.3313
  956POPC   C3A14305   0.911   7.470   7.456 -0.0308  0.0880  0.0101
  956POPC   C4A14306   1.091   7.823   7.713  0.1381 -0.1517 -0.2605
  956POPC   C1B14307   1.405   7.080   7.062  0.2056  0.1559  0.0120
  956POPC   C2B14308   1.244   6.765   7.341  0.1631  0.1937  0.0188
  956POPC   C3B14309   1.024   6.866   7.654 -0.1101  0.0309 -0.1140
  956POPC   C4B14310   1.051   7.238   7.960  0.0948  0.0376  0.0724
  957POPC   NC314311  16.839  17.710   5.474 -0.0223  0.0331 -0.3061
  957POPC   PO414312  17.050  17.530   5.742  0.2104 -0.0418 -0.2494
  957POPC   GL114313  16.758  17.334   5.976 -0.0430 -0.0688  0.0237
  957POPC   GL214314  16.886  17.100   6.142 -0.1132  0.0660  0.1565
  957POPC   C1A14315  16.748  17.496   6.398 -0.3775  0.3492 -0.2203
  957POPC   D2A14316  16.633  17.734   6.785  0.1620  0.3763 -0.1074
  957POPC   C3A14317  16.791  17.695   7.203  0.1867  0.1235  0.4315
  957POPC   C4A14318  16.768  17.563   7.588  0.1368  0.1948  0.1319
  957POPC   C1B14319  16.826  16.735   6.342 -0.1041 -0.0227  0.0360
  957POPC   C2B14320  16.571  16.494   6.564  0.1297  0.0234 -0.2890
  957POPC   C3B14321  16.406  16.398   6.924 -0.1968 -0.0292 -0.2190
  957POPC   C4B14322  16.217  16.255   7.259  0.1123  0.2128 -0.1235
  958POPC   NC314323   3.579   4.393   5.384 -0.3545  0.0064 -0.1047
  958POPC   PO414324   3.956   4.292   5.685 -0.1311 -0.2061 -0.0130
  958POPC   GL114325   4.021   4.231   6.079 -0.0055 -0.0149  0.1069
  958POPC   GL214326   4.345   4.352   6.214 -0.0931 -0.0256 -0.0586
  958POPC   C1A14327   3.778   4.196   6.421  0.1022  0.0322  0.4509
  958POPC   D2A14328   3.695   4.001   6.813  0.2885 -0.0157  0.0897
  958POPC   C3A14329   3.455   3.907   7.039 -0.2014  0.0061 -0.4550
  958POPC   C4A14330   2.959   3.818   7.313 -0.0539  0.2135  0.0302
  958POPC   C1B14331   4.113   4.268   6.704  0.0665  0.0932 -0.4318
  958POPC   C2B14332   4.300   4.197   7.132  0.2438 -0.3064 -0.0016
  958POPC   C3B14333   4.059   4.346   7.572 -0.3445 -0.1147 -0.0675
  958POPC   C4B14334   4.073   4.563   8.076 -0.0544  0.0299  0.0476
  959POPC   NC314335   0.190  17.461   5.617  0.0749 -0.2655  0.0896
  959POPC   PO414336   0.211  17.086   5.829 -0.0655 -0.0899 -0.0752
  959POPC   GL114337   0.108  16.907   6.207  0.1974  0.0919  0.1815
  959POPC   GL214338   0.069  17.265   6.320  0.0344 -0.0324 -0.2374
  959POPC   C1A14339   0.034  16.913   6.670 -0.2809 -0.1028  0.4098
  959POPC   D2A14340   0.055  17.090   7.086  0.1327 -0.1329 -0.1518
  959POPC   C3A14341   0.266  16.964   7.374 -0.2330  0.2739  0.2480
  959POPC   C4A14342   0.602  16.768   7.542 -0.0235  0.0352  0.2475
  959POPC   C1B14343   0.434  17.186   6.568  0.0578  0.1460 -0.0658
  959POPC   C2B14344   0.603  16.986   6.893  0.2002 -0.0309 -0.0253
  959POPC   C3B14345   0.564  16.611   7.006 -0.1021 -0.0041 -0.0101
  959POPC   C4B14346   0.695  16.312   7.249  0.1749 -0.3581 -0.1285
  960POPC   NC314347   6.847   4.278   5.727  0.0795  0.1169 -0.0603
  960POPC   PO414348   6.739   3.861   5.848 -0.1325 -0.1240  0.1743
  960POPC   GL114349   6.867   3.869   6.333 -0.0768 -0.3116 -0.1765
  960POPC   GL214350   7.078   3.699   6.290  0.2119  0.0033 -0.2666
  960POPC   C1A14351   6.730   4.052   6.696  0.2533 -0.0564  0.0109
  960POPC   D2A14352   6.886   4.111   7.097  0.1682 -0.0017 -0.0735
  960POPC   C3A14353   6.707   3.802   7.419 -0.1366 -0.3246  0.1400
  960POPC   C4A14354   6.578   3.616   7.865  0.0721 -0.3105 -0.2479
  960POPC   C1B14355   7.017   3.337   6.451 -0.2107  0.2318  0.1454
  960POPC   C2B14356   6.804   3.139   6.761 -0.2016 -0.4077 -0.0533
  960POPC   C3B14357   6.889   2.854   7.104  0.0791  0.1226 -0.0784
  960POPC   C4B14358   7.019   2.727   7.492  0.1775 -0.0459 -0.0924
  961POPC   NC314359  14.288   6.000   5.595  0.1277  0.0981  0.2030
  961POPC   PO414360  14.501   6.380   5.734  0.1204 -0.0613  0.1824
  961POPC   GL114361  14.283   6.248   6.129  0.0262 -0.0677  0.1050
  961POPC   GL214362  14.053   5.950   6.089 -0.0607 -0.1190  0.0670
  961POPC   C1A14363  14.210   6.038   6.596  0.1318  0.3575  0.0438
  961POPC   D2A14364  14.060   6.193   7.049 -0.1825  0.1830 -0.0480
  961POPC   C3A14365  14.088   6.046   7.419  0.0527 -0.0474 -0.2984
  961POPC   C4A14366  13.970   6.081   7.831 -0.3366 -0.0043 -0.1726
  961POPC   C1B14367  14.467   5.788   6.179  0.0729 -0.4305 -0.2009
  961POPC   C2B14368  14.813   5.725   6.553 -0.2549  0.0975 -0.0550
  961POPC   C3B14369  15.033   5.489   6.799  0.2029 -0.1693  0.0183
  961POPC   C4B14370  15.212   5.470   7.274 -0.2661  0.0949  0.2099
  962POPC   NC314371  14.410   8.021   5.892 -0.0712  0.1948 -0.1865
  962POPC   PO414372  14.431   8.433   5.713 -0.0490  0.0435 -0.2536
  962POPC   GL114373  14.382   8.436   6.198 -0.1284 -0.0093  0.0143
  962POPC   GL214374  14.114   8.508   6.299 -0.0879  0.0819  0.3416
  962POPC   C1A14375  14.412   8.192   6.561  0.0222 -0.0468  0.0335
  962POPC   D2A14376  14.442   7.879   6.750 -0.1406  0.0360 -0.1962
  962POPC   C3A14377  14.210   7.834   7.234 -0.2908  0.1273  0.0082
  962POPC   C4A14378  14.278   7.765   7.579 -0.0294  0.1856 -0.1482
  962POPC   C1B14379  14.024   8.468   6.807 -0.4957  0.3258 -0.1613
  962POPC   C2B14380  13.882   8.197   7.089 -0.1733 -0.0661  0.0218
  962POPC   C3B14381  13.977   8.221   7.598 -0.0888  0.0113 -0.0621
  962POPC   C4B14382  13.672   8.288   7.907  0.1576  0.0716 -0.0518
  963POPC   NC314383   6.146   9.165   5.918 -0.1669 -0.1921  0.0253
  963POPC   PO414384   5.879   9.396   6.172 -0.1336 -0.1911  0.1998
  963POPC   GL114385   6.142   9.543   6.579  0.1676 -0.0160 -0.1919
  963POPC   GL214386   6.435   9.738   6.613 -0.0580  0.0293 -0.0849
  963POPC   C1A14387   6.296   9.375   6.996  0.1097 -0.0193  0.2792
  963POPC   D2A14388   6.322   9.150   7.379  0.0134  0.0837 -0.0128
  963POPC   C3A14389   6.521   9.251   7.770 -0.0125 -0.0900 -0.1657
  963POPC   C4A14390   6.639   9.060   8.105 -0.0699 -0.0671  0.1164
  963POPC   C1B14391   6.374   9.898   7.009  0.3468  0.1296 -0.0401
  963POPC   C2B14392   6.489   9.692   7.343  0.1690  0.1861 -0.1211
  963POPC   C3B14393   6.436   9.791   7.852  0.1112 -0.0896 -0.3070
  963POPC   C4B14394   6.554   9.830   8.261 -0.1039 -0.1673 -0.0790
  964POPC   NC314395   4.501  11.672   6.221 -0.0619 -0.2432 -0.2623
  964POPC   PO414396   3.970  11.687   6.284  0.0845  0.3163  0.1482
  964POPC   GL114397   3.989  11.938   6.656  0.3104 -0.0131 -0.0736
  964POPC   GL214398   4.363  11.939   6.629  0.2480 -0.1514  0.1052
  964POPC   C1A14399   4.205  11.911   7.093 -0.2393  0.4365  0.0073
  964POPC   D2A14400   4.331  12.102   7.466  0.2254 -0.2973  0.2031
  964POPC   C3A14401   4.255  11.786   7.855 -0.0286 -0.0510 -0.1356
  964POPC   C4A14402   4.252  11.724   8.229 -0.1997  0.3758  0.0216
  964POPC   C1B14403   4.836  11.772   6.889  0.0539 -0.1931 -0.1147
  964POPC   C2B14404   5.183  11.619   7.233 -0.2928 -0.2862 -0.1495
  964POPC   C3B14405   5.277  11.417   7.625 -0.1206  0.1001  0.0899
  964POPC   C4B14406   5.317  11.083   7.986  0.2183  0.0192  0.0907
  965POPC   NC314407  15.253  14.553   5.552 -0.1229  0.0403 -0.0751
  965POPC   PO414408  15.659  14.845   5.669  0.0964  0.0347 -0.2596
  965POPC   GL114409  15.652  14.805   6.062  0.1219 -0.0093 -0.1209
  965POPC   GL214410  15.293  14.765   6.054  0.1248 -0.0257 -0.1007
  965POPC   C1A14411  15.613  14.502   6.528 -0.2077  0.0181 -0.0514
  965POPC   D2A14412  15.687  14.542   6.960 -0.1574  0.0225  0.1865
  965POPC   C3A14413  15.349  14.470   7.321 -0.0796  0.0196 -0.0398
  965POPC   C4A14414  15.006  14.401   7.497  0.4632 -0.1055  0.3676
  965POPC   C1B14415  15.071  14.578   6.455 -0.1142  0.4666 -0.1864
  965POPC   C2B14416  15.062  14.453   6.874 -0.0314 -0.0414  0.2584
  965POPC   C3B14417  14.682  14.374   7.091  0.0294  0.1230 -0.1167
  965POPC   C4B14418  14.530  14.242   7.508 -0.0618  0.1889  0.0556
  966POPC   NC314419  17.598  16.519   5.874 -0.0735 -0.0861  0.1971
  966POPC   PO414420  17.986  16.496   6.020 -0.1812 -0.1820 -0.2511
  966POPC   GL114421  17.998  16.416   6.444 -0.0413 -0.3328 -0.4631
  966POPC   GL214422  17.601  16.244   6.561  0.2200  0.2347  0.0424
  966POPC   C1A14423  18.193  16.434   6.869 -0.2814 -0.0798 -0.0755
  966POPC   D2A14424  18.283  16.416   7.370 -0.2619  0.0195 -0.0966
  966POPC   C3A14425  18.570  16.343   7.753  0.0544  0.0110  0.0401
  966POPC   C4A14426  18.827  16.412   8.140  0.0198 -0.0086  0.1005
  966POPC   C1B14427  17.498  16.309   7.082 -0.0166  0.4841  0.1469
  966POPC   C2B14428  17.710  16.250   7.434 -0.2197  0.1074 -0.1187
  966POPC   C3B14429  18.062  16.151   7.785 -0.0056 -0.2386 -0.1662
  966POPC   C4B14430  18.301  15.923   8.103 -0.0558  0.2201  0.2392
  967POPC   NC314431  17.923   5.500   5.365 -0.2215 -0.0428 -0.1714
  967POPC   PO414432  17.621   5.343   5.595  0.1215  0.1316 -0.1051
  967POPC   GL114433  17.458   5.260   6.015  0.0692 -0.6804  0.2104
  967POPC   GL214434  17.466   4.867   6.273  0.2490 -0.3253 -0.3401
  967POPC   C1A14435  17.314   5.374   6.447  0.0951 -0.0544 -0.1440
  967POPC   D2A14436  17.260   5.194   6.933  0.0009 -0.1668 -0.1557
  967POPC   C3A14437  17.389   5.327   7.304 -0.0941 -0.2173 -0.0901
  967POPC   C4A14438  17.534   5.524   7.541 -0.1566 -0.1807  0.1973
  967POPC   C1B14439  17.600   5.011   6.616  0.3862 -0.0097 -0.1597
  967POPC   C2B14440  17.699   5.012   6.988 -0.2636  0.1196 -0.0466
  967POPC   C3B14441  17.805   4.991   7.458  0.2052  0.3735  0.0799
  967POPC   C4B14442  17.664   5.132   7.828 -0.0633 -0.1059 -0.3114
  968POPC   NC314443   6.635   5.194   5.498  0.0392 -0.1001 -0.0024
  968POPC   PO414444   7.023   5.289   5.744  0.1232  0.1895  0.2358
  968POPC   GL114445   7.035   5.544   6.100 -0.0133 -0.0299 -0.3282
  968POPC   GL214446   7.011   5.328   6.329  0.2824 -0.0545 -0.0113
  968POPC   C1A14447   7.369   5.763   6.389  0.0369 -0.1422  0.1414
  968POPC   D2A14448   7.499   6.125   6.531 -0.1989 -0.1064  0.0377
  968POPC   C3A14449   7.894   6.149   6.872 -0.2793  0.0980 -0.0761
  968POPC   C4A14450   8.160   6.122   7.235 -0.1375  0.2290 -0.0485
  968POPC   C1B14451   7.274   5.351   6.721 -0.2350 -0.2755  0.1001
  968POPC   C2B14452   7.102   5.254   7.227  0.0717 -0.2127  0.2270
  968POPC   C3B14453   6.861   5.310   7.550 -0.1003  0.1381 -0.3082
  968POPC   C4B14454   6.966   5.741   7.754  0.3096  0.0335 -0.2021
  969POPC   NC314455  16.124  17.408   5.198 -0.2009  0.0743 -0.1025
  969POPC   PO414456  15.923  17.334   5.526 -0.0477  0.0425 -0.1305
  969POPC   GL114457  16.029  17.339   5.949 -0.2261 -0.0073  0.2290
  969POPC   GL214458  16.262  17.616   6.084  0.2460  0.2796  0.1040
  969POPC   C1A14459  16.002  17.200   6.440  0.0822  0.0442  0.0981
  969POPC   D2A14460  15.786  17.286   6.780  0.2248  0.1297 -0.1534
  969POPC   C3A14461  16.042  17.148   7.121  0.0372 -0.0048 -0.2060
  969POPC   C4A14462  16.512  17.178   7.320 -0.0103  0.3113  0.2359
  969POPC   C1B14463  16.431  17.932   6.372  0.1303  0.0424  0.1239
  969POPC   C2B14464  16.376  18.206   6.692 -0.0279 -0.0018  0.0265
  969POPC   C3B14465  16.496  18.103   7.111 -0.1016  0.0680  0.2438
  969POPC   C4B14466  16.473  17.993   7.515 -0.0147 -0.0505 -0.0511
  970POPC   NC314467   9.233   3.130   5.832  0.0046  0.1225  0.1368
  970POPC   PO414468   9.372   2.698   5.859 -0.1154  0.1096 -0.0145
  970POPC   GL114469   9.145   2.431   6.194 -0.0957 -0.1235 -0.2202
  970POPC   GL214470   8.918   2.246   6.190  0.2164  0.1835  0.0485
  970POPC   C1A14471   9.265   2.499   6.692  0.0636 -0.0913  0.0101
  970POPC   D2A14472   9.426   2.874   6.910  0.0824 -0.2276  0.1157
  970POPC   C3A14473   9.309   3.023   7.279  0.0560  0.2205 -0.2662
  970POPC   C4A14474   9.145   2.900   7.656  0.3067  0.0321  0.1728
  970POPC   C1B14475   8.945   2.110   6.585  0.3145 -0.0303 -0.1529
  970POPC   C2B14476   8.985   2.037   6.969 -0.0877 -0.1548 -0.3282
  970POPC   C3B14477   8.967   1.967   7.496 -0.1253  0.1748  0.1539
  970POPC   C4B14478   9.045   1.765   7.921 -0.3072 -0.0169  0.0315
  971POPC   NC314479   2.658  11.988   5.825 -0.5179 -0.1228 -0.0726
  971POPC   PO414480   2.426  11.883   6.188  0.3773 -0.0043 -0.1232
  971POPC   GL114481   2.130  11.891   6.550 -0.0811 -0.0452  0.0360
  971POPC   GL214482   2.330  11.627   6.689 -0.2221 -0.0682 -0.2027
  971POPC   C1A14483   2.043  12.180   6.917  0.2940 -0.2122  0.1319
  971POPC   D2A14484   2.219  12.431   7.249  0.0575 -0.1091 -0.2470
  971POPC   C3A14485   2.436  12.221   7.601 -0.1738  0.0238  0.3755
  971POPC   C4A14486   2.540  11.998   7.861  0.2017  0.0728 -0.0740
  971POPC   C1B14487   1.970  11.601   6.928 -0.3559 -0.2350 -0.0408
  971POPC   C2B14488   1.694  11.701   7.200  0.1657 -0.1432  0.0471
  971POPC   C3B14489   1.443  11.847   7.490  0.0563 -0.0215 -0.1151
  971POPC   C4B14490   1.378  12.156   7.766 -0.1248 -0.1873  0.1392
  972POPC   NC314491  13.121  10.915   5.983 -0.2854 -0.2700 -0.0573
  972POPC   PO414492  12.813  10.706   6.286  0.0880 -0.0406  0.0493
  972POPC   GL114493  12.737  10.697   6.670 -0.1013 -0.0639 -0.2477
  972POPC   GL214494  12.875  10.396   6.779  0.1694 -0.0764  0.0456
  972POPC   C1A14495  12.789  10.762   7.167  0.0788 -0.2268 -0.0708
  972POPC   D2A14496  12.799  10.740   7.719 -0.0351  0.2039  0.1308
  972POPC   C3A14497  12.949  10.405   7.883 -0.0935  0.0016 -0.3260
  972POPC   C4A14498  12.885  10.261   8.314 -0.0178  0.0306 -0.0991
  972POPC   C1B14499  13.076  10.213   7.017  0.1447 -0.4555  0.1404
  972POPC   C2B14500  13.022  10.076   7.373  0.1885 -0.0526  0.0295
  972POPC   C3B14501  12.889   9.637   7.649  0.1460  0.0627  0.0064
  972POPC   C4B14502  12.942   9.357   7.995 -0.0808 -0.3234  0.0015
  973POPC   NC314503   2.876   0.881   5.960  0.1655  0.0398  0.1334
  973POPC   PO414504   2.598   0.605   5.924  0.0983  0.3288 -0.0233
  973POPC   GL114505   2.566   0.709   6.371  0.0094 -0.0276  0.1287
  973POPC   GL214506   2.838   0.564   6.485 -0.1326 -0.2945 -0.2240
  973POPC   C1A14507   2.214   0.896   6.527  0.1768 -0.0934  0.0389
  973POPC   D2A14508   2.060   1.232   6.795  0.0245 -0.1496  0.1819
  973POPC   C3A14509   1.679   1.211   6.937 -0.3727 -0.0146  0.1939
  973POPC   C4A14510   1.377   1.461   6.736 -0.1237 -0.0685 -0.2892
  973POPC   C1B14511   2.882   0.668   6.865  0.0926  0.0966 -0.0967
  973POPC   C2B14512   2.904   0.706   7.345  0.3997  0.0128 -0.0716
  973POPC   C3B14513   3.045   0.991   7.647 -0.0282  0.0896 -0.2982
  973POPC   C4B14514   3.057   1.320   7.860  0.1100 -0.0771 -0.1718
  974POPC   NC314515   6.924   6.393   5.850  0.2503  0.0858  0.0616
  974POPC   PO414516   6.533   6.674   5.823  0.2258  0.2589  0.0717
  974POPC   GL114517   6.582   6.738   6.264 -0.1002 -0.0812  0.0364
  974POPC   GL214518   6.484   6.429   6.253 -0.2865 -0.0331 -0.2889
  974POPC   C1A14519   6.746   6.634   6.672 -0.1043 -0.1964 -0.1052
  974POPC   D2A14520   6.791   6.456   7.139  0.2257 -0.2052 -0.2326
  974POPC   C3A14521   6.620   6.659   7.515 -0.1654  0.0285 -0.0835
  974POPC   C4A14522   6.568   6.646   7.857  0.4300  0.2802  0.1374
  974POPC   C1B14523   6.400   6.182   6.596 -0.0254 -0.1743  0.0110
  974POPC   C2B14524   6.489   6.119   7.023 -0.0357 -0.1530 -0.0107
  974POPC   C3B14525   6.682   6.068   7.404  0.0617 -0.2680 -0.0208
  974POPC   C4B14526   6.872   6.274   7.763 -0.1719 -0.2521 -0.1404
  975POPC   NC314527  11.179   8.399   6.254 -0.0865 -0.1120  0.0948
  975POPC   PO414528  10.919   8.680   6.022 -0.1554  0.2899 -0.0414
  975POPC   GL114529  10.956   8.775   6.468 -0.3576 -0.2105  0.1930
  975POPC   GL214530  10.739   9.118   6.396 -0.2341 -0.1107  0.1358
  975POPC   C1A14531  11.005   9.073   6.806  0.2221  0.0330 -0.3892
  975POPC   D2A14532  11.356   9.283   7.063 -0.1122  0.0587  0.0587
  975POPC   C3A14533  11.285   9.665   7.385 -0.0814 -0.2774  0.1335
  975POPC   C4A14534  11.099  10.089   7.373  0.0563 -0.1374 -0.1007
  975POPC   C1B14535  10.337   9.139   6.556  0.2737  0.0287 -0.2190
  975POPC   C2B14536   9.997   8.909   6.686 -0.2096 -0.1541  0.1723
  975POPC   C3B14537   9.863   8.961   7.167 -0.1123 -0.0068  0.2355
  975POPC   C4B14538   9.897   8.959   7.551 -0.0564 -0.0056  0.1995
  976POPC   NC314539   1.301   8.806   5.666  0.1795  0.1759  0.0623
  976POPC   PO414540   1.108   8.743   6.068  0.1350 -0.0136  0.1142
  976POPC   GL114541   0.763   8.605   6.380  0.4391  0.0751  0.3846
  976POPC   GL214542   0.498   8.864   6.282  0.1449  0.1428 -0.1974
  976POPC   C1A14543   0.748   8.782   6.721  0.1695 -0.3368  0.1963
  976POPC   D2A14544   0.616   8.907   7.157 -0.1809  0.2776  0.2172
  976POPC   C3A14545   0.545   9.235   7.484  0.1141  0.1402  0.0567
  976POPC   C4A14546   0.408   9.132   7.912  0.3164 -0.1469 -0.0076
  976POPC   C1B14547   0.472   9.180   6.677 -0.1591  0.1649  0.1371
  976POPC   C2B14548   0.450   9.434   6.978 -0.2744  0.1202 -0.0594
  976POPC   C3B14549   0.669   9.692   7.158  0.0248  0.0753  0.0828
  976POPC   C4B14550   1.033   9.885   7.046  0.1459  0.0028  0.1588
  977POPC   NC314551   5.092  14.475   6.079 -0.0283  0.1980 -0.0365
  977POPC   PO414552   5.255  14.016   6.194 -0.0144  0.2636 -0.0741
  977POPC   GL114553   5.073  13.899   6.624 -0.1510  0.0842  0.2944
  977POPC   GL214554   5.152  14.166   6.702  0.2899  0.1495 -0.2011
  977POPC   C1A14555   5.179  13.709   6.969  0.3613  0.0860  0.2385
  977POPC   D2A14556   5.363  13.457   7.140 -0.1145 -0.1384 -0.1836
  977POPC   C3A14557   5.305  13.221   7.432 -0.1283 -0.0188  0.0213
  977POPC   C4A14558   5.524  13.261   7.863  0.0634 -0.2327  0.2130
  977POPC   C1B14559   5.018  14.327   7.002  0.0270  0.1543  0.1711
  977POPC   C2B14560   4.869  14.505   7.428  0.3026  0.1268 -0.1628
  977POPC   C3B14561   4.909  14.653   7.758 -0.0887 -0.0408 -0.1731
  977POPC   C4B14562   4.869  15.109   7.933 -0.0480 -0.0711  0.1443
  978POPC   NC314563   2.561  16.407   5.582 -0.2169 -0.1365  0.2690
  978POPC   PO414564   2.410  16.061   5.740 -0.0865  0.1670  0.0818
  978POPC   GL114565   2.469  16.268   6.146 -0.0526 -0.1315 -0.1692
  978POPC   GL214566   2.756  16.065   6.255 -0.2681 -0.5428 -0.0879
  978POPC   C1A14567   2.379  16.370   6.557 -0.0311 -0.2828  0.0979
  978POPC   D2A14568   2.580  16.564   6.886 -0.1076 -0.1599 -0.1412
  978POPC   C3A14569   2.516  16.352   7.189  0.2084  0.0968  0.0331
  978POPC   C4A14570   2.521  15.970   7.415  0.0281 -0.1496 -0.1943
  978POPC   C1B14571   2.856  16.135   6.755 -0.4715 -0.0058  0.2529
  978POPC   C2B14572   2.981  16.059   7.210  0.0110 -0.1894 -0.0158
  978POPC   C3B14573   2.997  16.072   7.692 -0.1755 -0.1532 -0.1172
  978POPC   C4B14574   2.994  15.753   7.939  0.1578  0.2435  0.1004
  979POPC   NC314575  13.607  13.059   5.540  0.0576  0.0818  0.0067
  979POPC   PO414576  13.322  12.835   5.630 -0.0782  0.1250  0.1147
  979POPC   GL114577  13.380  12.863   6.019  0.0063 -0.3681  0.0266
  979POPC   GL214578  13.458  13.173   6.054  0.4072 -0.3895 -0.1261
  979POPC   C1A14579  13.341  12.774   6.432 -0.0326 -0.2879  0.3122
  979POPC   D2A14580  13.045  12.570   6.790 -0.2187 -0.0061 -0.1130
  979POPC   C3A14581  12.961  12.730   7.220 -0.0777  0.0907  0.0832
  979POPC   C4A14582  12.792  12.947   7.558  0.1701  0.3855  0.1046
  979POPC   C1B14583  13.458  13.254   6.470  0.0770  0.0392  0.2470
  979POPC   C2B14584  13.641  12.983   6.822  0.0824 -0.0367  0.1444
  979POPC   C3B14585  13.661  12.949   7.339 -0.1890 -0.2616 -0.1257
  979POPC   C4B14586  13.695  12.666   7.870  0.1087 -0.2724 -0.2498
  980POPC   NC314587  10.543  14.682   5.673  0.1454  0.0859  0.3146
  980POPC   PO414588  10.943  14.442   5.662 -0.1198 -0.1120  0.2141
  980POPC   GL114589  10.837  14.520   6.088 -0.1404 -0.1671 -0.4666
  980POPC   GL214590  11.068  14.738   6.399  0.0183  0.0129  0.0046
  980POPC   C1A14591  10.551  14.667   6.446  0.0424  0.1689  0.0300
  980POPC   D2A14592  10.384  14.669   6.828 -0.2102 -0.2075 -0.1641
  980POPC   C3A14593  10.257  14.278   6.881  0.1641 -0.0615 -0.3069
  980POPC   C4A14594  10.251  13.818   6.648  0.0814 -0.2723  0.1076
  980POPC   C1B14595  10.940  14.713   6.817 -0.3678 -0.0121 -0.2666
  980POPC   C2B14596  10.763  14.872   7.217 -0.2844 -0.1929  0.0388
  980POPC   C3B14597  10.822  15.177   7.389  0.1355 -0.1169  0.0149
  980POPC   C4B14598  11.067  15.373   7.651  0.1128  0.1500  0.0070
  981POPC   NC314599   2.636   7.025   5.778 -0.1904 -0.2086 -0.2851
  981POPC   PO414600   2.790   7.105   6.149 -0.1128  0.0581 -0.2227
  981POPC   GL114601   2.798   6.824   6.451 -0.0440  0.0052  0.0601
  981POPC   GL214602   3.140   6.770   6.536  0.0078 -0.0661  0.0465
  981POPC   C1A14603   2.632   6.650   6.734  0.1432  0.1691 -0.1300
  981POPC   D2A14604   2.477   6.400   6.975 -0.0437  0.0660 -0.2556
  981POPC   C3A14605   2.253   6.599   7.284 -0.1248  0.3084  0.1275
  981POPC   C4A14606   2.182   6.905   7.680  0.0818 -0.0861  0.0715
  981POPC   C1B14607   2.871   7.048   6.934 -0.0224  0.1265  0.0283
  981POPC   C2B14608   2.876   7.245   7.361 -0.2106  0.2177  0.4434
  981POPC   C3B14609   3.077   7.413   7.699  0.1845  0.0364  0.0878
  981POPC   C4B14610   3.322   7.626   8.043  0.3100 -0.0950 -0.1903
  982POPC   NC314611  17.930  11.851   5.472  0.1175 -0.0885  0.0945
  982POPC   PO414612  18.061  11.677   5.901  0.0494  0.0309  0.3256
  982POPC   GL114613  17.927  11.531   6.419 -0.0597  0.0525 -0.3093
  982POPC   GL214614  17.694  11.315   6.637 -0.2713  0.1688 -0.0838
  982POPC   C1A14615  17.907  11.722   6.836 -0.0881  0.0414  0.0735
  982POPC   D2A14616  17.709  11.690   7.277 -0.3333  0.0028 -0.4090
  982POPC   C3A14617  17.955  11.788   7.581  0.3699 -0.0446  0.4680
  982POPC   C4A14618  18.130  12.110   7.922 -0.0641 -0.0190 -0.0073
  982POPC   C1B14619  17.530  11.131   7.137  0.0037  0.3799 -0.1656
  982POPC   C2B14620  17.348  11.320   7.414 -0.0489  0.0635 -0.0748
  982POPC   C3B14621  17.415  11.582   7.682  0.0477 -0.0463 -0.2437
  982POPC   C4B14622  17.679  11.798   7.967 -0.1378  0.2198 -0.1912
  983POPC   NC314623   8.217   1.814   5.592  0.1828 -0.0833  0.0220
  983POPC   PO414624   7.925   1.584   5.936 -0.1979  0.1924 -0.0974
  983POPC   GL114625   7.700   1.367   6.335  0.1372 -0.0487  0.2390
  983POPC   GL214626   7.407   1.312   6.371  0.1109  0.2434 -0.2088
  983POPC   C1A14627   7.611   1.619   6.757 -0.0537 -0.1061  0.1033
  983POPC   D2A14628   7.479   1.699   7.086 -0.1730  0.2616  0.4445
  983POPC   C3A14629   7.775   1.603   7.309  0.2188  0.0321 -0.0275
  983POPC   C4A14630   7.922   1.430   7.743 -0.2549 -0.3178 -0.1058
  983POPC   C1B14631   7.422   1.170   6.694  0.0323 -0.1904 -0.2987
  983POPC   C2B14632   7.560   1.128   7.020 -0.0344 -0.0600 -0.2294
  983POPC   C3B14633   7.389   1.179   7.377 -0.1188  0.0302  0.0205
  983POPC   C4B14634   7.362   1.104   7.762 -0.0103 -0.0116 -0.0412
  984YOPC   NC314635   2.542  11.384   6.217 -0.0942 -0.1411  0.0497
  984YOPC   PO414636   2.107  11.382   6.317  0.1987  0.0929 -0.1730
  984YOPC   GL114637   2.097  11.127   6.707 -0.1474  0.2254 -0.3677
  984YOPC   GL214638   2.003  10.879   6.745 -0.0453 -0.3605  0.2408
  984YOPC   C1A14639   2.363  11.228   7.091  0.0356 -0.2636  0.2497
  984YOPC   D2A14640   2.734  11.353   7.332  0.0083  0.2536 -0.2006
  984YOPC   C3A14641   2.814  11.687   7.642  0.0795 -0.0613 -0.0580
  984YOPC   C4A14642   2.922  12.210   7.597  0.0345 -0.0591 -0.1279
  984YOPC   C1B14643   2.291  10.728   6.977 -0.1470 -0.1495  0.0123
  984YOPC   C2B14644   2.376  10.455   7.292 -0.1336 -0.0993 -0.0796
  984YOPC   D3B14645   2.146  10.582   7.696  0.0905 -0.1072  0.1294
  984YOPC   C4B14646   1.851  10.837   7.914  0.1629 -0.1837  0.2076
  985YOPC   NC314647   3.800   1.804   5.130  0.2334  0.1833 -0.2002
  985YOPC   PO414648   3.995   1.732   5.557  0.3255 -0.0906 -0.2282
  985YOPC   GL114649   4.056   1.904   5.946 -0.0900  0.1391 -0.1636
  985YOPC   GL214650   4.174   1.593   6.070 -0.2657  0.0702  0.3190
  985YOPC   C1A14651   3.943   2.182   6.359  0.1237  0.2135  0.1552
  985YOPC   D2A14652   3.913   2.324   6.744 -0.2494  0.0287 -0.0754
  985YOPC   C3A14653   4.253   2.450   7.056  0.0102 -0.0989  0.0325
  985YOPC   C4A14654   4.480   2.690   7.332 -0.1390  0.2159 -0.0278
  985YOPC   C1B14655   4.335   1.645   6.424 -0.0584 -0.1784  0.2074
  985YOPC   C2B14656   4.427   1.415   6.812  0.0581 -0.2088  0.2717
  985YOPC   D3B14657   4.305   1.507   7.086  0.0590  0.0872 -0.2843
  985YOPC   C4B14658   4.284   1.620   7.537 -0.1635  0.0071 -0.2065
  986YOPC   NC314659  14.752   8.920   5.719  0.0324 -0.0185  0.3743
  986YOPC   PO414660  15.121   9.005   6.002 -0.1977 -0.1075 -0.2813
  986YOPC   GL114661  14.853   9.020   6.246  0.0725 -0.3347  0.1250
  986YOPC   GL214662  14.947   9.070   6.588 -0.1010 -0.1962  0.1114
  986YOPC   C1A14663  14.680   8.610   6.537 -0.1734  0.2792  0.1834
  986YOPC   D2A14664  14.630   8.436   6.959 -0.0328 -0.0056  0.1670
  986YOPC   C3A14665  14.293   8.395   7.275 -0.1763 -0.3689 -0.2540
  986YOPC   C4A14666  13.950   8.663   7.254  0.0323 -0.0298  0.1455
  986YOPC   C1B14667  15.254   9.278   6.842 -0.1905 -0.0838 -0.3182
  986YOPC   C2B14668  15.498   9.427   7.168 -0.0126 -0.4521  0.4734
  986YOPC   D3B14669  15.695   9.200   7.392 -0.1331 -0.2718  0.1953
  986YOPC   C4B14670  15.634   8.879   7.632  0.0006 -0.3283 -0.3999
  987YOPC   NC314671   0.584   3.598   5.755  0.2034 -0.1635 -0.3705
  987YOPC   PO414672   0.860   4.006   5.778 -0.1291  0.2891  0.0494
  987YOPC   GL114673   0.916   4.248   6.160 -0.0332  0.1691  0.3867
  987YOPC   GL214674   0.986   4.517   6.226 -0.3185  0.1913 -0.2595
  987YOPC   C1A14675   1.276   4.186   6.515 -0.0847 -0.1175 -0.0025
  987YOPC   D2A14676   1.340   4.181   7.004 -0.0192  0.2048 -0.0046
  987YOPC   C3A14677   1.538   4.044   7.330 -0.2878  0.2289 -0.1887
  987YOPC   C4A14678   1.436   4.113   7.705  0.2153 -0.0419  0.1138
  987YOPC   C1B14679   0.764   4.335   6.614  0.1496 -0.1194 -0.0505
  987YOPC   C2B14680   0.770   4.445   6.953 -0.0725  0.1478 -0.0124
  987YOPC   D3B14681   0.566   4.281   7.419 -0.0759  0.2241 -0.3436
  987YOPC   C4B14682   0.580   3.962   7.736  0.2338 -0.3314 -0.2370
  988YOPC   NC314683   4.155  15.787   5.708  0.1649  0.1566 -0.1362
  988YOPC   PO414684   4.224  15.335   5.795  0.3226 -0.3313 -0.0910
  988YOPC   GL114685   4.339  15.724   6.158  0.2062 -0.1919  0.0370
  988YOPC   GL214686   4.552  15.581   6.339 -0.0327  0.4421 -0.1415
  988YOPC   C1A14687   4.241  16.045   6.528 -0.0708 -0.0553 -0.0727
  988YOPC   D2A14688   4.243  16.148   6.916  0.1237 -0.0918  0.0763
  988YOPC   C3A14689   3.902  16.114   7.039  0.0267 -0.0169  0.0938
  988YOPC   C4A14690   3.461  16.119   7.137  0.0098  0.3879 -0.0501
  988YOPC   C1B14691   4.592  15.716   6.706  0.1863 -0.0886  0.4731
  988YOPC   C2B14692   4.292  15.715   7.121  0.1886  0.1187  0.0815
  988YOPC   D3B14693   4.224  15.671   7.577  0.1061  0.0478  0.1021
  988YOPC   C4B14694   3.856  15.602   7.766  0.0243 -0.3180  0.0497
  989YOPC   NC314695  10.568   5.228   5.395 -0.0940 -0.2810 -0.1194
  989YOPC   PO414696  10.700   5.383   5.812 -0.1040  0.0880 -0.1313
  989YOPC   GL114697  10.938   5.461   6.291 -0.0489 -0.1095 -0.3709
  989YOPC   GL214698  10.633   5.591   6.568 -0.0965  0.1765 -0.1923
  989YOPC   C1A14699  11.122   5.280   6.553 -0.2106 -0.0680  0.3077
  989YOPC   D2A14700  11.191   5.248   7.014  0.1644  0.1927 -0.0685
  989YOPC   C3A14701  11.414   5.020   7.198 -0.0203  0.0816 -0.0570
  989YOPC   C4A14702  11.724   4.908   7.580 -0.3156  0.1617  0.0532
  989YOPC   C1B14703  10.804   5.516   6.866 -0.1365  0.1255 -0.3105
  989YOPC   C2B14704  10.776   5.424   7.284  0.0234  0.0625 -0.2195
  989YOPC   D3B14705  11.191   5.441   7.585 -0.2139 -0.1208 -0.0252
  989YOPC   C4B14706  11.315   5.445   8.028 -0.0926 -0.0639 -0.0960
  990YOPC   NC314707   3.761   8.221   6.045  0.2329  0.4238  0.0238
  990YOPC   PO414708   3.554   8.623   6.312 -0.1050 -0.0128  0.0055
  990YOPC   GL114709   3.691   8.709   6.732 -0.2338 -0.3313 -0.0589
  990YOPC   GL214710   3.499   8.776   6.945 -0.0276  0.1762  0.1455
  990YOPC   C1A14711   4.000   8.591   7.127  0.2392 -0.0521 -0.0710
  990YOPC   D2A14712   4.074   8.649   7.525  0.2190 -0.1142  0.0332
  990YOPC   C3A14713   4.084   8.980   7.811 -0.0348 -0.0397  0.0097
  990YOPC   C4A14714   4.032   9.409   7.799 -0.1398 -0.2173  0.1277
  990YOPC   C1B14715   3.548   8.718   7.372 -0.1102 -0.0547 -0.1790
  990YOPC   C2B14716   3.676   8.535   7.765 -0.2259  0.4502 -0.2666
  990YOPC   D3B14717   3.777   8.202   8.073  0.0555 -0.3879 -0.1296
  990YOPC   C4B14718   3.626   7.881   8.426  0.2211  0.0616 -0.1674
  991YOPC   NC314719  11.840   9.813   5.468  0.2267  0.1357 -0.1007
  991YOPC   PO414720  11.616   9.941   5.791 -0.0331  0.0448  0.0787
  991YOPC   GL114721  11.638  10.061   6.213  0.1153 -0.1017  0.3409
  991YOPC   GL214722  11.891   9.830   6.274 -0.2448  0.1088  0.1110
  991YOPC   C1A14723  11.341   9.827   6.419  0.2390  0.0958  0.1212
  991YOPC   D2A14724  11.152   9.434   6.551 -0.2413  0.2000 -0.3276
  991YOPC   C3A14725  11.546   9.161   6.659 -0.2963 -0.0751  0.1620
  991YOPC   C4A14726  11.787   9.093   6.972  0.2195  0.0258 -0.0452
  991YOPC   C1B14727  11.758   9.869   6.641  0.0443 -0.0224 -0.1590
  991YOPC   C2B14728  11.708   9.647   6.972  0.0216  0.4456 -0.2285
  991YOPC   D3B14729  11.689   9.926   7.282  0.2955 -0.2613  0.2434
  991YOPC   C4B14730  11.558  10.108   7.634  0.1717 -0.0770 -0.0829
  992YOPC   NC314731   4.562  17.072   5.986  0.0947  0.2223  0.0233
  992YOPC   PO414732   4.915  17.255   5.721 -0.0958  0.0573  0.1280
  992YOPC   GL114733   5.216  17.233   5.948 -0.1353  0.1818 -0.0330
  992YOPC   GL214734   5.006  17.090   6.206 -0.3626  0.0230  0.1046
  992YOPC   C1A14735   5.269  17.572   6.313 -0.1651 -0.1799  0.1780
  992YOPC   D2A14736   5.695  17.785   6.369 -0.0185 -0.1629  0.1177
  992YOPC   C3A14737   6.090  17.722   6.615 -0.2047 -0.0908  0.0169
  992YOPC   C4A14738   6.259  17.700   7.069 -0.0740 -0.0140 -0.1730
  992YOPC   C1B14739   5.093  17.219   6.591  0.1009 -0.0659  0.0516
  992YOPC   C2B14740   5.064  17.058   6.989 -0.0039  0.2122  0.0471
  992YOPC   D3B14741   4.957  16.906   7.380 -0.0005 -0.0482 -0.0011
  992YOPC   C4B14742   4.846  16.837   7.724  0.0314 -0.1679  0.2067
  993YOPC   NC314743  12.907   2.004   5.362  0.3190 -0.0326  0.0189
  993YOPC   PO414744  13.074   2.194   5.632  0.1642  0.1577 -0.3556
  993YOPC   GL114745  12.973   2.066   6.066 -0.2644 -0.1565 -0.3248
  993YOPC   GL214746  13.237   1.897   6.181  0.1093  0.1667  0.0233
  993YOPC   C1A14747  12.842   1.948   6.549  0.2619 -0.0377 -0.3439
  993YOPC   D2A14748  12.683   1.665   6.936  0.0765 -0.1032 -0.4731
  993YOPC   C3A14749  12.946   1.700   7.234  0.2188  0.0434 -0.2612
  993YOPC   C4A14750  13.003   1.759   7.702 -0.1009  0.1286  0.0102
  993YOPC   C1B14751  13.194   1.428   6.188 -0.3661 -0.3270 -0.2384
  993YOPC   C2B14752  13.255   1.016   6.271  0.0456  0.3350 -0.3514
  993YOPC   D3B14753  13.272   0.830   6.752  0.0463  0.2406  0.2249
  993YOPC   C4B14754  13.173   0.740   7.093 -0.3016  0.2827 -0.0164
  994YOPC   NC314755  16.169  11.236   6.195 -0.0972 -0.0745  0.0058
  994YOPC   PO414756  16.377  11.718   6.016  0.2605  0.0437 -0.1390
  994YOPC   GL114757  16.176  11.795   6.441 -0.1667 -0.3573  0.0597
  994YOPC   GL214758  16.199  12.075   6.371  0.0236  0.0110 -0.1255
  994YOPC   C1A14759  16.273  11.876   6.873  0.1713 -0.1262  0.0512
  994YOPC   D2A14760  16.367  11.902   7.385  0.0801 -0.1906  0.0273
  994YOPC   C3A14761  16.297  12.261   7.652 -0.0812  0.2200  0.0421
  994YOPC   C4A14762  16.414  12.632   7.991  0.0474 -0.1283 -0.1011
  994YOPC   C1B14763  15.818  12.269   6.325  0.3124 -0.2027  0.0824
  994YOPC   C2B14764  15.453  12.439   6.556 -0.0652 -0.3224  0.0055
  994YOPC   D3B14765  15.775  12.532   6.756  0.2456 -0.2693 -0.1755
  994YOPC   C4B14766  16.048  12.834   6.929  0.0089 -0.3360 -0.2743
  995YOPC   NC314767   6.752  14.946   5.521 -0.0724 -0.2352  0.5167
  995YOPC   PO414768   6.991  14.936   5.876  0.1610 -0.0734  0.2912
  995YOPC   GL114769   6.901  14.858   6.294  0.2940  0.0828  0.2168
  995YOPC   GL214770   6.861  15.181   6.493 -0.2237  0.0228 -0.2945
  995YOPC   C1A14771   6.535  14.731   6.585 -0.0418 -0.1151  0.1175
  995YOPC   D2A14772   6.339  14.697   7.014 -0.0535 -0.2370  0.1383
  995YOPC   C3A14773   6.409  14.840   7.397  0.0383 -0.0512 -0.1107
  995YOPC   C4A14774   6.338  15.127   7.750 -0.0824 -0.0650  0.0810
  995YOPC   C1B14775   6.672  15.273   6.903 -0.2683 -0.1783  0.1736
  995YOPC   C2B14776   6.592  15.328   7.303  0.3576  0.0244  0.0179
  995YOPC   D3B14777   6.469  15.604   7.583  0.3025 -0.1224 -0.2520
  995YOPC   C4B14778   6.546  15.977   7.852 -0.4074  0.1544  0.0270
  996YOPC   NC314779   5.857  18.020   5.950 -0.3841  0.3722 -0.2061
  996YOPC   PO414780   6.004  18.438   6.070 -0.0258 -0.0720  0.1045
  996YOPC   GL114781   6.120  18.176   6.387 -0.1080 -0.0883 -0.1667
  996YOPC   GL214782   6.363  18.086   6.376 -0.0862 -0.0203 -0.2713
  996YOPC   C1A14783   5.952  18.235   6.768  0.1815 -0.0323  0.2239
  996YOPC   D2A14784   5.803  18.036   7.154  0.3172  0.0736 -0.1686
  996YOPC   C3A14785   5.819  17.513   7.217 -0.2309  0.0219 -0.1692
  996YOPC   C4A14786   5.751  17.316   7.660  0.0854  0.1669 -0.1201
  996YOPC   C1B14787   6.442  18.248   6.763 -0.1180  0.2140 -0.0203
  996YOPC   C2B14788   6.532  18.233   7.195  0.2834  0.0913 -0.2758
  996YOPC   D3B14789   6.196  17.990   7.470  0.2561  0.1048  0.0292
  996YOPC   C4B14790   6.193  17.512   7.605  0.1080  0.0886  0.1540
  997YOPC   NC314791   6.944  10.935   6.154 -0.1622 -0.3011  0.0728
  997YOPC   PO414792   6.677  11.011   6.534 -0.0635 -0.0349  0.1081
  997YOPC   GL114793   6.984  10.836   6.685  0.2438 -0.2815  0.1747
  997YOPC   GL214794   7.001  10.568   6.680 -0.0530 -0.1131 -0.3011
  997YOPC   C1A14795   7.082  10.649   7.121  0.0101 -0.0534  0.0258
  997YOPC   D2A14796   6.937  10.562   7.518  0.0865  0.0792  0.0758
  997YOPC   C3A14797   7.276  10.565   7.949 -0.0013  0.1960  0.2962
  997YOPC   C4A14798   7.224  10.330   8.219 -0.1065  0.1896 -0.2462
  997YOPC   C1B14799   6.731  10.338   6.981  0.0274  0.1099 -0.0688
  997YOPC   C2B14800   6.722  10.150   7.374 -0.2688  0.1218  0.0499
  997YOPC   D3B14801   6.736  10.212   7.893  0.3195 -0.0529  0.0846
  997YOPC   C4B14802   6.591  10.355   8.331 -0.1634  0.1879  0.1551
  998YOPC   NC314803   8.265   6.020   5.483 -0.0381 -0.0447 -0.2090
  998YOPC   PO414804   8.206   6.057   5.950  0.0651  0.1436 -0.2761
  998YOPC   GL114805   8.322   5.949   6.395  0.2185  0.0591  0.0591
  998YOPC   GL214806   8.656   5.725   6.474  0.0149  0.2580 -0.1542
  998YOPC   C1A14807   8.377   6.242   6.749 -0.0438  0.4005  0.0912
  998YOPC   D2A14808   8.644   6.073   6.999 -0.0418 -0.1184  0.0828
  998YOPC   C3A14809   8.942   5.766   6.939 -0.1440 -0.2364  0.0249
  998YOPC   C4A14810   9.144   5.392   6.930 -0.0562  0.0067  0.0455
  998YOPC   C1B14811   8.382   5.676   6.814  0.1123 -0.1854 -0.0356
  998YOPC   C2B14812   8.365   5.652   7.271 -0.0562 -0.0510 -0.2074
  998YOPC   D3B14813   8.761   5.606   7.445 -0.0926  0.0656  0.0358
  998YOPC   C4B14814   9.166   5.481   7.443 -0.2344  0.0025 -0.1298
  999YOPC   NC314815  11.294  10.582   5.111  0.0103 -0.0667 -0.1615
  999YOPC   PO414816  11.244  10.755   5.545  0.0950  0.0698  0.0305
  999YOPC   GL114817  11.171  10.776   6.011 -0.2390  0.0822  0.0616
  999YOPC   GL214818  10.948  11.075   6.171  0.1758  0.1862 -0.2622
  999YOPC   C1A14819  11.228  10.710   6.433 -0.1848 -0.4633 -0.1628
  999YOPC   D2A14820  11.384  10.365   6.491  0.1937  0.0646  0.2244
  999YOPC   C3A14821  11.360  10.067   6.859 -0.0002  0.3928 -0.0296
  999YOPC   C4A14822  11.091   9.762   6.937 -0.1505  0.3820 -0.0008
  999YOPC   C1B14823  10.981  11.156   6.615 -0.0669 -0.1480 -0.0741
  999YOPC   C2B14824  11.089  10.973   7.009 -0.2815 -0.2979 -0.1293
  999YOPC   D3B14825  11.513  11.066   7.194  0.1201  0.2404  0.0997
  999YOPC   C4B14826  11.840  10.871   7.185 -0.1148 -0.3605  0.3704
 1000YOPC   NC314827   1.330  10.565   6.117  0.0884  0.0369 -0.0284
 1000YOPC   PO414828   0.875  10.619   6.113 -0.0919  0.0349  0.2989
 1000YOPC   GL114829   1.003  10.307   6.405  0.1858  0.0388 -0.1508
 1000YOPC   GL214830   0.793  10.403   6.575 -0.3411  0.0560 -0.1167
 1000YOPC   C1A14831   1.341  10.249   6.776 -0.0682 -0.2523 -0.2681
 1000YOPC   D2A14832   1.745  10.043   6.653  0.1963  0.1990 -0.0791
 1000YOPC   C3A14833   2.027  10.156   6.985  0.2761 -0.1185 -0.1237
 1000YOPC   C4A14834   1.905  10.543   7.218  0.1861 -0.1713  0.1807
 1000YOPC   C1B14835   0.611  10.282   6.933 -0.1998 -0.0776  0.2745
 1000YOPC   C2B14836   0.546  10.514   7.260  0.0396 -0.1331 -0.1887
 1000YOPC   D3B14837   0.614  10.477   7.701  0.0430  0.1269 -0.0431
 1000YOPC   C4B14838   0.662  10.544   8.122  0.0389  0.0558 -0.0416
 1001YOPC   NC314839  13.098   6.807   5.255 -0.2889 -0.2651 -0.0553
 1001YOPC   PO414840  13.207   6.913   5.661 -0.0840 -0.0785 -0.0932
 1001YOPC   GL114841  13.463   7.029   6.114 -0.2068 -0.4882 -0.2869
 1001YOPC   GL214842  13.500   7.397   6.226  0.2276 -0.0539  0.1623
 1001YOPC   C1A14843  13.587   6.995   6.527 -0.2871 -0.1293 -0.0898
 1001YOPC   D2A14844  13.823   7.189   6.789 -0.2054  0.2457 -0.0303
 1001YOPC   C3A14845  14.074   7.275   7.157 -0.0209  0.0971 -0.1364
 1001YOPC   C4A14846  14.397   7.289   7.529  0.0153 -0.0271  0.2295
 1001YOPC   C1B14847  13.606   7.604   6.513 -0.1519  0.1347 -0.1830
 1001YOPC   C2B14848  13.553   8.006   6.769  0.2325  0.0360  0.2772
 1001YOPC   D3B14849  13.322   8.002   7.036 -0.1179  0.1706  0.1650
 1001YOPC   C4B14850  13.043   8.244   7.197  0.1296  0.2160 -0.0307
 1002YOPC   NC314851  16.099  14.590   5.664 -0.0486 -0.1118  0.0432
 1002YOPC   PO414852  16.044  14.389   6.096 -0.0161 -0.3316  0.1689
 1002YOPC   GL114853  16.137  14.420   6.506 -0.3106 -0.1894  0.0283
 1002YOPC   GL214854  16.411  14.641   6.531  0.2763 -0.2410  0.0571
 1002YOPC   C1A14855  16.154  14.462   6.879 -0.3640  0.0135  0.1984
 1002YOPC   D2A14856  16.141  14.689   7.258  0.0802  0.0262 -0.1290
 1002YOPC   C3A14857  16.179  14.505   7.629  0.1458 -0.3515 -0.2139
 1002YOPC   C4A14858  15.873  14.211   7.921  0.0049  0.0432  0.1887
 1002YOPC   C1B14859  16.368  14.960   6.906 -0.2232 -0.1204  0.1366
 1002YOPC   C2B14860  16.482  15.112   7.195  0.3006 -0.2438 -0.0635
 1002YOPC   D3B14861  16.204  15.288   7.562 -0.0657  0.0955  0.0205
 1002YOPC   C4B14862  16.043  15.020   7.950 -0.0545 -0.3263  0.0518
 1003YOPC   NC314863  17.276   8.252   5.435 -0.1928 -0.3900 -0.0252
 1003YOPC   PO414864  17.074   7.921   5.798  0.0628 -0.0981 -0.1774
 1003YOPC   GL114865  17.084   8.165   6.275  0.1471  0.0400  0.0294
 1003YOPC   GL214866  16.787   8.149   6.542  0.1961  0.1737  0.0643
 1003YOPC   C1A14867  17.012   8.594   6.516  0.1497  0.1678 -0.1630
 1003YOPC   D2A14868  16.746   8.934   6.786  0.0632 -0.0003  0.0004
 1003YOPC   C3A14869  16.707   8.967   7.271  0.0496 -0.1802  0.0348
 1003YOPC   C4A14870  16.493   8.683   7.440 -0.2412 -0.0085 -0.0563
 1003YOPC   C1B14871  16.906   7.875   6.883 -0.0411  0.1369  0.4965
 1003YOPC   C2B14872  16.675   7.619   7.147  0.1193 -0.3851  0.1468
 1003YOPC   D3B14873  16.765   7.698   7.651  0.2123  0.0760 -0.0626
 1003YOPC   C4B14874  17.102   7.903   7.970 -0.3431 -0.1165  0.4664
 1004YOPC   NC314875  15.384  17.282   5.330  0.0077 -0.0645 -0.1594
 1004YOPC   PO414876  15.553  16.896   5.619 -0.0758  0.0374 -0.0394
 1004YOPC   GL114877  15.518  17.205   5.984  0.0974  0.2670 -0.1402
 1004YOPC   GL214878  15.569  17.084   6.295 -0.0552  0.0124 -0.0767
 1004YOPC   C1A14879  15.221  17.487   6.324  0.0512 -0.0013  0.1450
 1004YOPC   D2A14880  14.793  17.511   6.529  0.0752 -0.0091  0.2145
 1004YOPC   C3A14881  14.772  17.698   6.912 -0.2438  0.1501 -0.0980
 1004YOPC   C4A14882  14.435  17.746   7.274 -0.0491 -0.1380 -0.1364
 1004YOPC   C1B14883  15.483  16.907   6.734 -0.1965 -0.1868  0.1754
 1004YOPC   C2B14884  15.479  17.028   7.173 -0.1389 -0.0811 -0.1613
 1004YOPC   D3B14885  15.777  17.072   7.525 -0.0641 -0.2176  0.1258
 1004YOPC   C4B14886  15.856  17.062   7.884  0.0384 -0.2571  0.2001
 1005YOPC   NC314887   4.013   7.405   5.846  0.1430 -0.0622 -0.2054
 1005YOPC   PO414888   4.010   7.008   6.023  0.0723 -0.2471  0.2727
 1005YOPC   GL114889   4.086   7.049   6.468 -0.1874 -0.0492 -0.0035
 1005YOPC   GL214890   4.265   6.798   6.736 -0.2295  0.1296  0.0848
 1005YOPC   C1A14891   3.952   7.096   6.920 -0.1075  0.0136  0.1520
 1005YOPC   D2A14892   3.846   6.952   7.429 -0.1714 -0.1604 -0.1112
 1005YOPC   C3A14893   3.568   7.282   7.741  0.2420  0.1776 -0.0457
 1005YOPC   C4A14894   3.476   7.629   7.562  0.0928  0.2124 -0.2357
 1005YOPC   C1B14895   4.542   6.735   6.959  0.7059  0.0969  0.0895
 1005YOPC   C2B14896   4.791   6.485   7.193  0.2406  0.2657  0.1020
 1005YOPC   D3B14897   4.584   6.345   7.576  0.1009  0.1411  0.0202
 1005YOPC   C4B14898   4.359   6.286   7.919  0.0877  0.3136  0.2086
 1006YOPC   NC314899  17.366  12.452   5.683  0.1311  0.0316  0.0328
 1006YOPC   PO414900  17.148  12.070   5.823 -0.0557 -0.3776 -0.1602
 1006YOPC   GL114901  17.275  12.320   6.224  0.0680 -0.0910 -0.0088
 1006YOPC   GL214902  17.423  12.297   6.435  0.2800 -0.0454 -0.2288
 1006YOPC   C1A14903  17.098  12.654   6.559 -0.2683 -0.2829  0.2809
 1006YOPC   D2A14904  16.789  13.022   6.534  0.1856  0.0322 -0.0257
 1006YOPC   C3A14905  16.810  13.180   6.946 -0.2187  0.3042  0.0605
 1006YOPC   C4A14906  16.806  13.250   7.340  0.0324  0.0569 -0.0278
 1006YOPC   C1B14907  17.427  12.451   6.885 -0.0385  0.1571 -0.2330
 1006YOPC   C2B14908  17.713  12.697   7.158  0.0974  0.0363 -0.1202
 1006YOPC   D3B14909  17.647  12.798   7.557 -0.1296 -0.2264 -0.1864
 1006YOPC   C4B14910  17.332  12.807   7.720 -0.0327 -0.2836  0.0369
 1007YOPC   NC314911  15.814   0.549   5.623  0.1648 -0.0478  0.1353
 1007YOPC   PO414912  15.738   0.125   5.408 -0.1178  0.0672 -0.0723
 1007YOPC   GL114913  15.591   0.158   5.784  0.0473 -0.0509  0.4481
 1007YOPC   GL214914  15.405   0.056   5.897  0.0293  0.0704 -0.0091
 1007YOPC   C1A14915  15.523   0.400   6.182  0.2581  0.1326  0.1024
 1007YOPC   D2A14916  15.292   0.339   6.641  0.0362  0.2178 -0.3240
 1007YOPC   C3A14917  15.517   0.175   6.998  0.0441 -0.0820  0.1145
 1007YOPC   C4A14918  15.435  -0.107   7.315 -0.0887 -0.1746 -0.0028
 1007YOPC   C1B14919  15.455  -0.073   6.400  0.3787 -0.0983 -0.1692
 1007YOPC   C2B14920  15.298  -0.240   6.800  0.1247  0.1367  0.3167
 1007YOPC   D3B14921  15.446  -0.524   7.047  0.1606 -0.0053  0.2203
 1007YOPC   C4B14922  15.715  -0.588   7.273 -0.3760 -0.2792 -0.1669
 1008YOPC   NC314923   9.060   7.480   6.210  0.0001  0.1113  0.0749
 1008YOPC   PO414924   9.371   7.160   6.131  0.0934  0.2036 -0.0669
 1008YOPC   GL114925   9.358   7.291   6.571 -0.1734 -0.0562 -0.2137
 1008YOPC   GL214926   9.537   7.605   6.511 -0.1219  0.1416 -0.0478
 1008YOPC   C1A14927   9.533   7.117   6.998 -0.2884  0.1011  0.2237
 1008YOPC   D2A14928   9.646   6.721   7.317  0.1046 -0.0615  0.2507
 1008YOPC   C3A14929   9.340   6.451   7.546 -0.1850  0.0573 -0.0585
 1008YOPC   C4A14930   9.219   6.337   7.862 -0.0084 -0.2421 -0.1422
 1008YOPC   C1B14931   9.600   7.595   6.872 -0.0555 -0.0700 -0.1196
 1008YOPC   C2B14932   9.534   7.578   7.320 -0.2815 -0.1118  0.1476
 1008YOPC   D3B14933   9.578   7.262   7.544  0.0240 -0.0234  0.3665
 1008YOPC   C4B14934   9.530   6.869   7.819  0.0287  0.0880 -0.2331
 1009YOPC   NC314935   7.385  16.902   5.536 -0.0579  0.0130 -0.1160
 1009YOPC   PO414936   7.359  17.301   5.791 -0.4722  0.3498  0.2419
 1009YOPC   GL114937   7.494  17.339   6.210 -0.1535  0.3992 -0.2278
 1009YOPC   GL214938   7.816  17.457   6.405  0.0914 -0.5253  0.0488
 1009YOPC   C1A14939   7.530  17.083   6.656 -0.1096 -0.0806 -0.1283
 1009YOPC   D2A14940   7.640  16.988   7.095 -0.1054  0.0637 -0.0950
 1009YOPC   C3A14941   7.851  17.388   7.301 -0.0128 -0.0268  0.2407
 1009YOPC   C4A14942   7.905  17.499   7.792  0.2839 -0.2554 -0.2043
 1009YOPC   C1B14943   7.745  17.490   6.821  0.0801  0.4077  0.0766
 1009YOPC   C2B14944   7.604  17.793   7.149  0.0672 -0.0802 -0.0143
 1009YOPC   D3B14945   7.483  17.685   7.544 -0.1985 -0.3137  0.1606
 1009YOPC   C4B14946   7.229  17.472   7.790 -0.2691  0.0487 -0.2347
 1010YOPC   NC314947   2.882   5.376   5.756 -0.0485  0.2438 -0.1898
 1010YOPC   PO414948   2.735   5.665   6.060  0.0305  0.2207 -0.2177
 1010YOPC   GL114949   2.568   5.739   6.428 -0.0043 -0.2140 -0.3612
 1010YOPC   GL214950   2.724   5.685   6.651 -0.0008  0.1276 -0.1592
 1010YOPC   C1A14951   2.360   5.899   6.826 -0.0107  0.1640 -0.2540
 1010YOPC   D2A14952   2.143   5.722   7.046 -0.0997 -0.0866 -0.0704
 1010YOPC   C3A14953   2.019   5.858   7.446 -0.1557 -0.2055 -0.1699
 1010YOPC   C4A14954   2.016   5.970   7.901 -0.3930 -0.3166 -0.4552
 1010YOPC   C1B14955   2.511   5.442   7.068  0.1505  0.0097 -0.0161
 1010YOPC   C2B14956   2.568   5.078   7.230  0.1755  0.0928 -0.2880
 1010YOPC   D3B14957   2.393   5.072   7.678 -0.0002 -0.0929 -0.2249
 1010YOPC   C4B14958   2.224   5.424   7.855  0.0980  0.2406 -0.1602
 1011YOPC   NC314959   3.184  10.568   6.495 -0.0605  0.0168  0.0716
 1011YOPC   PO414960   3.018  10.165   6.417 -0.4647  0.0926 -0.1577
 1011YOPC   GL114961   3.099   9.890   6.787  0.1479 -0.0169 -0.0756
 1011YOPC   GL214962   3.032   9.553   6.796 -0.2945 -0.1851 -0.1723
 1011YOPC   C1A14963   3.341   9.851   7.180  0.1921  0.1608 -0.1569
 1011YOPC   D2A14964   3.643  10.050   7.353 -0.2245  0.0750  0.2213
 1011YOPC   C3A14965   3.985  10.100   7.155  0.0027 -0.0584  0.0347
 1011YOPC   C4A14966   4.325   9.961   6.880  0.2174 -0.1053  0.2118
 1011YOPC   C1B14967   2.949   9.511   7.215 -0.2455 -0.1057  0.0637
 1011YOPC   C2B14968   2.693   9.460   7.472 -0.0775  0.0377 -0.1691
 1011YOPC   D3B14969   2.552   9.558   7.893 -0.0682  0.1598  0.2467
 1011YOPC   C4B14970   2.335   9.390   8.200 -0.1278  0.0289 -0.0526
 1012YOPC   NC314971  13.789   9.183   5.866  0.2923 -0.0531  0.1999
 1012YOPC   PO414972  13.475   8.829   5.848  0.0408 -0.3835  0.1548
 1012YOPC   GL114973  13.657   8.803   6.305 -0.1308  0.0555 -0.0200
 1012YOPC   GL214974  13.594   8.467   6.420  0.3442  0.1048 -0.0356
 1012YOPC   C1A14975  13.759   8.988   6.817 -0.1673  0.0996 -0.1914
 1012YOPC   D2A14976  13.498   9.014   7.128  0.0518 -0.1506 -0.2949
 1012YOPC   C3A14977  13.115   8.792   7.245 -0.2430 -0.1333 -0.1735
 1012YOPC   C4A14978  12.910   8.569   7.615  0.1132 -0.1408  0.0240
 1012YOPC   C1B14979  13.525   8.539   6.936  0.1122  0.2960  0.2059
 1012YOPC   C2B14980  13.472   8.390   7.365 -0.1407 -0.2150  0.0655
 1012YOPC   D3B14981  13.525   8.690   7.698  0.2743 -0.1476  0.0477
 1012YOPC   C4B14982  13.659   9.133   7.677  0.2424 -0.4337  0.2690
 1013YOPC   NC314983   6.346  11.639   6.445  0.2014  0.1891  0.3078
 1013YOPC   PO414984   6.810  11.777   6.356  0.1242  0.0202 -0.3297
 1013YOPC   GL114985   7.006  11.809   6.630 -0.2096 -0.1404  0.0284
 1013YOPC   GL214986   7.241  11.605   6.710 -0.1226  0.3204  0.1634
 1013YOPC   C1A14987   7.141  12.118   6.916  0.0628 -0.4029  0.1200
 1013YOPC   D2A14988   7.018  12.484   7.039 -0.1265  0.2672 -0.1878
 1013YOPC   C3A14989   6.937  12.903   7.038 -0.1482 -0.1197  0.3521
 1013YOPC   C4A14990   6.784  13.241   6.751  0.3005  0.2632  0.0278
 1013YOPC   C1B14991   7.484  11.752   7.017 -0.2145  0.0508  0.3134
 1013YOPC   C2B14992   7.742  11.532   7.318  0.0156 -0.0634 -0.1265
 1013YOPC   D3B14993   8.135  11.508   7.255  0.0203 -0.0131  0.2055
 1013YOPC   C4B14994   8.204  11.343   6.858 -0.0953  0.1451 -0.2113
 1014YOPC   NC314995  11.204   2.287   5.793 -0.2197  0.1756 -0.4404
 1014YOPC   PO414996  10.791   2.226   5.982  0.0948  0.3049  0.0475
 1014YOPC   GL114997  11.000   2.331   6.340  0.4574  0.1515 -0.2194
 1014YOPC   GL214998  10.833   2.558   6.422 -0.0935  0.2308 -0.0690
 1014YOPC   C1A14999  11.330   2.450   6.711  0.0009  0.3117  0.0910
 1014YOPC   D2A15000  11.365   2.465   7.164 -0.1741 -0.0999  0.2301
 1014YOPC   C3A15001  11.690   2.370   7.376 -0.3506  0.3750 -0.1087
 1014YOPC   C4A15002  11.674   2.051   7.622  0.1266 -0.2184  0.3273
 1014YOPC   C1B15003  10.838   2.568   6.930 -0.2646  0.0978 -0.2858
 1014YOPC   C2B15004  10.953   2.749   7.325 -0.1008 -0.0288 -0.0063
 1014YOPC   D3B15005  10.754   2.711   7.710  0.1731 -0.0419 -0.0108
 1014YOPC   C4B15006  10.622   2.746   8.093  0.0193 -0.0320 -0.0977
 1015YOPC   NC315007  17.781   3.582   5.835 -0.1465  0.0910  0.2010
 1015YOPC   PO415008  18.205   3.726   5.914 -0.0893 -0.2301  0.1319
 1015YOPC   GL115009  18.232   3.838   6.317 -0.0478 -0.2136 -0.2562
 1015YOPC   GL215010  18.530   4.034   6.355 -0.1143 -0.1748 -0.2592
 1015YOPC   C1A15011  18.051   4.102   6.608  0.0575  0.2813 -0.1786
 1015YOPC   D2A15012  17.883   4.023   6.996  0.0936 -0.1654  0.0605
 1015YOPC   C3A15013  17.630   3.769   7.135 -0.3356 -0.0562  0.2854
 1015YOPC   C4A15014  17.532   3.366   7.035 -0.0628 -0.2200 -0.0414
 1015YOPC   C1B15015  18.467   3.874   6.766  0.1584  0.2501 -0.0816
 1015YOPC   C2B15016  18.433   3.920   7.085  0.0983 -0.2283 -0.1214
 1015YOPC   D3B15017  18.397   3.612   7.423  0.0623  0.0595  0.0473
 1015YOPC   C4B15018  18.170   3.368   7.771 -0.0631 -0.0526  0.1814
 1016YOPC   NC315019   7.173  14.444   6.062  0.2516  0.1009  0.2320
 1016YOPC   PO415020   7.563  14.429   6.051  0.2309 -0.1624 -0.0648
 1016YOPC   GL115021   7.581  14.516   6.452  0.2029  0.0322 -0.2229
 1016YOPC   GL215022   7.306  14.426   6.526 -0.1541 -0.0208  0.1796
 1016YOPC   C1A15023   7.623  14.658   6.862 -0.1006 -0.0097 -0.0870
 1016YOPC   D2A15024   7.575  14.860   7.267 -0.1728 -0.3047 -0.0358
 1016YOPC   C3A15025   7.401  14.837   7.676  0.3390  0.0446 -0.0141
 1016YOPC   C4A15026   7.187  14.561   7.994  0.3625  0.1349  0.1998
 1016YOPC   C1B15027   7.263  14.284   6.929  0.3166 -0.0003 -0.0516
 1016YOPC   C2B15028   7.275  13.897   7.269 -0.0883  0.2332 -0.0784
 1016YOPC   D3B15029   7.283  13.920   7.731 -0.0522  0.0486  0.1994
 1016YOPC   C4B15030   7.562  14.233   7.969 -0.0021 -0.0785  0.0836
 1017YOPC   NC315031   4.722   8.232   5.873 -0.2342 -0.3155  0.1710
 1017YOPC   PO415032   5.099   8.231   6.073  0.0944 -0.0607 -0.0738
 1017YOPC   GL115033   5.206   8.168   6.453  0.0977  0.2098  0.0024
 1017YOPC   GL215034   5.045   7.944   6.644  0.1939 -0.0030 -0.1537
 1017YOPC   C1A15035   5.494   8.540   6.715  0.0778  0.1489 -0.0463
 1017YOPC   D2A15036   5.700   8.700   6.969 -0.1000 -0.1635 -0.2226
 1017YOPC   C3A15037   6.051   8.798   7.115  0.1509 -0.2793 -0.4231
 1017YOPC   C4A15038   6.395   8.929   6.855  0.1252 -0.1557  0.1821
 1017YOPC   C1B15039   5.291   8.094   6.989 -0.0670  0.3455  0.0432
 1017YOPC   C2B15040   5.244   8.222   7.372  0.0466  0.0546  0.0521
 1017YOPC   D3B15041   5.425   8.134   7.766  0.0223  0.3142  0.0906
 1017YOPC   C4B15042   5.233   8.026   8.085 -0.3268 -0.1870  0.0662
 1018YOPC   NC315043   5.808   5.013   5.177 -0.2967 -0.0131 -0.4483
 1018YOPC   PO415044   5.651   5.160   5.525  0.2326 -0.2422 -0.0783
 1018YOPC   GL115045   5.668   5.033   5.952  0.1929 -0.0131 -0.0240
 1018YOPC   GL215046   5.839   5.169   6.190 -0.1876  0.0355 -0.1929
 1018YOPC   C1A15047   5.772   4.654   6.165  0.1876 -0.0144  0.0806
 1018YOPC   D2A15048   5.585   4.347   6.271 -0.0698  0.1739 -0.0644
 1018YOPC   C3A15049   5.794   3.879   6.301 -0.0540  0.2806  0.1486
 1018YOPC   C4A15050   6.090   3.409   6.380 -0.1180 -0.3380  0.0693
 1018YOPC   C1B15051   6.010   4.990   6.582  0.0082  0.0326 -0.3301
 1018YOPC   C2B15052   6.273   5.073   7.003 -0.1885  0.0459 -0.1336
 1018YOPC   D3B15053   6.107   5.110   7.333  0.0464  0.1409  0.0726
 1018YOPC   C4B15054   6.027   5.472   7.475  0.0857  0.3030  0.1325
 1019YOPC   NC315055   5.599  10.777   6.242  0.1617  0.2551 -0.0750
 1019YOPC   PO415056   5.767  10.334   6.293  0.3547 -0.0343  0.0388
 1019YOPC   GL115057   5.513  10.324   6.680 -0.0327  0.0086  0.0000
 1019YOPC   GL215058   5.810  10.119   6.745 -0.1433  0.2623  0.0971
 1019YOPC   C1A15059   5.598  10.298   7.144 -0.0203 -0.0679  0.0260
 1019YOPC   D2A15060   5.728  10.346   7.509 -0.1614  0.0333  0.3151
 1019YOPC   C3A15061   5.856   9.961   7.754 -0.0931  0.2645 -0.1164
 1019YOPC   C4A15062   5.977   9.890   8.203  0.1124 -0.2831  0.0195
 1019YOPC   C1B15063   5.885   9.909   7.170 -0.1725  0.0089  0.1844
 1019YOPC   C2B15064   5.974   9.510   7.397 -0.0758 -0.0932 -0.2433
 1019YOPC   D3B15065   6.003   9.422   7.823 -0.1998  0.1772  0.0157
 1019YOPC   C4B15066   6.299   9.450   8.223  0.1239  0.0981  0.2641
 1020YOPC   NC315067   3.431  17.728   5.730 -0.2107  0.1776 -0.1995
 1020YOPC   PO415068   3.699  17.727   6.076 -0.4301  0.4528 -0.2835
 1020YOPC   GL115069   3.639  17.577   6.418 -0.0327 -0.2357  0.0202
 1020YOPC   GL215070   3.963  17.602   6.453  0.3063  0.0037 -0.0750
 1020YOPC   C1A15071   3.486  17.625   6.773 -0.1885 -0.2288 -0.0551
 1020YOPC   D2A15072   3.600  17.544   7.223 -0.2010 -0.0609  0.0639
 1020YOPC   C3A15073   3.646  17.703   7.677 -0.0316  0.2137  0.3063
 1020YOPC   C4A15074   3.740  17.767   8.011 -0.0356 -0.1455  0.1915
 1020YOPC   C1B15075   3.963  17.794   6.836  0.2294  0.2522  0.1381
 1020YOPC   C2B15076   4.045  17.767   7.239  0.1498 -0.0230  0.0240
 1020YOPC   D3B15077   4.276  18.011   7.315  0.1218  0.2164 -0.0161
 1020YOPC   C4B15078   4.491  18.181   7.654 -0.1006  0.0808 -0.1370
 1021YOPC   NC315079  17.420  15.734   5.594 -0.0769  0.1377  0.0273
 1021YOPC   PO415080  17.071  15.662   5.397 -0.2533 -0.0442 -0.2604
 1021YOPC   GL115081  16.953  15.843   5.857 -0.4505  0.2513  0.0335
 1021YOPC   GL215082  16.969  15.583   6.045 -0.1313  0.2359 -0.2503
 1021YOPC   C1A15083  16.871  16.120   6.254 -0.0792 -0.1527  0.3424
 1021YOPC   D2A15084  16.937  15.996   6.688 -0.1820  0.2532  0.0686
 1021YOPC   C3A15085  17.036  16.202   7.042 -0.2329 -0.2348  0.1462
 1021YOPC   C4A15086  17.120  16.175   7.503 -0.0479 -0.1109  0.2437
 1021YOPC   C1B15087  16.868  15.531   6.487  0.0873  0.2080  0.1483
 1021YOPC   C2B15088  16.712  15.445   6.846  0.0335 -0.1109 -0.0636
 1021YOPC   D3B15089  16.946  15.676   7.196  0.0764 -0.1699 -0.1447
 1021YOPC   C4B15090  17.075  15.655   7.567 -0.0400 -0.1394 -0.0444
 1022YOPC   NC315091  15.199  13.240   5.942  0.0639 -0.2289 -0.0418
 1022YOPC   PO415092  15.545  13.250   6.147  0.2133 -0.1805 -0.2770
 1022YOPC   GL115093  15.525  13.058   6.526 -0.1035  0.0067  0.0139
 1022YOPC   GL215094  15.806  13.063   6.531  0.1290  0.2340  0.2223
 1022YOPC   C1A15095  15.467  12.851   6.895  0.0736 -0.1490  0.0349
 1022YOPC   D2A15096  15.642  12.936   7.229  0.2012 -0.0546 -0.0756
 1022YOPC   C3A15097  15.480  12.923   7.628  0.0352  0.1284  0.1039
 1022YOPC   C4A15098  15.233  12.961   7.865 -0.0111 -0.1877 -0.2624
 1022YOPC   C1B15099  15.804  13.304   6.870  0.0363  0.1396  0.0484
 1022YOPC   C2B15100  15.709  13.598   7.073  0.1797  0.2964  0.0574
 1022YOPC   D3B15101  15.955  13.670   7.441 -0.2804  0.1432 -0.0885
 1022YOPC   C4B15102  16.213  14.008   7.640 -0.1024 -0.2603  0.1553
 1023YOPC   NC315103  12.948  13.803   5.014 -0.3843  0.1959 -0.0602
 1023YOPC   PO415104  12.801  13.626   5.319 -0.0659  0.0283 -0.2787
 1023YOPC   GL115105  12.793  13.589   5.722 -0.0781 -0.1546 -0.1066
 1023YOPC   GL215106  12.689  13.773   5.872 -0.0332 -0.1402  0.2449
 1023YOPC   C1A15107  13.041  13.423   6.141 -0.0317  0.1338 -0.1222
 1023YOPC   D2A15108  13.204  13.653   6.538  0.0743 -0.0379  0.0901
 1023YOPC   C3A15109  13.465  13.519   6.923  0.2712  0.2274 -0.2061
 1023YOPC   C4A15110  13.570  13.475   7.314 -0.0642 -0.0212  0.2799
 1023YOPC   C1B15111  12.571  13.537   6.259 -0.0005  0.1676 -0.1380
 1023YOPC   C2B15112  12.643  13.610   6.674  0.1115  0.0240 -0.0317
 1023YOPC   D3B15113  12.457  13.290   6.884 -0.0208  0.2865 -0.0123
 1023YOPC   C4B15114  12.563  12.933   7.044 -0.0438 -0.1765  0.1535
 1024YOPC   NC315115  10.718  15.746   5.779 -0.2863  0.2400  0.2391
 1024YOPC   PO415116  10.776  16.202   5.718  0.1116  0.2455 -0.0217
 1024YOPC   GL115117  10.729  16.143   6.141  0.4648 -0.2192  0.1546
 1024YOPC   GL215118  10.495  16.224   6.395 -0.2315  0.1169 -0.3490
 1024YOPC   C1A15119  10.717  15.791   6.483  0.0071  0.1512  0.1061
 1024YOPC   D2A15120  10.824  15.800   6.778 -0.1495 -0.0293  0.0313
 1024YOPC   C3A15121  11.210  15.836   6.763 -0.1076  0.0366  0.0148
 1024YOPC   C4A15122  11.662  16.062   6.885 -0.1147 -0.0898  0.3415
 1024YOPC   C1B15123  10.300  16.179   6.864  0.1555  0.2706  0.0534
 1024YOPC   C2B15124  10.272  15.883   7.132  0.2504 -0.0197 -0.2612
 1024YOPC   D3B15125  10.664  15.952   7.275  0.1533  0.2566  0.1816
 1024YOPC   C4B15126  11.044  15.736   7.288  0.2947 -0.0649  0.0278
 1025YOPC   NC315127   5.058  18.074   5.440  0.0763  0.2383 -0.0114
 1025YOPC   PO415128   5.430  18.141   5.653 -0.2795  0.1728  0.1201
 1025YOPC   GL115129   5.369  18.108   6.102  0.1028  0.2608  0.0012
 1025YOPC   GL215130   5.421  18.238   6.389  0.1537 -0.0888  0.0870
 1025YOPC   C1A15131   5.017  17.977   6.328  0.1174  0.2450 -0.0670
 1025YOPC   D2A15132   4.890  17.698   6.620  0.0781  0.2822  0.2555
 1025YOPC   C3A15133   4.956  17.641   6.992 -0.2524  0.3629  0.0309
 1025YOPC   C4A15134   5.165  17.482   7.324 -0.1428  0.1090 -0.0690
 1025YOPC   C1B15135   5.448  17.932   6.718  0.4983 -0.3769 -0.0649
 1025YOPC   C2B15136   5.327  17.923   7.131  0.0410  0.3522  0.1260
 1025YOPC   D3B15137   5.631  17.809   7.544 -0.1345 -0.0799  0.2958
 1025YOPC   C4B15138   5.889  17.690   7.943  0.3944  0.3629  0.0817
 1026YOPC   NC315139  13.399   4.793   5.766  0.0126 -0.1183 -0.1157
 1026YOPC   PO415140  13.216   5.196   5.599  0.0386 -0.0803  0.0696
 1026YOPC   GL115141  13.155   5.279   6.064 -0.1268  0.3397  0.1595
 1026YOPC   GL215142  13.229   5.036   6.122 -0.1452  0.1401  0.4214
 1026YOPC   C1A15143  13.017   5.303   6.553  0.0139  0.2607  0.1353
 1026YOPC   D2A15144  13.005   5.248   6.998 -0.0426  0.2297 -0.3436
 1026YOPC   C3A15145  13.378   5.341   7.311 -0.4747 -0.0654 -0.2457
 1026YOPC   C4A15146  13.382   5.398   7.724 -0.3772 -0.1119 -0.3418
 1026YOPC   C1B15147  13.231   4.816   6.583 -0.0337  0.0637 -0.1033
 1026YOPC   C2B15148  13.267   4.788   6.982 -0.1540 -0.2608  0.2933
 1026YOPC   D3B15149  13.290   4.756   7.367 -0.0373  0.1120 -0.2446
 1026YOPC   C4B15150  13.425   4.907   7.796 -0.0997  0.1747 -0.0466
 1027YOPC   NC315151   5.137  16.071   5.291  0.0752  0.0096 -0.0392
 1027YOPC   PO415152   5.062  15.895   5.658 -0.0106 -0.5544 -0.0577
 1027YOPC   GL115153   4.955  15.765   6.135 -0.0234  0.1254  0.2753
 1027YOPC   GL215154   5.165  15.508   6.301 -0.1629  0.3042  0.1206
 1027YOPC   C1A15155   4.682  16.095   6.296 -0.2173 -0.2950  0.1797
 1027YOPC   D2A15156   4.615  16.373   6.640 -0.0156  0.0403 -0.0392
 1027YOPC   C3A15157   4.709  16.091   7.030 -0.3790 -0.1085  0.4286
 1027YOPC   C4A15158   4.757  15.825   7.144 -0.0553  0.2809  0.0769
 1027YOPC   C1B15159   5.064  15.780   6.663 -0.2436  0.0203 -0.2571
 1027YOPC   C2B15160   5.105  16.152   6.632 -0.2302  0.1876 -0.1844
 1027YOPC   D3B15161   5.045  16.447   6.889  0.4000  0.2134 -0.0947
 1027YOPC   C4B15162   5.341  16.498   7.294  0.1430 -0.1842  0.0671
 1028YOPC   NC315163  12.144   6.324   6.133  0.0073  0.0957 -0.1692
 1028YOPC   PO415164  12.555   6.413   6.091  0.1204  0.1289 -0.1618
 1028YOPC   GL115165  12.731   6.359   6.489  0.0901 -0.1583 -0.3737
 1028YOPC   GL215166  12.764   6.612   6.582 -0.2060 -0.1538  0.1411
 1028YOPC   C1A15167  12.817   6.125   6.798 -0.1556 -0.0397  0.0895
 1028YOPC   D2A15168  13.081   6.328   7.099 -0.1129  0.1168  0.0409
 1028YOPC   C3A15169  12.986   6.193   7.516 -0.1939  0.1054  0.2790
 1028YOPC   C4A15170  13.104   5.789   7.694 -0.2990  0.0982  0.2772
 1028YOPC   C1B15171  12.683   6.594   6.968  0.0007  0.0808  0.1496
 1028YOPC   C2B15172  12.760   6.640   7.399 -0.0386  0.0060 -0.2266
 1028YOPC   D3B15173  12.685   6.936   7.774  0.0235  0.0064 -0.1024
 1028YOPC   C4B15174  12.841   7.091   8.231  0.3636  0.1638  0.1099
 1029YOPC   NC315175   1.525   1.377   5.727 -0.0865  0.0500 -0.1393
 1029YOPC   PO415176   1.296   1.588   5.996 -0.0795  0.0847  0.1489
 1029YOPC   GL115177   1.156   1.779   6.363  0.0347  0.0385  0.2472
 1029YOPC   GL215178   1.372   2.011   6.476  0.1866 -0.0292  0.2507
 1029YOPC   C1A15179   0.926   1.734   6.794  0.0266  0.2401  0.0081
 1029YOPC   D2A15180   0.898   1.696   7.314 -0.1692 -0.1373  0.4009
 1029YOPC   C3A15181   0.748   1.438   7.592 -0.1533 -0.0931 -0.2293
 1029YOPC   C4A15182   0.398   1.592   7.895  0.0139 -0.1675  0.2154
 1029YOPC   C1B15183   1.367   1.981   6.865  0.0819  0.2585  0.1011
 1029YOPC   C2B15184   1.389   2.013   7.368 -0.0824 -0.2103  0.1594
 1029YOPC   D3B15185   1.611   1.921   7.811 -0.3037 -0.0488  0.1254
 1029YOPC   C4B15186   1.866   1.943   8.120  0.2342 -0.0809 -0.0007
 1030YOPC   NC315187  12.053   3.604   5.760 -0.0722 -0.0532  0.1185
 1030YOPC   PO415188  11.789   4.001   5.884 -0.1347 -0.2197 -0.0644
 1030YOPC   GL115189  12.074   3.852   6.201 -0.3857  0.0321  0.0712
 1030YOPC   GL215190  11.880   3.563   6.256 -0.0881  0.0873  0.1667
 1030YOPC   C1A15191  12.173   3.828   6.691  0.1289  0.0942 -0.0512
 1030YOPC   D2A15192  11.922   3.867   7.124  0.0170 -0.1595 -0.2947
 1030YOPC   C3A15193  11.957   3.964   7.543 -0.1001 -0.0016  0.0579
 1030YOPC   C4A15194  11.969   4.089   7.930 -0.1017 -0.3068  0.1125
 1030YOPC   C1B15195  11.682   3.704   6.665 -0.2426  0.4172 -0.2410
 1030YOPC   C2B15196  11.589   3.485   7.006  0.1008  0.3462  0.1918
 1030YOPC   D3B15197  11.633   3.592   7.475 -0.0011  0.0845 -0.0065
 1030YOPC   C4B15198  11.751   3.674   7.953  0.1363  0.0678  0.0436
 1031YOPC   NC315199  15.114   7.561   5.910 -0.0460  0.0010 -0.0246
 1031YOPC   PO415200  15.031   7.139   5.815  0.2983 -0.1122 -0.2181
 1031YOPC   GL115201  14.931   6.999   6.236  0.1853  0.0973  0.1515
 1031YOPC   GL215202  15.005   7.267   6.325  0.1839  0.0541  0.0400
 1031YOPC   C1A15203  14.790   7.007   6.737  0.2651  0.0542 -0.1888
 1031YOPC   D2A15204  14.700   6.946   7.146  0.2964  0.2239 -0.0135
 1031YOPC   C3A15205  14.705   6.977   7.667  0.1032  0.1285  0.0308
 1031YOPC   C4A15206  14.635   7.287   7.991 -0.0776  0.3723 -0.1438
 1031YOPC   C1B15207  14.812   7.549   6.653 -0.0537 -0.1663 -0.0126
 1031YOPC   C2B15208  14.928   7.845   6.968  0.0562  0.0167  0.0795
 1031YOPC   D3B15209  14.676   8.014   7.201 -0.1229  0.0982 -0.3409
 1031YOPC   C4B15210  14.620   8.058   7.476  0.0413 -0.2183 -0.0450
 1032YOPC   NC315211   0.139  15.194   5.612  0.0572  0.3946 -0.0543
 1032YOPC   PO415212   0.519  15.164   5.768  0.1686  0.2636 -0.0574
 1032YOPC   GL115213   0.688  15.049   6.166  0.3035  0.0395 -0.1502
 1032YOPC   GL215214   0.689  15.326   6.356 -0.1924 -0.1098 -0.3639
 1032YOPC   C1A15215   1.114  15.127   6.457  0.0276  0.1480  0.0999
 1032YOPC   D2A15216   1.569  15.292   6.708 -0.0444 -0.0909 -0.1371
 1032YOPC   C3A15217   1.488  15.280   7.146  0.1132 -0.0657  0.4667
 1032YOPC   C4A15218   1.842  15.368   7.392 -0.2697  0.1276  0.1006
 1032YOPC   C1B15219   0.715  15.685   6.691 -0.0504 -0.4076 -0.1454
 1032YOPC   C2B15220   0.911  15.826   7.119  0.1011 -0.1643 -0.0527
 1032YOPC   D3B15221   0.937  15.556   7.496  0.1382  0.0076 -0.0326
 1032YOPC   C4B15222   1.055  15.574   7.930  0.2929 -0.2410 -0.1744
 1033YOPC   NC315223   8.995   2.312   5.719  0.0111 -0.1739  0.0624
 1033YOPC   PO415224   9.427   2.247   5.698 -0.0304 -0.0944 -0.0950
 1033YOPC   GL115225   9.289   1.992   6.045 -0.1126  0.0765 -0.1282
 1033YOPC   GL215226   9.211   1.598   6.082  0.3201  0.0783 -0.0643
 1033YOPC   C1A15227   9.432   2.069   6.436  0.1358  0.0405  0.2850
 1033YOPC   D2A15228   9.499   2.027   6.816 -0.0482 -0.4674  0.2744
 1033YOPC   C3A15229   9.336   2.293   7.166  0.0082 -0.2352  0.0679
 1033YOPC   C4A15230   9.417   2.552   7.457  0.1020  0.2263 -0.1226
 1033YOPC   C1B15231   9.045   1.660   6.441 -0.2611  0.0547  0.1483
 1033YOPC   C2B15232   9.099   1.510   6.800  0.0247 -0.0560  0.3249
 1033YOPC   D3B15233   9.258   1.703   7.134  0.1003  0.0050 -0.0293
 1033YOPC   C4B15234   9.334   1.597   7.503  0.2025 -0.4090  0.0888
 1034YOPC   NC315235   1.097  15.758   5.691 -0.2258  0.1278  0.1432
 1034YOPC   PO415236   1.480  15.769   5.827 -0.0331  0.1748 -0.2157
 1034YOPC   GL115237   1.399  15.740   6.142 -0.1164  0.0280  0.0550
 1034YOPC   GL215238   1.674  15.643   6.311  0.0563 -0.3594  0.2295
 1034YOPC   C1A15239   1.225  15.597   6.463 -0.1763 -0.0101  0.0865
 1034YOPC   D2A15240   1.128  15.474   6.869  0.0620 -0.0890 -0.1243
 1034YOPC   C3A15241   0.691  15.234   6.932 -0.0163  0.2294 -0.1180
 1034YOPC   C4A15242   0.643  14.921   6.637  0.0283  0.1980 -0.0709
 1034YOPC   C1B15243   1.775  15.768   6.780  0.0875  0.0392  0.1190
 1034YOPC   C2B15244   1.411  15.857   7.054 -0.0303  0.0432  0.1139
 1034YOPC   D3B15245   1.424  15.680   7.466 -0.2219 -0.1497 -0.0237
 1034YOPC   C4B15246   1.312  15.240   7.626  0.1102  0.0956 -0.2118
 1035YOPC   NC315247   3.799  11.180   6.265 -0.1115  0.1560 -0.1655
 1035YOPC   PO415248   4.150  10.877   6.353 -0.0891 -0.1174 -0.2062
 1035YOPC   GL115249   4.368  10.779   6.754 -0.0182  0.3434 -0.1761
 1035YOPC   GL215250   4.492  10.963   6.976  0.3565  0.0005 -0.2060
 1035YOPC   C1A15251   4.396  10.484   7.130  0.0766  0.2290 -0.0270
 1035YOPC   D2A15252   4.559  10.114   7.349  0.0123  0.1586  0.1050
 1035YOPC   C3A15253   4.539  10.071   7.772 -0.2471 -0.1033  0.0955
 1035YOPC   C4A15254   4.379   9.751   7.978  0.1355  0.2242 -0.0835
 1035YOPC   C1B15255   4.500  10.995   7.393 -0.4448  0.0977  0.1666
 1035YOPC   C2B15256   4.432  10.821   7.776  0.1644 -0.0101 -0.3379
 1035YOPC   D3B15257   4.579  10.455   8.087 -0.0978  0.0807  0.0662
 1035YOPC   C4B15258   4.604  10.057   8.264  0.2534  0.1042  0.0262
 1036YOPC   NC315259   0.164  12.652   6.001  0.0637  0.0102  0.1824
 1036YOPC   PO415260   0.426  12.347   6.214 -0.0825 -0.0544  0.0893
 1036YOPC   GL115261   0.422  12.299   6.624  0.1535 -0.1638  0.0843
 1036YOPC   GL215262   0.247  12.004   6.777 -0.0464 -0.1903 -0.2119
 1036YOPC   C1A15263   0.365  12.332   7.074  0.2976  0.2068 -0.3923
 1036YOPC   D2A15264   0.304  12.279   7.470  0.0625  0.0235  0.0066
 1036YOPC   C3A15265   0.591  12.356   7.726 -0.3766 -0.1969 -0.2389
 1036YOPC   C4A15266   1.037  12.484   7.732 -0.0211 -0.0553 -0.3405
 1036YOPC   C1B15267   0.178  11.858   7.208  0.2938  0.0924  0.0060
 1036YOPC   C2B15268   0.366  11.857   7.693  0.0126  0.2936 -0.0114
 1036YOPC   D3B15269   0.855  11.804   7.830 -0.0154  0.2303  0.1434
 1036YOPC   C4B15270   1.238  11.674   7.924  0.0906  0.1729 -0.0054
 1037YOPC   NC315271  14.788   0.469   5.202  0.0220  0.2807 -0.1550
 1037YOPC   PO415272  14.962   0.819   5.437  0.1905  0.3939  0.3437
 1037YOPC   GL115273  14.914   0.931   5.863 -0.2028 -0.1172  0.4112
 1037YOPC   GL215274  14.627   1.141   5.955 -0.0484  0.0455  0.0009
 1037YOPC   C1A15275  15.102   1.089   6.274 -0.3124  0.0972 -0.0217
 1037YOPC   D2A15276  15.365   1.409   6.282 -0.1485  0.4945  0.2157
 1037YOPC   C3A15277  15.261   1.685   6.486  0.1663  0.0622 -0.1612
 1037YOPC   C4A15278  15.037   1.884   6.861 -0.0220  0.0706  0.1376
 1037YOPC   C1B15279  14.499   0.976   6.348 -0.0682  0.0317 -0.3641
 1037YOPC   C2B15280  14.522   0.963   6.745  0.0204  0.1686  0.1645
 1037YOPC   D3B15281  14.599   1.069   7.115  0.1235 -0.0988  0.6122
 1037YOPC   C4B15282  14.335   1.322   7.405 -0.0945 -0.0302  0.0641
 1038YOPC   NC315283  10.071   8.475   5.596  0.2168  0.1318 -0.0210
 1038YOPC   PO415284   9.963   8.520   6.145  0.0155  0.1321 -0.0324
 1038YOPC   GL115285   9.833   8.487   6.567  0.3151  0.0687  0.1202
 1038YOPC   GL215286   9.606   8.601   6.700  0.0940 -0.1727 -0.2327
 1038YOPC   C1A15287  10.029   8.521   6.995  0.1278  0.3214  0.1217
 1038YOPC   D2A15288  10.417   8.569   7.253  0.2258 -0.2716 -0.0177
 1038YOPC   C3A15289  10.357   8.947   7.550 -0.3181  0.1605 -0.2279
 1038YOPC   C4A15290  10.625   9.139   7.835 -0.3266 -0.0522  0.3564
 1038YOPC   C1B15291   9.447   8.500   7.043 -0.0283 -0.0730 -0.0397
 1038YOPC   C2B15292   9.560   8.621   7.446 -0.1362 -0.2570 -0.1018
 1038YOPC   D3B15293   9.450   9.084   7.468 -0.1307  0.0115  0.2084
 1038YOPC   C4B15294   9.184   9.328   7.803 -0.0294 -0.2960 -0.1503
 1039YOPC   NC315295   0.819   0.227   5.894  0.0979  0.0080 -0.1232
 1039YOPC   PO415296   0.916  -0.263   5.899  0.0899 -0.2481  0.0906
 1039YOPC   GL115297   0.991  -0.433   6.266 -0.1623 -0.1486  0.2983
 1039YOPC   GL215298   1.338  -0.606   6.299  0.1742 -0.2975  0.2624
 1039YOPC   C1A15299   1.070  -0.215   6.640  0.0398 -0.1662  0.0157
 1039YOPC   D2A15300   0.808   0.069   6.866  0.0107 -0.1493 -0.1675
 1039YOPC   C3A15301   0.780   0.468   6.606  0.1638 -0.1206  0.1019
 1039YOPC   C4A15302   0.615   0.875   6.786 -0.3051 -0.1045  0.2605
 1039YOPC   C1B15303   1.327  -0.701   6.618  0.1067 -0.0314  0.0177
 1039YOPC   C2B15304   1.310  -0.613   7.039 -0.0898  0.1714  0.1992
 1039YOPC   D3B15305   1.027  -0.288   7.150 -0.1643  0.2469  0.0341
 1039YOPC   C4B15306   0.779  -0.398   7.541  0.0462 -0.0649 -0.2445
 1040YOPC   NC315307   2.012   3.701   5.848 -0.1430  0.0464 -0.1055
 1040YOPC   PO415308   1.819   3.914   6.066 -0.0832 -0.0848  0.2160
 1040YOPC   GL115309   1.848   4.142   6.390  0.0715 -0.0129 -0.0855
 1040YOPC   GL215310   2.044   4.440   6.502 -0.1315 -0.0894  0.0743
 1040YOPC   C1A15311   1.744   3.978   6.796  0.1100  0.0208 -0.0736
 1040YOPC   D2A15312   1.940   3.730   7.047  0.1098 -0.0245  0.1629
 1040YOPC   C3A15313   2.345   3.474   6.857 -0.0730  0.0926  0.1855
 1040YOPC   C4A15314   2.721   3.298   6.644 -0.1035  0.2016  0.0076
 1040YOPC   C1B15315   2.280   4.634   6.858 -0.3495 -0.1190 -0.0787
 1040YOPC   C2B15316   2.312   4.690   7.291 -0.1546  0.1901  0.0941
 1040YOPC   D3B15317   2.683   4.676   7.474 -0.1547 -0.2884  0.1400
 1040YOPC   C4B15318   2.984   4.743   7.746 -0.1521  0.1887  0.5347
 1041YOPC   NC315319  15.040   1.700   5.138  0.3235  0.1083  0.1485
 1041YOPC   PO415320  14.700   1.887   5.437 -0.2125  0.2393 -0.0284
 1041YOPC   GL115321  14.413   2.130   5.718 -0.0134  0.0466  0.0277
 1041YOPC   GL215322  14.113   2.006   5.817 -0.0815  0.0423  0.0579
 1041YOPC   C1A15323  14.387   2.057   6.193  0.4241 -0.1607 -0.0398
 1041YOPC   D2A15324  14.648   1.871   6.531  0.0070 -0.4600 -0.0963
 1041YOPC   C3A15325  14.554   2.019   6.944  0.1045 -0.0087 -0.0064
 1041YOPC   C4A15326  14.324   2.111   7.274  0.2165 -0.2448 -0.0991
 1041YOPC   C1B15327  13.825   2.023   6.243 -0.3286 -0.1708 -0.2568
 1041YOPC   C2B15328  14.153   2.046   6.627  0.2126  0.0174  0.2708
 1041YOPC   D3B15329  14.092   1.781   6.941 -0.0155 -0.1129 -0.2141
 1041YOPC   C4B15330  13.867   1.454   7.170 -0.3048  0.1838  0.0446
 1042YOPC   NC315331   1.189  12.014   5.898 -0.0649  0.2730  0.1163
 1042YOPC   PO415332   0.823  11.989   6.061  0.0917  0.1604 -0.2845
 1042YOPC   GL115333   0.817  12.072   6.439 -0.1614 -0.1760 -0.0522
 1042YOPC   GL215334   0.690  11.889   6.602 -0.1514  0.2107 -0.0171
 1042YOPC   C1A15335   1.135  12.274   6.707  0.0654 -0.0753 -0.0962
 1042YOPC   D2A15336   1.382  12.660   6.916  0.0741 -0.1862 -0.1084
 1042YOPC   C3A15337   1.280  12.851   7.284 -0.3780 -0.1406  0.1261
 1042YOPC   C4A15338   1.253  12.883   7.684 -0.0264 -0.0464 -0.0983
 1042YOPC   C1B15339   0.749  12.074   6.950 -0.0391 -0.0324 -0.2588
 1042YOPC   C2B15340   0.709  12.014   7.347 -0.1852 -0.1320  0.0197
 1042YOPC   D3B15341   1.028  12.093   7.443 -0.0613  0.2150  0.1579
 1042YOPC   C4B15342   1.256  12.335   7.277  0.1935 -0.0378 -0.0668
 1043YOPC   NC315343   7.898   7.793   6.078  0.0354 -0.0283  0.1208
 1043YOPC   PO415344   8.106   7.409   5.980 -0.1648 -0.1483 -0.1925
 1043YOPC   GL115345   8.112   7.311   6.370 -0.1244  0.1916 -0.0743
 1043YOPC   GL215346   7.923   7.560   6.556 -0.1240 -0.2376  0.0531
 1043YOPC   C1A15347   8.278   7.139   6.753  0.0673 -0.0356 -0.0089
 1043YOPC   D2A15348   8.186   7.079   7.235 -0.0232 -0.3988 -0.0145
 1043YOPC   C3A15349   8.095   7.050   7.605 -0.2527 -0.1514 -0.1493
 1043YOPC   C4A15350   8.065   6.707   7.945 -0.2405 -0.0170  0.0197
 1043YOPC   C1B15351   7.995   7.445   6.999  0.0362 -0.0063 -0.0582
 1043YOPC   C2B15352   8.039   7.557   7.450 -0.0233  0.0379  0.2292
 1043YOPC   D3B15353   7.789   7.374   7.756  0.0674  0.1273  0.3043
 1043YOPC   C4B15354   7.851   7.088   8.086 -0.1050  0.2514  0.2154
 1044YOPC   NC315355   4.126  17.961   5.989  0.2667 -0.0494  0.1287
 1044YOPC   PO415356   4.013  18.278   6.100  0.0112  0.1447  0.1386
 1044YOPC   GL115357   3.878  18.585   6.399  0.0658 -0.0966  0.0712
 1044YOPC   GL215358   3.456  18.499   6.570  0.0786 -0.3117 -0.0187
 1044YOPC   C1A15359   3.809  18.756   6.720  0.0179  0.0151  0.0712
 1044YOPC   D2A15360   3.706  18.708   7.040  0.2507  0.0223  0.0319
 1044YOPC   C3A15361   4.109  18.619   7.190 -0.0621  0.1816  0.0903
 1044YOPC   C4A15362   4.475  18.511   7.258  0.1174 -0.1464 -0.1533
 1044YOPC   C1B15363   3.283  18.508   7.019  0.0664  0.2144  0.0981
 1044YOPC   C2B15364   3.372  18.566   7.468  0.0838  0.1127  0.1616
 1044YOPC   D3B15365   3.748  18.765   7.568  0.2593 -0.4311  0.1795
 1044YOPC   C4B15366   3.908  18.877   7.938  0.1058 -0.4857 -0.4774
 1045YOPC   NC315367  18.054   8.059   5.908  0.6174 -0.3498  0.3883
 1045YOPC   PO415368  18.261   8.420   5.760 -0.0935  0.1628 -0.1435
 1045YOPC   GL115369  18.121   8.563   6.133 -0.1158  0.0058  0.2227
 1045YOPC   GL215370  18.366   8.300   6.225  0.0313  0.1314  0.2057
 1045YOPC   C1A15371  17.921   8.448   6.535  0.0596  0.2752  0.2980
 1045YOPC   D2A15372  17.882   8.275   6.936  0.2069  0.0316 -0.0310
 1045YOPC   C3A15373  17.986   7.923   7.077 -0.0029 -0.1257 -0.2483
 1045YOPC   C4A15374  18.141   7.610   7.375  0.0489 -0.1338 -0.0626
 1045YOPC   C1B15375  18.322   8.245   6.720 -0.0281 -0.1698  0.1369
 1045YOPC   C2B15376  18.449   8.092   7.051 -0.0540  0.0150 -0.1767
 1045YOPC   D3B15377  18.652   8.447   7.334 -0.4216  0.0276  0.1045
 1045YOPC   C4B15378  18.808   8.802   7.623 -0.2641 -0.1957 -0.1503
 1046YOPC   NC315379  12.114  12.363   5.834 -0.1246  0.2658  0.1187
 1046YOPC   PO415380  12.375  12.019   6.014 -0.2761 -0.0735  0.2041
 1046YOPC   GL115381  12.465  12.367   6.217  0.0843 -0.0237 -0.2084
 1046YOPC   GL215382  12.716  12.251   6.352  0.0387  0.0917  0.1195
 1046YOPC   C1A15383  12.484  12.588   6.621  0.1346 -0.1653 -0.0346
 1046YOPC   D2A15384  12.282  12.498   6.992  0.2084  0.0664 -0.0465
 1046YOPC   C3A15385  12.520  12.491   7.392 -0.1922 -0.0516 -0.1325
 1046YOPC   C4A15386  12.877  12.408   7.582  0.0698  0.0878 -0.0658
 1046YOPC   C1B15387  13.170  12.090   6.576  0.0818  0.0764 -0.0601
 1046YOPC   C2B15388  13.451  12.334   6.676  0.2191 -0.0507  0.0967
 1046YOPC   D3B15389  13.858  12.297   6.613 -0.0850  0.0781  0.1638
 1046YOPC   C4B15390  14.176  12.590   6.567  0.1629  0.0276 -0.1618
 1047YOPC   NC315391   8.730   4.286   5.835  0.0040 -0.0881  0.1115
 1047YOPC   PO415392   9.118   4.373   6.137 -0.0983  0.1774 -0.1792
 1047YOPC   GL115393   9.388   4.422   6.355 -0.2291  0.1013 -0.0609
 1047YOPC   GL215394   9.075   4.470   6.626  0.1005  0.0573  0.0546
 1047YOPC   C1A15395   9.538   4.540   6.751 -0.2043 -0.0556  0.0766
 1047YOPC   D2A15396   9.692   4.802   7.098 -0.1170 -0.0946 -0.0269
 1047YOPC   C3A15397  10.114   4.585   7.238  0.0411  0.0336 -0.2782
 1047YOPC   C4A15398  10.561   4.529   7.540  0.0135 -0.0703  0.5224
 1047YOPC   C1B15399   9.160   4.415   7.013  0.2335 -0.3523  0.0816
 1047YOPC   C2B15400   9.452   4.419   7.320 -0.1613  0.0093  0.0174
 1047YOPC   D3B15401   9.245   4.184   7.626  0.3143 -0.1292  0.0356
 1047YOPC   C4B15402   9.252   3.834   7.909 -0.1977  0.0913  0.0199
 1048YOPC   NC315403  17.059  14.063   5.597 -0.1167 -0.2458  0.2170
 1048YOPC   PO415404  17.486  14.105   5.872 -0.0147  0.0811 -0.0816
 1048YOPC   GL115405  17.332  14.255   6.269 -0.0719 -0.3210  0.3985
 1048YOPC   GL215406  17.102  13.993   6.395 -0.1342 -0.2095  0.0563
 1048YOPC   C1A15407  17.377  14.395   6.642  0.3042 -0.0810  0.0475
 1048YOPC   D2A15408  17.293  14.447   7.096  0.0645 -0.0794 -0.0787
 1048YOPC   C3A15409  17.488  14.428   7.442  0.2668 -0.0040  0.0408
 1048YOPC   C4A15410  17.685  14.333   7.878  0.2571  0.0565 -0.0057
 1048YOPC   C1B15411  17.023  14.022   6.808  0.0154  0.0828  0.0243
 1048YOPC   C2B15412  16.918  14.091   7.207  0.2533 -0.2040 -0.2923
 1048YOPC   D3B15413  16.915  14.572   7.421 -0.1769 -0.1075 -0.0807
 1048YOPC   C4B15414  16.591  14.845   7.563  0.3697  0.0540  0.0132
 1049YOPC   NC315415  14.753   4.103   5.801  0.1075  0.0275 -0.1283
 1049YOPC   PO415416  15.143   4.207   5.945 -0.1980  0.1988  0.1481
 1049YOPC   GL115417  15.150   4.389   6.277 -0.0546 -0.0705  0.1639
 1049YOPC   GL215418  14.868   4.558   6.233 -0.1647 -0.0899 -0.0217
 1049YOPC   C1A15419  15.254   4.411   6.720  0.0700 -0.0215  0.0114
 1049YOPC   D2A15420  15.248   4.396   7.109  0.2220  0.1942  0.1331
 1049YOPC   C3A15421  14.884   4.496   7.350 -0.2546 -0.0788  0.2837
 1049YOPC   C4A15422  14.782   4.621   7.790 -0.0931  0.0872  0.3153
 1049YOPC   C1B15423  14.789   4.652   6.683  0.0672  0.0676 -0.0392
 1049YOPC   C2B15424  14.629   4.788   7.109  0.0179 -0.0571 -0.0476
 1049YOPC   D3B15425  14.265   5.096   7.105 -0.1325  0.0784 -0.1992
 1049YOPC   C4B15426  14.103   5.100   6.721  0.1112  0.4222 -0.0204
 1050YOPC   NC315427   1.872   0.505   5.819 -0.1003 -0.2233  0.1528
 1050YOPC   PO415428   1.678   0.914   5.905  0.2648 -0.2730  0.0810
 1050YOPC   GL115429   1.695   0.842   6.302  0.1400 -0.1069 -0.0286
 1050YOPC   GL215430   1.770   0.606   6.302 -0.0587  0.0081 -0.1786
 1050YOPC   C1A15431   1.362   0.687   6.567  0.0180 -0.2980  0.2382
 1050YOPC   D2A15432   1.216   0.319   6.877  0.0445  0.2119 -0.0498
 1050YOPC   C3A15433   1.197   0.290   7.326 -0.0083  0.0634  0.1326
 1050YOPC   C4A15434   1.123   0.163   7.724  0.1717 -0.3682  0.0421
 1050YOPC   C1B15435   1.839   0.687   6.754  0.3140  0.2390  0.0724
 1050YOPC   C2B15436   1.463   0.724   7.091  0.0519  0.2013  0.0975
 1050YOPC   D3B15437   1.264   1.009   7.351 -0.1981 -0.0969 -0.0081
 1050YOPC   C4B15438   1.210   1.136   7.732 -0.0294 -0.1019 -0.1107
 1051YOPC   NC315439   6.504  17.001   5.620  0.2504  0.0703 -0.1417
 1051YOPC   PO415440   6.369  16.629   5.879 -0.0506  0.2549 -0.0175
 1051YOPC   GL115441   6.193  16.580   6.185  0.1263 -0.1864  0.0128
 1051YOPC   GL215442   6.330  16.353   6.388 -0.0343  0.4158 -0.1723
 1051YOPC   C1A15443   5.738  16.274   6.390  0.1216 -0.3797 -0.0524
 1051YOPC   D2A15444   5.579  16.189   6.773 -0.0463 -0.3160 -0.0847
 1051YOPC   C3A15445   5.748  16.007   7.157  0.0021 -0.0198 -0.0862
 1051YOPC   C4A15446   5.628  15.784   7.491  0.3101 -0.1908  0.0173
 1051YOPC   C1B15447   6.733  16.378   6.588  0.0166 -0.0259  0.3432
 1051YOPC   C2B15448   7.015  16.683   6.650  0.0082 -0.1822 -0.2622
 1051YOPC   D3B15449   7.096  16.920   6.982 -0.1418 -0.2873  0.4600
 1051YOPC   C4B15450   7.267  16.811   7.352 -0.0077  0.2837 -0.3408
 1052YOPC   NC315451  12.355   3.323   5.075 -0.0224  0.2026 -0.0250
 1052YOPC   PO415452  12.296   3.215   5.544  0.0884 -0.1516  0.2238
 1052YOPC   GL115453  12.161   3.089   5.930 -0.4308  0.0378  0.1400
 1052YOPC   GL215454  12.222   3.295   6.083  0.0769 -0.0169 -0.0976
 1052YOPC   C1A15455  12.396   2.880   6.250  0.2620 -0.4646 -0.0377
 1052YOPC   D2A15456  12.514   3.051   6.699  0.0802 -0.0945 -0.1748
 1052YOPC   C3A15457  12.831   2.783   6.788 -0.2850 -0.0053 -0.4018
 1052YOPC   C4A15458  13.245   2.752   6.702  0.4361 -0.0211  0.0595
 1052YOPC   C1B15459  12.440   3.438   6.359  0.2579 -0.3132 -0.0667
 1052YOPC   C2B15460  12.583   3.525   6.741  0.3247  0.3083 -0.5962
 1052YOPC   D3B15461  12.899   3.389   6.991 -0.1183  0.2317 -0.0043
 1052YOPC   C4B15462  13.143   3.094   7.144  0.0547 -0.1578 -0.0915
 1053YOPC   NC315463  15.222  11.129   5.801 -0.1313 -0.3045 -0.2792
 1053YOPC   PO415464  15.562  10.831   5.767 -0.0096 -0.1776 -0.3456
 1053YOPC   GL115465  15.483  10.879   6.216 -0.2526  0.1847  0.0424
 1053YOPC   GL215466  15.532  10.625   6.326  0.4544 -0.1458  0.1130
 1053YOPC   C1A15467  15.418  11.164   6.613  0.2993  0.0868 -0.1500
 1053YOPC   D2A15468  15.248  11.363   6.921  0.1729  0.1470 -0.2009
 1053YOPC   C3A15469  15.404  11.309   7.270  0.1170  0.3087 -0.1887
 1053YOPC   C4A15470  15.533  11.354   7.556  0.0681  0.0656 -0.1440
 1053YOPC   C1B15471  15.427  10.661   6.751 -0.2224  0.2136  0.1689
 1053YOPC   C2B15472  15.190  10.282   7.041  0.6067  0.3825  0.1166
 1053YOPC   D3B15473  15.202  10.336   7.456  0.0598 -0.1080 -0.1208
 1053YOPC   C4B15474  15.098  10.483   7.784  0.0520  0.1377 -0.1492
 1054YOPC   NC315475   9.365  10.201   5.552 -0.1868 -0.2052 -0.2365
 1054YOPC   PO415476   9.826  10.208   5.644 -0.1593 -0.0407  0.1035
 1054YOPC   GL115477   9.698  10.387   6.086 -0.2420 -0.1364 -0.1582
 1054YOPC   GL215478   9.973  10.394   6.317  0.3817  0.1454 -0.1732
 1054YOPC   C1A15479   9.466  10.327   6.430  0.1051  0.1415  0.1445
 1054YOPC   D2A15480   9.271  10.320   6.828  0.1623 -0.2996  0.1684
 1054YOPC   C3A15481   9.129  10.204   7.272 -0.1482 -0.4667  0.3986
 1054YOPC   C4A15482   9.085  10.002   7.701 -0.1030 -0.0401 -0.1332
 1054YOPC   C1B15483   9.950  10.388   6.761  0.1218 -0.2375 -0.2731
 1054YOPC   C2B15484  10.043  10.400   7.265 -0.3258  0.1502 -0.1297
 1054YOPC   D3B15485   9.871  10.666   7.599  0.1334 -0.0801  0.0124
 1054YOPC   C4B15486   9.897  11.001   7.934 -0.1576 -0.2068 -0.0113
 1055YOPC   NC315487   6.289  16.124   5.938  0.1017  0.0365 -0.3050
 1055YOPC   PO415488   5.948  15.876   5.747  0.1244  0.0594  0.0682
 1055YOPC   GL115489   5.902  15.814   6.110  0.3038  0.0718  0.0404
 1055YOPC   GL215490   6.291  15.736   6.305  0.1345  0.2589  0.4010
 1055YOPC   C1A15491   5.392  15.928   6.224  0.1161  0.0527 -0.0343
 1055YOPC   D2A15492   5.123  16.230   6.067  0.2877  0.3452  0.2002
 1055YOPC   C3A15493   5.250  16.553   6.358  0.0172  0.0006 -0.0019
 1055YOPC   C4A15494   4.912  16.741   6.531 -0.1296 -0.0869 -0.0915
 1055YOPC   C1B15495   6.038  15.935   6.625  0.3866 -0.2397  0.4010
 1055YOPC   C2B15496   6.048  16.320   6.823  0.1043 -0.1138 -0.0296
 1055YOPC   D3B15497   6.397  16.520   7.084  0.1940 -0.0143 -0.2336
 1055YOPC   C4B15498   6.885  16.444   7.067  0.0684 -0.3435  0.0588
 1056YOPC   NC315499   2.778   3.964   5.678 -0.1571 -0.1356  0.1766
 1056YOPC   PO415500   3.067   4.258   5.889  0.1300 -0.0354 -0.3234
 1056YOPC   GL115501   2.982   4.482   6.254  0.0486  0.0176 -0.1944
 1056YOPC   GL215502   3.316   4.506   6.226 -0.0570  0.0054  0.0172
 1056YOPC   C1A15503   2.790   4.789   6.513 -0.3152  0.1997 -0.3247
 1056YOPC   D2A15504   2.530   5.069   6.681 -0.0525  0.1191 -0.0726
 1056YOPC   C3A15505   2.208   5.411   6.620  0.0457 -0.0942  0.2222
 1056YOPC   C4A15506   1.796   5.453   6.823 -0.2921  0.4361  0.1478
 1056YOPC   C1B15507   3.279   4.244   6.611 -0.2705  0.4342  0.0011
 1056YOPC   C2B15508   3.268   4.352   7.067  0.0992 -0.0296 -0.3576
 1056YOPC   D3B15509   3.296   4.772   7.295  0.0049  0.0900 -0.2628
 1056YOPC   C4B15510   3.520   5.023   7.594  0.1690  0.0922 -0.2637
 1057YOPC   NC315511   4.462  17.487   5.639  0.0863  0.3654 -0.3183
 1057YOPC   PO415512   4.194  17.393   5.968  0.2280 -0.0501 -0.4317
 1057YOPC   GL115513   4.433  17.584   6.265 -0.1089 -0.1237  0.1170
 1057YOPC   GL215514   4.715  17.529   6.173 -0.0064  0.2742 -0.0757
 1057YOPC   C1A15515   4.397  17.768   6.581 -0.1155  0.0926  0.1519
 1057YOPC   D2A15516   4.484  17.726   6.978  0.0699  0.2604 -0.1772
 1057YOPC   C3A15517   4.490  17.553   7.457 -0.1210  0.0925  0.1541
 1057YOPC   C4A15518   4.830  17.328   7.626 -0.1256  0.0177 -0.0270
 1057YOPC   C1B15519   4.597  17.308   6.701  0.2079 -0.2196  0.0661
 1057YOPC   C2B15520   4.659  17.260   7.123 -0.0497  0.0501 -0.1322
 1057YOPC   D3B15521   4.431  16.934   7.352  0.0667  0.1603  0.1017
 1057YOPC   C4B15522   3.988  16.792   7.576 -0.0771 -0.1562 -0.0315
 1058YOPC   NC315523   4.914   6.932   6.034 -0.0753 -0.3145 -0.4602
 1058YOPC   PO415524   4.630   6.530   6.253  0.0166 -0.3434  0.1222
 1058YOPC   GL115525   4.696   6.380   6.589 -0.1704 -0.1935  0.0054
 1058YOPC   GL215526   4.298   6.274   6.637  0.1323 -0.1848  0.0213
 1058YOPC   C1A15527   5.117   6.346   6.848 -0.0291 -0.1732 -0.2507
 1058YOPC   D2A15528   5.276   6.540   7.203 -0.1132 -0.0128  0.2995
 1058YOPC   C3A15529   5.229   6.373   7.596 -0.1650  0.1436 -0.1120
 1058YOPC   C4A15530   5.040   6.125   7.990 -0.1470  0.3194 -0.3608
 1058YOPC   C1B15531   4.264   5.975   6.966 -0.1827  0.0456  0.2196
 1058YOPC   C2B15532   3.996   5.600   7.078  0.2286  0.0258  0.0496
 1058YOPC   D3B15533   3.613   5.629   7.212  0.1348  0.1858 -0.1135
 1058YOPC   C4B15534   3.392   5.526   7.612 -0.2445 -0.0578  0.0882
 1059YOPC   NC315535  12.725  18.069   5.339  0.0282 -0.0411  0.0254
 1059YOPC   PO415536  13.133  17.929   5.381 -0.0079  0.0253  0.0218
 1059YOPC   GL115537  13.148  17.797   5.750 -0.0580  0.0271  0.1035
 1059YOPC   GL215538  13.483  17.765   5.883  0.3949  0.0817 -0.1515
 1059YOPC   C1A15539  12.831  17.767   6.043 -0.2062 -0.0695  0.3257
 1059YOPC   D2A15540  12.404  17.823   6.374 -0.2751  0.0524  0.1662
 1059YOPC   C3A15541  12.345  18.060   6.575  0.1580  0.1584  0.0544
 1059YOPC   C4A15542  12.346  18.089   6.979 -0.0746  0.1539  0.0359
 1059YOPC   C1B15543  13.608  17.786   6.192  0.3421 -0.1911  0.1653
 1059YOPC   C2B15544  13.771  17.547   6.578 -0.0919  0.1201 -0.1407
 1059YOPC   D3B15545  13.971  17.175   6.733 -0.1713  0.0699 -0.0019
 1059YOPC   C4B15546  13.898  16.901   7.057 -0.0087 -0.1531 -0.0667
 1060YOPC   NC315547   3.298   2.564   5.678 -0.1780 -0.2480 -0.0295
 1060YOPC   PO415548   3.555   2.912   5.633 -0.4012 -0.0131  0.1086
 1060YOPC   GL115549   3.859   2.713   5.819  0.0567 -0.0930 -0.0536
 1060YOPC   GL215550   3.891   2.922   5.986  0.0812 -0.0229 -0.1929
 1060YOPC   C1A15551   4.172   2.538   6.105 -0.0084  0.0782  0.0500
 1060YOPC   D2A15552   4.354   2.596   6.521  0.2326  0.0047  0.0135
 1060YOPC   C3A15553   4.130   2.854   6.851 -0.0950 -0.1609 -0.4794
 1060YOPC   C4A15554   3.942   2.867   7.171  0.1060 -0.0210 -0.3140
 1060YOPC   C1B15555   3.738   2.693   6.325 -0.0980  0.1606  0.0210
 1060YOPC   C2B15556   3.580   2.763   6.786 -0.0210 -0.2379  0.3083
 1060YOPC   D3B15557   3.379   2.532   7.024 -0.1705 -0.1328  0.0689
 1060YOPC   C4B15558   3.226   2.583   7.508 -0.1252  0.1602 -0.2508
 1061YOPC   NC315559  15.188  11.985   5.804  0.1770  0.3004  0.2895
 1061YOPC   PO415560  14.938  12.372   6.018 -0.1875 -0.0237  0.1477
 1061YOPC   GL115561  14.953  12.357   6.421 -0.1463 -0.0600 -0.0247
 1061YOPC   GL215562  14.719  12.670   6.534 -0.0380 -0.0219 -0.0239
 1061YOPC   C1A15563  14.995  12.392   6.891 -0.1893  0.1438 -0.2547
 1061YOPC   D2A15564  15.265  12.274   7.326 -0.0689  0.4107  0.1554
 1061YOPC   C3A15565  15.507  12.443   7.510  0.1668 -0.0660  0.2862
 1061YOPC   C4A15566  15.915  12.670   7.462  0.1610 -0.0154  0.2081
 1061YOPC   C1B15567  14.526  12.493   6.913 -0.0691 -0.1749 -0.3250
 1061YOPC   C2B15568  14.615  12.345   7.398  0.2440  0.0638  0.1064
 1061YOPC   D3B15569  14.513  12.471   7.811 -0.1483  0.0527  0.3832
 1061YOPC   C4B15570  14.608  12.407   8.348 -0.2227  0.0837 -0.1376
 1062YOPC   NC315571  17.838   6.436   5.319 -0.1877  0.0084  0.2196
 1062YOPC   PO415572  18.121   6.363   5.572  0.1757 -0.1705  0.0566
 1062YOPC   GL115573  17.930   6.334   5.991  0.2869 -0.0496 -0.1939
 1062YOPC   GL215574  18.061   6.465   6.214  0.4050 -0.0547 -0.2762
 1062YOPC   C1A15575  17.644   6.125   6.200 -0.0696  0.0850 -0.1060
 1062YOPC   D2A15576  17.514   5.772   6.338  0.2698  0.0283 -0.3334
 1062YOPC   C3A15577  17.309   5.757   6.806 -0.1020  0.4488  0.1089
 1062YOPC   C4A15578  17.023   5.723   7.157  0.2354  0.0541  0.0170
 1062YOPC   C1B15579  17.886   6.887   6.425 -0.1821 -0.1054  0.3501
 1062YOPC   C2B15580  17.637   7.160   6.581  0.1986 -0.1921 -0.0941
 1062YOPC   D3B15581  17.794   7.570   6.599 -0.0825 -0.1143 -0.0132
 1062YOPC   C4B15582  17.924   7.986   6.499 -0.0859 -0.0228  0.1145
 1063YOPC   NC315583   1.971  12.551   6.087  0.2553 -0.0736 -0.1363
 1063YOPC   PO415584   2.405  12.434   6.048  0.1878 -0.0188 -0.2505
 1063YOPC   GL115585   2.384  12.333   6.471  0.1997 -0.1049 -0.1829
 1063YOPC   GL215586   2.260  12.587   6.544  0.0692 -0.0811 -0.0695
 1063YOPC   C1A15587   2.550  12.289   6.905 -0.1029 -0.2495 -0.3042
 1063YOPC   D2A15588   2.709  12.443   7.184  0.0406  0.0917 -0.2333
 1063YOPC   C3A15589   2.723  12.647   7.475  0.1590 -0.2652 -0.1731
 1063YOPC   C4A15590   2.923  12.699   7.938 -0.2525 -0.0673  0.0420
 1063YOPC   C1B15591   2.453  12.824   6.920 -0.1164  0.0032  0.0151
 1063YOPC   C2B15592   2.302  12.916   7.329 -0.0350 -0.1279  0.2317
 1063YOPC   D3B15593   2.203  12.721   7.660 -0.1477 -0.2927 -0.0453
 1063YOPC   C4B15594   2.228  12.467   8.013 -0.1462 -0.4262 -0.0090
 1064YOPC   NC315595   2.100  17.243   5.980 -0.0285 -0.0712 -0.0366
 1064YOPC   PO415596   2.506  17.346   5.923  0.1708 -0.0599 -0.0239
 1064YOPC   GL115597   2.343  17.351   6.416  0.1771 -0.2952 -0.2015
 1064YOPC   GL215598   2.253  17.007   6.377  0.1849  0.0713 -0.1272
 1064YOPC   C1A15599   2.374  17.460   6.839  0.5192  0.0252  0.3242
 1064YOPC   D2A15600   2.310  17.402   7.266  0.0507  0.0987 -0.0211
 1064YOPC   C3A15601   2.123  17.110   7.512 -0.1311 -0.0719  0.1719
 1064YOPC   C4A15602   1.910  16.805   7.572  0.0723 -0.0317  0.1638
 1064YOPC   C1B15603   2.250  16.963   6.739 -0.1596 -0.1455  0.1816
 1064YOPC   C2B15604   2.222  16.861   7.134  0.0866  0.1492 -0.3287
 1064YOPC   D3B15605   2.485  16.749   7.407 -0.3506 -0.3750  0.0435
 1064YOPC   C4B15606   2.322  16.410   7.628  0.0763  0.0560 -0.1124
 1065YOPC   NC315607  14.052   3.452   5.658  0.1505 -0.2280  0.1990
 1065YOPC   PO415608  14.024   3.878   5.953  0.2112 -0.2407 -0.0162
 1065YOPC   GL115609  13.795   3.962   6.251 -0.2618  0.0597  0.1256
 1065YOPC   GL215610  13.503   4.095   6.339  0.1301  0.1170  0.1953
 1065YOPC   C1A15611  13.755   3.807   6.736  0.3348  0.0241 -0.2694
 1065YOPC   D2A15612  13.713   3.662   7.130 -0.0172 -0.2673 -0.0814
 1065YOPC   C3A15613  13.587   3.272   7.260 -0.1155 -0.2254  0.0570
 1065YOPC   C4A15614  13.397   3.037   7.610  0.1522 -0.0199  0.1723
 1065YOPC   C1B15615  13.295   4.274   6.644  0.1556 -0.1341 -0.0389
 1065YOPC   C2B15616  13.187   4.230   7.055  0.1333  0.2997 -0.3418
 1065YOPC   D3B15617  13.379   4.173   7.448  0.1422 -0.0430  0.1025
 1065YOPC   C4B15618  13.501   4.440   7.846  0.0456  0.2023 -0.1350
 1066YOPC   NC315619  15.046   2.213   5.651  0.0724  0.0579  0.2001
 1066YOPC   PO415620  15.456   2.011   5.858  0.1752  0.2348  0.1180
 1066YOPC   GL115621  15.538   2.074   6.219 -0.0390  0.1627  0.1562
 1066YOPC   GL215622  15.679   2.277   6.370 -0.0466  0.0503  0.1898
 1066YOPC   C1A15623  15.831   1.759   6.430 -0.2959 -0.1870  0.0048
 1066YOPC   D2A15624  16.032   1.540   6.767  0.2515  0.0759 -0.1778
 1066YOPC   C3A15625  16.198   1.220   6.688  0.1948 -0.0480  0.2117
 1066YOPC   C4A15626  16.427   1.023   6.338 -0.3502 -0.0600 -0.2409
 1066YOPC   C1B15627  15.579   2.037   6.731 -0.3288  0.0547 -0.0683
 1066YOPC   C2B15628  15.568   1.687   7.011 -0.2811 -0.0660  0.0774
 1066YOPC   D3B15629  15.178   1.523   7.162 -0.0774 -0.3021  0.2866
 1066YOPC   C4B15630  14.888   1.382   7.487  0.1706 -0.0344 -0.0560
 1067YOPC   NC315631   8.774   0.159   5.981  0.0170 -0.0822  0.1728
 1067YOPC   PO415632   9.226   0.043   5.813 -0.1024 -0.1401  0.2028
 1067YOPC   GL115633   9.350  -0.042   6.190  0.0434  0.0842  0.1440
 1067YOPC   GL215634   9.146  -0.134   6.287  0.0929  0.0411  0.0942
 1067YOPC   C1A15635   9.441  -0.032   6.720  0.2396  0.1642  0.0340
 1067YOPC   D2A15636   9.258   0.081   7.121  0.2158 -0.2636  0.4464
 1067YOPC   C3A15637   9.421   0.252   7.434  0.0146  0.3246 -0.0095
 1067YOPC   C4A15638   9.726   0.449   7.569  0.1117  0.0185  0.0097
 1067YOPC   C1B15639   8.918   0.151   6.598  0.1684  0.1304 -0.1285
 1067YOPC   C2B15640   8.974   0.447   6.952 -0.0810  0.2029  0.1806
 1067YOPC   D3B15641   8.910   0.433   7.338  0.2662 -0.2390 -0.1799
 1067YOPC   C4B15642   8.870   0.493   7.699  0.1135 -0.2676 -0.1864
 1068YOPC   NC315643  17.474  17.842   5.873  0.0338  0.0744 -0.0473
 1068YOPC   PO415644  17.483  17.397   5.653 -0.1218  0.2863  0.0836
 1068YOPC   GL115645  17.451  17.340   6.103  0.1314  0.0379 -0.0178
 1068YOPC   GL215646  17.250  17.541   6.212 -0.1240  0.1549  0.1460
 1068YOPC   C1A15647  17.583  17.209   6.506 -0.0594 -0.3019 -0.1401
 1068YOPC   D2A15648  17.647  17.179   6.994  0.1331 -0.1697 -0.0887
 1068YOPC   C3A15649  17.381  16.930   7.228  0.0656 -0.0755 -0.0350
 1068YOPC   C4A15650  17.379  16.652   7.503  0.1175 -0.1410  0.2773
 1068YOPC   C1B15651  17.141  17.493   6.682  0.0804  0.2271 -0.0807
 1068YOPC   C2B15652  17.164  17.308   7.096  0.1800 -0.0720 -0.2570
 1068YOPC   D3B15653  17.278  17.447   7.485 -0.2830 -0.4210  0.1093
 1068YOPC   C4B15654  17.359  17.515   7.830 -0.0589 -0.0000  0.0786
 1069YOPC   NC315655  13.736   0.562   5.413 -0.0703  0.3033  0.0720
 1069YOPC   PO415656  14.091   0.682   5.250  0.3627  0.2656  0.0125
 1069YOPC   GL115657  14.156   0.582   5.623  0.0658 -0.0022 -0.1700
 1069YOPC   GL215658  14.536   0.623   5.616 -0.1198 -0.2226 -0.0985
 1069YOPC   C1A15659  13.994   0.534   6.077 -0.0746 -0.0613  0.0440
 1069YOPC   D2A15660  14.060   0.791   6.508 -0.1014 -0.1773 -0.0643
 1069YOPC   C3A15661  13.822   0.767   6.950  0.2530  0.2769 -0.1060
 1069YOPC   C4A15662  13.729   0.622   7.447  0.1554 -0.1019 -0.0307
 1069YOPC   C1B15663  14.524   0.625   6.036 -0.1579  0.1682  0.3345
 1069YOPC   C2B15664  14.473   0.387   6.364  0.0956 -0.2417 -0.0015
 1069YOPC   D3B15665  14.358   0.455   6.792 -0.0910 -0.1018  0.2827
 1069YOPC   C4B15666  13.963   0.306   7.087 -0.1826 -0.1079  0.0879
 1070YOPC   NC315667   5.206   9.117   5.942 -0.3997 -0.0062 -0.2228
 1070YOPC   PO415668   5.661   8.998   5.932  0.0148  0.0674  0.1983
 1070YOPC   GL115669   5.797   8.841   6.374 -0.1423  0.0238  0.0748
 1070YOPC   GL215670   5.852   9.101   6.574  0.2473 -0.3864  0.0113
 1070YOPC   C1A15671   6.029   8.555   6.606  0.4409 -0.2302  0.0124
 1070YOPC   D2A15672   6.332   8.353   6.966 -0.0980 -0.1747  0.0981
 1070YOPC   C3A15673   6.196   7.997   7.253 -0.0539 -0.0056  0.1532
 1070YOPC   C4A15674   5.863   7.824   7.511 -0.0863 -0.1772  0.3202
 1070YOPC   C1B15675   5.838   9.237   7.038 -0.2235  0.1525 -0.2241
 1070YOPC   C2B15676   5.767   9.114   7.492  0.2686 -0.2791  0.1150
 1070YOPC   D3B15677   5.997   8.932   7.805 -0.0498  0.1651 -0.0328
 1070YOPC   C4B15678   5.930   8.762   8.292 -0.0969 -0.0871  0.0067
 1071YOPC   NC315679   1.930  12.049   6.138 -0.0776 -0.0037 -0.0351
 1071YOPC   PO415680   1.538  12.134   6.207  0.0662  0.1240 -0.3650
 1071YOPC   GL115681   1.571  12.027   6.568  0.0804  0.0532 -0.2987
 1071YOPC   GL215682   1.378  11.703   6.703 -0.5106 -0.3054  0.1964
 1071YOPC   C1A15683   1.520  12.107   6.956 -0.0555  0.0116 -0.3016
 1071YOPC   D2A15684   1.760  12.240   7.302 -0.0442  0.0938 -0.1874
 1071YOPC   C3A15685   1.940  12.170   7.691  0.3319 -0.0226  0.0560
 1071YOPC   C4A15686   2.086  11.950   8.093 -0.1816  0.0048  0.1880
 1071YOPC   C1B15687   1.190  11.654   7.085 -0.1324  0.1356  0.2970
 1071YOPC   C2B15688   0.997  11.603   7.431  0.1334 -0.0152 -0.1547
 1071YOPC   D3B15689   0.972  11.282   7.767  0.0265  0.0738 -0.3044
 1071YOPC   C4B15690   0.869  10.962   7.905 -0.4669  0.3670  0.2890
 1072YOPC   NC315691   9.505   5.834   5.853  0.0163 -0.1431  0.2647
 1072YOPC   PO415692   9.916   5.585   5.969  0.2753 -0.0250  0.0570
 1072YOPC   GL115693   9.873   5.960   6.300  0.0933 -0.2511  0.0218
 1072YOPC   GL215694  10.188   5.906   6.378  0.2131  0.1220  0.0003
 1072YOPC   C1A15695   9.924   6.159   6.670  0.1193  0.2051  0.0160
 1072YOPC   D2A15696   9.706   6.238   7.103 -0.0512 -0.0046  0.0347
 1072YOPC   C3A15697   9.765   6.103   7.482 -0.1240 -0.2126 -0.1242
 1072YOPC   C4A15698   9.772   5.626   7.647 -0.3019 -0.1575  0.0665
 1072YOPC   C1B15699  10.266   5.807   6.767 -0.1619  0.2341 -0.0584
 1072YOPC   C2B15700  10.300   5.532   7.065  0.2171  0.1191 -0.3404
 1072YOPC   D3B15701  10.316   5.587   7.542 -0.1115 -0.5311  0.0168
 1072YOPC   C4B15702  10.542   5.918   7.930  0.0215 -0.3325  0.1061
 1073YOPC   NC315703  10.412  13.052   6.021  0.0166  0.0812  0.0087
 1073YOPC   PO415704  10.002  13.177   5.826  0.1188 -0.2893  0.1406
 1073YOPC   GL115705  10.052  13.298   6.333  0.0216 -0.0253 -0.1495
 1073YOPC   GL215706  10.159  13.081   6.528  0.0178 -0.0990 -0.0686
 1073YOPC   C1A15707   9.982  13.467   6.766  0.1216  0.2367 -0.0159
 1073YOPC   D2A15708   9.847  13.469   7.229 -0.0387 -0.3196 -0.0689
 1073YOPC   C3A15709   9.867  13.429   7.617  0.3154  0.1269 -0.4493
 1073YOPC   C4A15710   9.828  13.533   8.095 -0.3602  0.2214  0.0669
 1073YOPC   C1B15711  10.148  13.018   6.934 -0.0849 -0.1336  0.0391
 1073YOPC   C2B15712  10.091  12.948   7.324 -0.1306  0.3674 -0.4499
 1073YOPC   D3B15713  10.264  13.125   7.721  0.1580 -0.0294 -0.1208
 1073YOPC   C4B15714  10.606  13.026   7.949  0.2144 -0.0202 -0.0612
 1074YOPC   NC315715   5.931   2.747   5.829  0.2503 -0.0090 -0.1127
 1074YOPC   PO415716   6.212   2.563   6.097 -0.1768  0.0389  0.1797
 1074YOPC   GL115717   6.385   2.490   6.355 -0.1903 -0.0604 -0.0971
 1074YOPC   GL215718   6.596   2.248   6.411  0.0047  0.1411  0.1932
 1074YOPC   C1A15719   6.557   2.625   6.781 -0.1628  0.2168  0.2334
 1074YOPC   D2A15720   6.764   2.347   7.190 -0.2261 -0.1238  0.3195
 1074YOPC   C3A15721   6.726   2.203   7.590 -0.1004  0.1372 -0.0802
 1074YOPC   C4A15722   7.031   2.139   7.891 -0.2536  0.2462 -0.0754
 1074YOPC   C1B15723   6.876   2.136   6.757  0.1948  0.1926  0.0271
 1074YOPC   C2B15724   6.985   1.934   6.996  0.0032  0.0607 -0.3292
 1074YOPC   D3B15725   6.870   1.742   7.417  0.1266 -0.0414  0.3718
 1074YOPC   C4B15726   6.999   1.402   7.692  0.3554  0.1765  0.1387
 1075YOPC   NC315727  10.269  11.923   6.246  0.0248  0.1906 -0.0904
 1075YOPC   PO415728  10.695  11.887   6.157 -0.0346  0.0217 -0.0323
 1075YOPC   GL115729  11.023  11.582   6.209  0.1779 -0.1005  0.0925
 1075YOPC   GL215730  11.376  11.539   6.077 -0.1777  0.0679 -0.0287
 1075YOPC   C1A15731  11.255  11.563   6.596 -0.1441  0.3303  0.0857
 1075YOPC   D2A15732  11.136  11.479   7.022  0.0067 -0.0551  0.0428
 1075YOPC   C3A15733  11.325  11.448   7.415 -0.0865 -0.2218 -0.0981
 1075YOPC   C4A15734  11.483  11.784   7.763  0.0033  0.1166 -0.3107
 1075YOPC   C1B15735  11.445  11.138   6.310  0.0826  0.2058  0.0797
 1075YOPC   C2B15736  11.543  11.096   6.722 -0.2173 -0.0070 -0.1289
 1075YOPC   D3B15737  11.951  11.118   6.747  0.0311 -0.2827 -0.0446
 1075YOPC   C4B15738  12.242  11.215   7.101  0.0302 -0.0534 -0.0009
 1076YOPC   NC315739   6.784   0.255   5.517  0.0524  0.2494  0.1018
 1076YOPC   PO415740   6.718   0.632   5.598 -0.0564 -0.3088  0.1392
 1076YOPC   GL115741   6.659   0.924   6.071 -0.0974 -0.3451  0.2891
 1076YOPC   GL215742   6.975   0.852   6.238 -0.0851 -0.1763  0.4600
 1076YOPC   C1A15743   6.635   1.185   6.546 -0.1337  0.0357  0.1928
 1076YOPC   D2A15744   6.306   1.316   6.893 -0.0718  0.0342  0.1308
 1076YOPC   C3A15745   6.093   1.023   7.129  0.1116  0.0927  0.0852
 1076YOPC   C4A15746   6.049   0.835   7.522  0.1718 -0.0910 -0.4037
 1076YOPC   C1B15747   6.992   0.922   6.711 -0.0700 -0.1606  0.2176
 1076YOPC   C2B15748   7.133   0.867   7.107 -0.0887  0.1645 -0.2202
 1076YOPC   D3B15749   6.958   0.889   7.530 -0.1250  0.0299 -0.2494
 1076YOPC   C4B15750   6.940   0.897   7.971 -0.0862 -0.2747  0.2074
 1077YOPC   NC315751  14.479  15.609   5.355  0.2739  0.0443 -0.0593
 1077YOPC   PO415752  14.223  15.321   5.503 -0.0322  0.0495  0.0520
 1077YOPC   GL115753  14.454  15.232   5.918  0.1290  0.1140  0.4516
 1077YOPC   GL215754  14.398  15.406   6.185 -0.3323  0.1047 -0.2133
 1077YOPC   C1A15755  14.349  14.896   6.256  0.0785  0.0715 -0.1201
 1077YOPC   D2A15756  14.089  15.034   6.603 -0.0517  0.0443 -0.0192
 1077YOPC   C3A15757  14.262  15.049   7.040 -0.0389 -0.0185  0.3135
 1077YOPC   C4A15758  14.132  15.234   7.450  0.2624  0.0587  0.0615
 1077YOPC   C1B15759  14.408  15.447   6.682  0.0942 -0.1800  0.1437
 1077YOPC   C2B15760  14.498  15.537   7.092  0.0014 -0.0373 -0.1790
 1077YOPC   D3B15761  14.628  15.223   7.383  0.1923  0.0472 -0.2887
 1077YOPC   C4B15762  14.745  15.037   7.706  0.0711  0.1148 -0.0941
 1078YOPC   NC315763  10.893   9.888   5.854 -0.2002  0.1285  0.1124
 1078YOPC   PO415764  10.529   9.690   5.913 -0.0717 -0.1297  0.2189
 1078YOPC   GL115765  10.389   9.611   6.289  0.2527  0.2920 -0.0362
 1078YOPC   GL215766  10.236   9.886   6.491 -0.2872 -0.2478 -0.1633
 1078YOPC   C1A15767  10.600   9.583   6.737  0.1239  0.1687  0.1489
 1078YOPC   D2A15768  10.777   9.406   7.089 -0.1348  0.0420  0.0432
 1078YOPC   C3A15769  10.625   9.445   7.421 -0.2609  0.1707  0.2665
 1078YOPC   C4A15770  10.471   9.730   7.759 -0.0864 -0.0290 -0.2370
 1078YOPC   C1B15771  10.223   9.935   6.948  0.1251 -0.1874  0.1435
 1078YOPC   C2B15772  10.171   9.881   7.362  0.0083  0.3923  0.1635
 1078YOPC   D3B15773  10.158  10.262   7.712 -0.1064 -0.4162 -0.1029
 1078YOPC   C4B15774  10.279  10.647   7.938  0.0464  0.1717  0.0699
 1079YOPC   NC315775  12.361   0.864   5.396 -0.1739  0.1156 -0.1835
 1079YOPC   PO415776  12.341   1.292   5.543  0.0509 -0.1093 -0.2749
 1079YOPC   GL115777  12.355   1.473   5.970  0.0377  0.4670  0.0904
 1079YOPC   GL215778  12.456   1.830   6.121  0.0456  0.1843  0.1771
 1079YOPC   C1A15779  11.967   1.571   6.224  0.0456  0.1070  0.0227
 1079YOPC   D2A15780  11.789   1.601   6.793 -0.1177  0.0927  0.1346
 1079YOPC   C3A15781  11.814   1.172   7.153  0.4128  0.0524  0.0148
 1079YOPC   C4A15782  11.943   1.083   7.616 -0.0316  0.1215  0.3193
 1079YOPC   C1B15783  12.729   1.469   6.446 -0.0462  0.3259  0.2105
 1079YOPC   C2B15784  13.129   1.577   6.697 -0.1530  0.0479  0.0071
 1079YOPC   D3B15785  13.198   2.019   6.885 -0.3053 -0.3277 -0.0787
 1079YOPC   C4B15786  13.222   2.407   7.013  0.0940  0.0133 -0.1145
 1080YOPC   NC315787   2.029  14.294   6.075  0.0837  0.2057  0.2388
 1080YOPC   PO415788   2.239  14.684   5.957  0.1221 -0.1738 -0.0433
 1080YOPC   GL115789   2.087  14.684   6.355 -0.0194 -0.0911  0.1471
 1080YOPC   GL215790   1.944  14.919   6.575 -0.4592 -0.2797  0.4090
 1080YOPC   C1A15791   2.378  14.738   6.831  0.0009 -0.0736 -0.2101
 1080YOPC   D2A15792   2.494  14.685   7.257 -0.1044  0.2438  0.0430
 1080YOPC   C3A15793   2.606  14.510   7.567  0.3212 -0.1342  0.0876
 1080YOPC   C4A15794   2.476  14.348   8.001 -0.2917  0.0883 -0.0424
 1080YOPC   C1B15795   1.535  14.830   6.754 -0.0096  0.0120  0.0775
 1080YOPC   C2B15796   1.132  14.963   6.930 -0.0952  0.1674 -0.0039
 1080YOPC   D3B15797   0.908  15.020   7.319 -0.0392  0.1780 -0.1730
 1080YOPC   C4B15798   0.695  14.920   7.600 -0.2889 -0.2396 -0.0713
 1081YOPC   NC315799  11.143  12.207   5.417  0.1556 -0.2621  0.0687
 1081YOPC   PO415800  11.044  12.261   5.888 -0.0091  0.2517 -0.1785
 1081YOPC   GL115801  10.950  12.337   6.324  0.1465 -0.0238  0.1576
 1081YOPC   GL215802  10.600  12.326   6.359 -0.0757  0.2190  0.0332
 1081YOPC   C1A15803  11.098  12.573   6.626 -0.2519 -0.1062 -0.1625
 1081YOPC   D2A15804  11.156  12.538   7.040  0.0750  0.0631 -0.1466
 1081YOPC   C3A15805  11.068  12.940   7.251 -0.1884 -0.2367 -0.0820
 1081YOPC   C4A15806  11.070  13.008   7.668 -0.1161  0.1205  0.2459
 1081YOPC   C1B15807  10.631  12.241   6.801 -0.0556  0.2209  0.1430
 1081YOPC   C2B15808  10.729  12.355   7.246  0.1165 -0.0205  0.4241
 1081YOPC   D3B15809  11.026  12.254   7.478  0.2236  0.0584 -0.3428
 1081YOPC   C4B15810  11.360  12.284   7.695 -0.3372 -0.0632  0.1570
 1082YOPC   NC315811  10.231   1.866   6.026 -0.3471 -0.0905  0.1509
 1082YOPC   PO415812  10.437   1.376   5.919 -0.1663  0.0652 -0.6126
 1082YOPC   GL115813  10.443   1.564   6.405 -0.0976 -0.0430 -0.2141
 1082YOPC   GL215814  10.789   1.378   6.489 -0.1685 -0.1565  0.2056
 1082YOPC   C1A15815  10.430   1.784   6.788  0.0581  0.0343 -0.0239
 1082YOPC   D2A15816  10.601   1.757   7.277 -0.1135  0.0325 -0.0239
 1082YOPC   C3A15817  10.965   1.700   7.433 -0.3157  0.2548 -0.2449
 1082YOPC   C4A15818  11.240   1.872   7.449 -0.0694 -0.0530 -0.0616
 1082YOPC   C1B15819  10.798   1.442   6.874  0.0063 -0.1222 -0.1674
 1082YOPC   C2B15820  10.798   1.247   7.379 -0.0278  0.1141  0.0524
 1082YOPC   D3B15821  10.611   1.369   7.682 -0.0464  0.0569  0.1333
 1082YOPC   C4B15822  10.452   1.036   7.844  0.0408  0.0206 -0.0765
 1083YOPC   NC315823  12.634   8.551   6.001 -0.0094  0.4086 -0.2703
 1083YOPC   PO415824  12.489   8.774   5.644  0.2166  0.2201 -0.1878
 1083YOPC   GL115825  12.390   9.043   6.058  0.0197 -0.3594  0.0768
 1083YOPC   GL215826  12.189   8.949   6.267 -0.2464  0.3132  0.5675
 1083YOPC   C1A15827  12.503   9.434   6.223 -0.1510  0.0988  0.1600
 1083YOPC   D2A15828  12.408   9.796   6.490  0.0892 -0.0703  0.4228
 1083YOPC   C3A15829  12.200   9.929   6.982 -0.1349 -0.0545 -0.3843
 1083YOPC   C4A15830  12.185   9.937   7.431  0.0917 -0.2909 -0.0364
 1083YOPC   C1B15831  11.984   9.298   6.427  0.1274 -0.2325 -0.0122
 1083YOPC   C2B15832  12.136   9.503   6.784  0.4058 -0.1325  0.1477
 1083YOPC   D3B15833  11.992   9.427   7.277 -0.0215  0.3460 -0.1135
 1083YOPC   C4B15834  11.624   9.341   7.463 -0.1337  0.0289 -0.6726
 1084YOPC   NC315835   9.828  11.046   5.391 -0.0611 -0.0083 -0.3238
 1084YOPC   PO415836   9.975  11.010   5.777 -0.1911  0.0767 -0.2416
 1084YOPC   GL115837   9.931  10.907   6.183 -0.0313 -0.2903  0.1618
 1084YOPC   GL215838   9.705  10.826   6.327 -0.0228  0.1630  0.2251
 1084YOPC   C1A15839   9.873  11.281   6.478  0.5654 -0.1963 -0.1047
 1084YOPC   D2A15840  10.114  11.619   6.613  0.0839 -0.0721  0.2101
 1084YOPC   C3A15841   9.976  11.996   6.841  0.2828 -0.1169 -0.3097
 1084YOPC   C4A15842  10.173  12.063   7.237 -0.0248 -0.1675  0.0416
 1084YOPC   C1B15843   9.545  10.787   6.753  0.3126 -0.0427 -0.2520
 1084YOPC   C2B15844   9.587  10.591   7.161 -0.0001 -0.0146  0.0842
 1084YOPC   D3B15845   9.398  10.574   7.417  0.0420  0.0641 -0.1114
 1084YOPC   C4B15846   9.026  10.514   7.654 -0.3077 -0.1113  0.0469
 1085YOPC   NC315847  13.013   9.499   5.740  0.0276 -0.0175 -0.1488
 1085YOPC   PO415848  13.487   9.612   5.818 -0.0952 -0.0450 -0.0955
 1085YOPC   GL115849  13.346   9.284   6.107 -0.0037  0.1965  0.1519
 1085YOPC   GL215850  13.440   9.320   6.499 -0.0398  0.0676 -0.2273
 1085YOPC   C1A15851  12.995   9.165   6.347 -0.0587 -0.0888 -0.1744
 1085YOPC   D2A15852  12.666   8.838   6.392 -0.0356  0.0055  0.1021
 1085YOPC   C3A15853  12.315   8.753   6.757  0.0837  0.2265  0.3087
 1085YOPC   C4A15854  12.320   9.013   7.120  0.0015  0.1323  0.0438
 1085YOPC   C1B15855  13.271   9.391   6.917 -0.1669 -0.0284 -0.1749
 1085YOPC   C2B15856  13.080   9.284   7.279  0.1224  0.2304 -0.1598
 1085YOPC   D3B15857  13.165   9.054   7.641 -0.2203 -0.2433  0.1140
 1085YOPC   C4B15858  13.302   8.986   8.046  0.0133 -0.1466  0.0125
 1086YOPC   NC315859   7.184   9.929   5.890 -0.0434 -0.0802  0.0629
 1086YOPC   PO415860   7.569   9.917   6.082 -0.2844  0.2572 -0.2181
 1086YOPC   GL115861   7.664  10.112   6.559  0.0017  0.3055  0.4029
 1086YOPC   GL215862   7.437  10.321   6.595  0.1831 -0.2206  0.1337
 1086YOPC   C1A15863   8.051  10.159   6.812  0.1298  0.0494  0.0997
 1086YOPC   D2A15864   8.067  10.089   7.280 -0.2133  0.2300  0.0007
 1086YOPC   C3A15865   8.109  10.288   7.743  0.1397 -0.1172  0.2402
 1086YOPC   C4A15866   8.123  10.283   8.082 -0.0479 -0.1990 -0.1562
 1086YOPC   C1B15867   7.196  10.168   6.935  0.1110 -0.1178  0.1802
 1086YOPC   C2B15868   7.223  10.197   7.283  0.0335 -0.0041  0.0272
 1086YOPC   D3B15869   7.176  10.043   7.646  0.1402 -0.3471  0.0793
 1086YOPC   C4B15870   6.895   9.635   7.680 -0.2417  0.1204 -0.3324
 1087YOPC   NC315871  16.483   9.201   5.301  0.1739 -0.0338  0.0227
 1087YOPC   PO415872  16.477   9.305   5.778  0.0016  0.0620  0.2464
 1087YOPC   GL115873  16.479   9.552   6.083  0.3436  0.1179 -0.1466
 1087YOPC   GL215874  16.322   9.820   6.357 -0.1112 -0.0329 -0.0671
 1087YOPC   C1A15875  16.589   9.431   6.626 -0.1981 -0.0908  0.1804
 1087YOPC   D2A15876  16.443   9.328   6.912 -0.3363  0.0708 -0.1314
 1087YOPC   C3A15877  16.279   8.948   7.072 -0.2490  0.0576  0.1073
 1087YOPC   C4A15878  16.064   8.894   7.378  0.1493  0.0349 -0.1249
 1087YOPC   C1B15879  16.088   9.708   6.733 -0.3294 -0.0049  0.0631
 1087YOPC   C2B15880  16.001   9.510   7.132 -0.2634  0.2109  0.1943
 1087YOPC   D3B15881  16.349   9.307   7.409 -0.1629  0.1922  0.0076
 1087YOPC   C4B15882  16.709   9.478   7.421  0.2235  0.1329  0.1655
 1088YOPC   NC315883   6.299  13.498   6.258  0.0878 -0.0873  0.2616
 1088YOPC   PO415884   6.704  13.659   6.221 -0.0828  0.1115  0.0914
 1088YOPC   GL115885   6.531  13.978   6.471  0.1213 -0.1234 -0.1099
 1088YOPC   GL215886   6.736  14.303   6.429 -0.0295  0.0846 -0.0297
 1088YOPC   C1A15887   6.217  14.367   6.644  0.0687 -0.0285  0.0876
 1088YOPC   D2A15888   5.951  14.395   7.031 -0.1770  0.0990 -0.0649
 1088YOPC   C3A15889   5.895  14.687   7.244 -0.0151  0.0033  0.0670
 1088YOPC   C4A15890   5.923  14.875   7.571 -0.1442  0.1319  0.1306
 1088YOPC   C1B15891   6.723  14.247   6.869 -0.0265 -0.0787  0.2718
 1088YOPC   C2B15892   6.731  14.444   7.294  0.2042  0.1829  0.1419
 1088YOPC   D3B15893   6.650  14.519   7.675 -0.2494  0.1126 -0.1799
 1088YOPC   C4B15894   6.303  14.681   7.892  0.2565 -0.0226  0.0289
 1089YOPC   NC315895   8.962   6.409   5.987  0.0243  0.2712 -0.0310
 1089YOPC   PO415896   9.201   6.079   6.122  0.1740  0.0753 -0.1708
 1089YOPC   GL115897   9.067   6.110   6.474  0.0883 -0.1457  0.1749
 1089YOPC   GL215898   8.981   6.469   6.484 -0.0019  0.0467 -0.0186
 1089YOPC   C1A15899   9.409   5.953   6.769  0.0635 -0.1259 -0.2158
 1089YOPC   D2A15900   9.458   5.716   7.116 -0.0730 -0.3143  0.0887
 1089YOPC   C3A15901   9.829   5.771   7.134  0.0515  0.2571 -0.4582
 1089YOPC   C4A15902  10.150   6.017   7.201 -0.1915  0.3045  0.1342
 1089YOPC   C1B15903   8.746   6.543   6.801  0.0747 -0.1436 -0.1597
 1089YOPC   C2B15904   8.699   6.502   7.209  0.0188 -0.0172  0.0075
 1089YOPC   D3B15905   8.683   6.118   7.556 -0.0424 -0.5160  0.1731
 1089YOPC   C4B15906   8.346   5.895   7.704  0.0918  0.2756 -0.2208
 1090YOPC   NC315907  17.406   9.768   5.764  0.0663 -0.1642  0.1315
 1090YOPC   PO415908  17.661   9.825   6.104 -0.0848  0.0674 -0.2205
 1090YOPC   GL115909  17.710   9.613   6.459 -0.1345  0.0710 -0.2794
 1090YOPC   GL215910  17.786   9.826   6.732  0.0391  0.0464 -0.0787
 1090YOPC   C1A15911  17.555   9.322   6.695  0.3714 -0.4052 -0.2122
 1090YOPC   D2A15912  17.555   9.189   7.152  0.1228  0.0132 -0.0301
 1090YOPC   C3A15913  17.761   9.294   7.434  0.2656  0.3430 -0.0574
 1090YOPC   C4A15914  18.057   9.353   7.700 -0.3175 -0.0516 -0.3055
 1090YOPC   C1B15915  17.989   9.427   6.932  0.0170 -0.2068 -0.0980
 1090YOPC   C2B15916  18.166   9.121   7.225 -0.0660 -0.2326  0.2282
 1090YOPC   D3B15917  18.275   8.868   7.535  0.1287  0.0741  0.1983
 1090YOPC   C4B15918  18.394   8.585   7.870 -0.0800  0.1900 -0.4547
 1091YOPC   NC315919  14.235  10.051   6.044 -0.2827  0.1255  0.0375
 1091YOPC   PO415920  14.579  10.373   6.008 -0.0728  0.0301 -0.2103
 1091YOPC   GL115921  14.671  10.113   6.453  0.0853 -0.2453  0.0119
 1091YOPC   GL215922  14.789  10.364   6.678 -0.2047  0.1878  0.0718
 1091YOPC   C1A15923  14.396  10.018   6.783  0.1124 -0.0801  0.1431
 1091YOPC   D2A15924  14.175   9.904   7.227  0.1044  0.1950 -0.0054
 1091YOPC   C3A15925  14.422   9.933   7.653 -0.0255 -0.2599 -0.1412
 1091YOPC   C4A15926  14.452   9.819   8.049  0.0543  0.0337 -0.0804
 1091YOPC   C1B15927  14.684  10.308   7.117 -0.0650 -0.1922  0.2432
 1091YOPC   C2B15928  14.717  10.296   7.527 -0.0809 -0.1416  0.0301
 1091YOPC   D3B15929  14.637  10.689   7.654  0.0328  0.1792 -0.1132
 1091YOPC   C4B15930  14.858  10.819   8.071  0.1982 -0.1314 -0.0502
 1092YOPC   NC315931   5.669  12.939   6.277  0.0142 -0.3047  0.1398
 1092YOPC   PO415932   6.108  13.037   6.090  0.0912  0.1509  0.1301
 1092YOPC   GL115933   6.228  13.021   6.464 -0.1040  0.3965  0.1367
 1092YOPC   GL215934   6.158  13.192   6.587 -0.0741  0.0238 -0.1122
 1092YOPC   C1A15935   6.417  12.827   6.832 -0.2927 -0.0627  0.0758
 1092YOPC   D2A15936   6.423  12.524   7.090 -0.0988 -0.1250  0.3129
 1092YOPC   C3A15937   6.667  12.727   7.383  0.1107 -0.1072  0.3587
 1092YOPC   C4A15938   6.987  12.968   7.556  0.0293  0.0043  0.0230
 1092YOPC   C1B15939   6.303  13.299   7.005 -0.0792 -0.0386 -0.3123
 1092YOPC   C2B15940   6.603  13.213   7.264  0.0955  0.0224 -0.3494
 1092YOPC   D3B15941   6.494  13.529   7.612  0.5247  0.0778 -0.0476
 1092YOPC   C4B15942   6.340  13.519   8.072  0.0324  0.0691  0.0322
 1093YOPC   NC315943  10.765  10.586   5.732  0.3031 -0.0722 -0.1495
 1093YOPC   PO415944  10.518  10.193   5.918 -0.2564  0.1987 -0.1136
 1093YOPC   GL115945  10.466  10.351   6.294 -0.1533 -0.0879  0.0443
 1093YOPC   GL215946  10.690  10.626   6.198 -0.0986  0.0212 -0.3592
 1093YOPC   C1A15947  10.391  10.401   6.594 -0.0324  0.0631  0.0552
 1093YOPC   D2A15948  10.371  10.525   6.946 -0.4528 -0.1734  0.0473
 1093YOPC   C3A15949  10.521  10.251   7.226 -0.1480  0.0372  0.0504
 1093YOPC   C4A15950  10.635   9.852   7.153 -0.1848  0.1524  0.0474
 1093YOPC   C1B15951  10.676  10.787   6.559 -0.1665  0.0356 -0.1181
 1093YOPC   C2B15952  10.518  10.985   6.911  0.0074  0.1491 -0.2038
 1093YOPC   D3B15953  10.674  11.229   7.118 -0.1661 -0.1397  0.0775
 1093YOPC   C4B15954  10.853  11.328   7.431 -0.0930  0.4080 -0.0393
 1094YOPC   NC315955  11.708  16.406   5.490 -0.0852 -0.0858 -0.0359
 1094YOPC   PO415956  12.146  16.268   5.783 -0.1629 -0.0023 -0.1300
 1094YOPC   GL115957  12.111  16.208   6.287  0.1319 -0.1040  0.1066
 1094YOPC   GL215958  12.437  16.053   6.341  0.3417  0.4071 -0.0699
 1094YOPC   C1A15959  11.861  16.414   6.602 -0.2265  0.0334  0.0728
 1094YOPC   D2A15960  11.531  16.538   6.805 -0.1203 -0.0999  0.4430
 1094YOPC   C3A15961  11.193  16.661   6.512 -0.0063  0.2644 -0.3383
 1094YOPC   C4A15962  10.823  16.618   6.370  0.1771 -0.0624  0.1037
 1094YOPC   C1B15963  12.298  16.108   6.779  0.3075  0.0392 -0.0788
 1094YOPC   C2B15964  12.485  16.180   7.137 -0.1523 -0.0108 -0.2284
 1094YOPC   D3B15965  12.459  15.883   7.370 -0.0016  0.2010 -0.0363
 1094YOPC   C4B15966  12.196  15.568   7.514 -0.3203 -0.1743 -0.0674
 1095YOPC   NC315967  14.270  16.689   5.554  0.3119 -0.0696  0.0066
 1095YOPC   PO415968  13.858  16.553   5.715 -0.0320 -0.0090  0.2310
 1095YOPC   GL115969  13.695  16.439   6.109 -0.1124 -0.2159 -0.4225
 1095YOPC   GL215970  14.022  16.483   6.207  0.1348 -0.1070  0.1708
 1095YOPC   C1A15971  13.443  16.400   6.546  0.1425 -0.1161 -0.0655
 1095YOPC   D2A15972  13.114  16.144   6.751 -0.0584 -0.1451 -0.0973
 1095YOPC   C3A15973  13.029  16.183   7.118 -0.2036 -0.2784 -0.3410
 1095YOPC   C4A15974  12.963  16.193   7.495 -0.1255 -0.1973  0.1375
 1095YOPC   C1B15975  13.949  16.511   6.672 -0.4291 -0.0083  0.1129
 1095YOPC   C2B15976  13.623  16.424   7.005  0.2071  0.0778  0.1187
 1095YOPC   D3B15977  13.696  16.589   7.438  0.2236 -0.1486 -0.2739
 1095YOPC   C4B15978  13.513  16.703   7.809  0.2400  0.0503 -0.0558
 1096YOPC   NC315979  17.829  15.171   5.925 -0.0181  0.2840  0.0882
 1096YOPC   PO415980  17.987  15.638   5.827 -0.0100  0.0884  0.2482
 1096YOPC   GL115981  18.028  15.533   6.277  0.1190  0.0396  0.2438
 1096YOPC   GL215982  17.783  15.653   6.524  0.1598  0.1612  0.2335
 1096YOPC   C1A15983  18.304  15.456   6.617 -0.0087  0.2448  0.2578
 1096YOPC   D2A15984  18.273  15.475   7.089  0.3443  0.1636  0.0123
 1096YOPC   C3A15985  18.536  15.324   7.379  0.1295 -0.2361  0.0660
 1096YOPC   C4A15986  18.725  15.349   7.836 -0.0225 -0.1138 -0.1801
 1096YOPC   C1B15987  17.851  15.824   6.929  0.0972  0.0232  0.2870
 1096YOPC   C2B15988  18.052  15.856   7.381 -0.5530  0.3967  0.0486
 1096YOPC   D3B15989  17.994  15.607   7.709  0.0709  0.0510 -0.2457
 1096YOPC   C4B15990  18.262  15.430   8.077 -0.2062 -0.1651  0.0365
 1097YOPC   NC315991  13.152   5.674   5.701 -0.1337  0.0394 -0.1000
 1097YOPC   PO415992  13.258   6.068   5.937  0.1555  0.2186  0.1111
 1097YOPC   GL115993  13.149   6.320   6.259  0.1386 -0.0697 -0.3872
 1097YOPC   GL215994  13.298   6.581   6.340  0.1840  0.1284  0.1262
 1097YOPC   C1A15995  13.325   6.115   6.642  0.0085  0.1679  0.1055
 1097YOPC   D2A15996  13.573   6.099   6.912  0.2339 -0.0023 -0.0413
 1097YOPC   C3A15997  13.524   6.391   7.241  0.2201  0.1230 -0.1053
 1097YOPC   C4A15998  13.750   6.437   7.577 -0.3247  0.0023  0.1529
 1097YOPC   C1B15999  13.225   6.763   6.780  0.4006  0.3279 -0.0858
 1097YOPC   C2B16000  13.162   6.796   7.132  0.0223 -0.0471  0.0043
 1097YOPC   D3B16001  13.369   6.835   7.406 -0.2523 -0.1093 -0.0204
 1097YOPC   C4B16002  13.594   6.890   7.840  0.2507  0.1593 -0.0398
 1098YOPC   NC316003  13.555   1.388   5.324  0.0308 -0.1078 -0.0299
 1098YOPC   PO416004  13.798   1.040   5.526  0.0529 -0.2186 -0.0310
 1098YOPC   GL116005  13.633   0.799   5.941 -0.0433 -0.0505 -0.1976
 1098YOPC   GL216006  13.313   0.684   5.719 -0.0992  0.0682  0.0046
 1098YOPC   C1A16007  13.582   0.661   6.373  0.1155  0.1672  0.3346
 1098YOPC   D2A16008  13.760   0.425   6.647 -0.1119 -0.0292 -0.3241
 1098YOPC   C3A16009  14.044   0.144   6.362 -0.0360 -0.0498 -0.1110
 1098YOPC   C4A16010  14.146  -0.209   6.121 -0.0432 -0.0957  0.2149
 1098YOPC   C1B16011  13.153   0.591   6.041  0.0892  0.0905  0.1621
 1098YOPC   C2B16012  13.040   0.568   6.418  0.0400  0.0589  0.1143
 1098YOPC   D3B16013  13.276   0.274   6.675 -0.1144  0.1010  0.1704
 1098YOPC   C4B16014  13.439   0.352   7.032 -0.1873 -0.0655 -0.0497
 1099YOPC   NC316015   3.764  16.774   5.687  0.0353 -0.1224 -0.1253
 1099YOPC   PO416016   3.354  16.922   5.532 -0.3338 -0.4607 -0.2127
 1099YOPC   GL116017   3.117  16.869   5.918 -0.0438 -0.1120 -0.1481
 1099YOPC   GL216018   2.874  16.645   6.039  0.0027  0.0241 -0.0265
 1099YOPC   C1A16019   3.189  16.972   6.404 -0.0141 -0.0295 -0.1722
 1099YOPC   D2A16020   3.408  17.147   6.772  0.0137  0.0916 -0.0553
 1099YOPC   C3A16021   3.257  17.077   7.154 -0.3471  0.0109 -0.3015
 1099YOPC   C4A16022   3.544  17.075   7.439 -0.3462  0.2488  0.0273
 1099YOPC   C1B16023   2.955  16.502   6.458 -0.4054  0.2406 -0.0808
 1099YOPC   C2B16024   3.130  16.574   6.946  0.1470 -0.2679  0.0163
 1099YOPC   D3B16025   2.985  16.517   7.371  0.0993  0.1553 -0.2034
 1099YOPC   C4B16026   2.922  16.536   7.849 -0.1289  0.0938  0.1442
 1100YOPC   NC316027  13.584  17.750   5.350  0.0725  0.4536  0.2749
 1100YOPC   PO416028  13.885  17.632   5.558  0.0078 -0.1706  0.0939
 1100YOPC   GL116029  13.766  17.398   5.857  0.3821  0.0687 -0.0259
 1100YOPC   GL216030  13.698  17.007   5.791 -0.1621 -0.0550 -0.1020
 1100YOPC   C1A16031  13.499  17.319   6.304 -0.0991 -0.2513  0.0523
 1100YOPC   D2A16032  13.255  17.212   6.621 -0.2856  0.2631 -0.0218
 1100YOPC   C3A16033  13.073  17.431   6.984 -0.3902  0.0058  0.1475
 1100YOPC   C4A16034  13.150  17.924   7.069  0.1002 -0.0453  0.1134
 1100YOPC   C1B16035  13.331  16.954   6.020  0.2219  0.0440 -0.2389
 1100YOPC   C2B16036  12.993  17.214   6.196 -0.1025  0.1801  0.1386
 1100YOPC   D3B16037  12.852  17.520   6.519 -0.2034  0.2480 -0.1613
 1100YOPC   C4B16038  12.685  17.713   6.931  0.1884 -0.5064  0.1587
 1101YOPC   NC316039   3.293   1.485   5.701 -0.0390  0.1260 -0.1323
 1101YOPC   PO416040   2.924   1.333   5.717  0.1865 -0.0086  0.2817
 1101YOPC   GL116041   2.948   1.421   6.064 -0.2040  0.0356 -0.0544
 1101YOPC   GL216042   2.766   1.644   6.145 -0.0302 -0.1036 -0.1985
 1101YOPC   C1A16043   3.056   1.345   6.409  0.1021  0.1172 -0.2139
 1101YOPC   D2A16044   3.480   1.399   6.610  0.0672 -0.0341  0.0474
 1101YOPC   C3A16045   3.545   1.545   7.000 -0.1323 -0.0175  0.0001
 1101YOPC   C4A16046   3.761   1.643   7.372  0.0141  0.0576 -0.0159
 1101YOPC   C1B16047   2.621   1.612   6.637 -0.0464  0.0812 -0.1273
 1101YOPC   C2B16048   2.448   1.443   7.035  0.1066  0.2640 -0.2051
 1101YOPC   D3B16049   2.539   1.557   7.410 -0.2109  0.2094  0.0456
 1101YOPC   C4B16050   2.616   1.533   7.861 -0.1478 -0.2100  0.2382
 1102YOPC   NC316051   9.579   1.710   5.743 -0.2518 -0.0338  0.0318
 1102YOPC   PO416052   9.901   1.517   5.991 -0.2285  0.2435  0.1067
 1102YOPC   GL116053   9.630   1.576   6.382  0.0689  0.1609 -0.3615
 1102YOPC   GL216054   9.964   1.457   6.530  0.1759  0.0615 -0.0017
 1102YOPC   C1A16055   9.574   1.533   6.855 -0.0837  0.0872  0.0510
 1102YOPC   D2A16056   9.830   1.472   7.249 -0.1145  0.4752  0.1003
 1102YOPC   C3A16057  10.145   1.707   7.494 -0.1796  0.0602 -0.1021
 1102YOPC   C4A16058  10.406   1.767   7.929 -0.0004 -0.1459  0.0114
 1102YOPC   C1B16059  10.130   1.363   6.815  0.0654 -0.0217  0.0878
 1102YOPC   C2B16060  10.325   1.357   7.136 -0.3004  0.0786  0.1814
 1102YOPC   D3B16061  10.132   1.187   7.515  0.1095 -0.1188 -0.3372
 1102YOPC   C4B16062   9.967   1.116   7.983  0.0576 -0.1984  0.0966
 1103YOPC   NC316063   5.216  12.644   5.610  0.0167 -0.2638  0.1271
 1103YOPC   PO416064   5.230  12.871   5.975 -0.3304 -0.2499  0.1546
 1103YOPC   GL116065   5.167  12.703   6.379 -0.0745 -0.0755 -0.0046
 1103YOPC   GL216066   5.462  12.585   6.622 -0.0996 -0.1374 -0.0769
 1103YOPC   C1A16067   4.888  12.437   6.729  0.0857 -0.0318  0.0726
 1103YOPC   D2A16068   4.644  12.173   7.096 -0.0325 -0.0221  0.1123
 1103YOPC   C3A16069   4.878  12.035   7.395 -0.2198 -0.1916  0.1401
 1103YOPC   C4A16070   5.225  11.953   7.610  0.3335  0.1515 -0.0371
 1103YOPC   C1B16071   5.433  12.836   7.009  0.0702  0.1084 -0.3583
 1103YOPC   C2B16072   5.579  12.848   7.472 -0.1232  0.1741 -0.0933
 1103YOPC   D3B16073   5.609  12.801   7.977 -0.3202  0.0432 -0.0834
 1103YOPC   C4B16074   5.993  12.763   8.317 -0.1807 -0.0618 -0.3871
 1104YOPC   NC316075  16.643   7.827   5.615  0.2236 -0.0165  0.0701
 1104YOPC   PO416076  16.462   7.359   5.778  0.0522  0.0075 -0.3936
 1104YOPC   GL116077  16.479   7.497   6.150  0.3839 -0.1668  0.1623
 1104YOPC   GL216078  16.352   7.223   6.289  0.2074 -0.1672  0.2818
 1104YOPC   C1A16079  16.589   7.624   6.611  0.0141 -0.2206  0.0409
 1104YOPC   D2A16080  16.380   8.004   6.872 -0.3516  0.1647  0.2766
 1104YOPC   C3A16081  16.360   7.952   7.374  0.0719 -0.0597 -0.1125
 1104YOPC   C4A16082  16.354   7.841   7.853 -0.2289 -0.2236  0.1099
 1104YOPC   C1B16083  16.259   7.297   6.696  0.1207  0.2128 -0.0317
 1104YOPC   C2B16084  16.203   7.534   7.046  0.4246  0.0220  0.0901
 1104YOPC   D3B16085  16.287   7.486   7.444  0.1010 -0.0673  0.0552
 1104YOPC   C4B16086  16.398   7.326   7.838  0.1294 -0.0986  0.0593
 1105YOPC   NC316087   1.449   9.546   6.200  0.0311  0.2562 -0.1843
 1105YOPC   PO416088   1.847   9.733   6.269 -0.1516 -0.1191  0.0298
 1105YOPC   GL116089   1.874   9.559   6.627 -0.1203  0.2030 -0.0153
 1105YOPC   GL216090   1.652   9.232   6.587 -0.0770  0.0322  0.2595
 1105YOPC   C1A16091   2.036   9.557   7.053 -0.0759 -0.0824  0.0574
 1105YOPC   D2A16092   2.124   9.650   7.506 -0.1082 -0.1276  0.0035
 1105YOPC   C3A16093   2.458  10.091   7.560 -0.2136  0.1708 -0.3400
 1105YOPC   C4A16094   2.735  10.485   7.628 -0.1936  0.2689 -0.0434
 1105YOPC   C1B16095   1.741   9.138   7.102 -0.1661 -0.3911 -0.1112
 1105YOPC   C2B16096   1.727   9.169   7.572 -0.2188  0.0561 -0.3050
 1105YOPC   D3B16097   1.613   9.065   8.014  0.0316  0.2309  0.1852
 1105YOPC   C4B16098   1.237   9.182   8.287 -0.2396 -0.0536 -0.0488
 1106YOPC   NC316099   7.610  16.307   5.644  0.0718  0.2418  0.0507
 1106YOPC   PO416100   7.181  16.379   5.685 -0.1714  0.2237  0.0447
 1106YOPC   GL116101   7.287  16.263   6.123 -0.0790  0.1031 -0.0184
 1106YOPC   GL216102   7.504  16.145   6.145 -0.0065 -0.1186  0.3009
 1106YOPC   C1A16103   7.188  16.201   6.556 -0.3170 -0.5286  0.2759
 1106YOPC   D2A16104   7.054  16.022   6.897 -0.1296  0.0544  0.0184
 1106YOPC   C3A16105   7.478  15.778   6.993  0.1258 -0.4387  0.2148
 1106YOPC   C4A16106   7.950  15.616   6.893  0.0667  0.1099  0.0156
 1106YOPC   C1B16107   7.637  16.022   6.548  0.1270 -0.0074 -0.0848
 1106YOPC   C2B16108   7.928  16.080   6.850 -0.0414 -0.0519  0.1361
 1106YOPC   D3B16109   7.938  16.004   7.191  0.0406 -0.1452 -0.2767
 1106YOPC   C4B16110   7.835  15.683   7.398  0.0403  0.1007 -0.0734
 1107YOPC   NC316111  16.070  13.068   6.095 -0.1718  0.1294 -0.0830
 1107YOPC   PO416112  16.229  12.632   5.965  0.0302 -0.1551 -0.1557
 1107YOPC   GL116113  16.104  12.667   6.388  0.1265 -0.2171  0.4764
 1107YOPC   GL216114  16.393  12.751   6.457 -0.3500 -0.3157  0.0113
 1107YOPC   C1A16115  16.282  12.369   6.735  0.0940  0.1167  0.2834
 1107YOPC   D2A16116  16.202  12.357   7.155 -0.0929  0.0713 -0.1391
 1107YOPC   C3A16117  16.446  12.686   7.289  0.0666 -0.1647  0.2558
 1107YOPC   C4A16118  16.387  12.975   7.618  0.0521 -0.2762  0.2748
 1107YOPC   C1B16119  16.525  12.775   6.832 -0.1007  0.1883  0.3406
 1107YOPC   C2B16120  16.961  12.751   7.105  0.0746 -0.2830 -0.1567
 1107YOPC   D3B16121  17.242  12.520   7.331 -0.0501  0.2303  0.3179
 1107YOPC   C4B16122  17.265  12.277   7.670  0.2994 -0.0102 -0.5762
 1108YOPC   NC316123   8.317   5.128   5.585  0.6336  0.1541 -0.3452
 1108YOPC   PO416124   7.901   5.139   5.807  0.0463  0.1907  0.0442
 1108YOPC   GL116125   7.983   5.331   6.228 -0.2223 -0.0912  0.2979
 1108YOPC   GL216126   8.192   5.342   6.525  0.0897 -0.1578 -0.3411
 1108YOPC   C1A16127   7.806   5.624   6.576 -0.0502  0.3757 -0.1967
 1108YOPC   D2A16128   7.568   5.788   6.941  0.1388 -0.0397  0.1906
 1108YOPC   C3A16129   7.698   5.989   7.376 -0.3129  0.0600  0.0674
 1108YOPC   C4A16130   7.905   6.158   7.679  0.0279  0.1217  0.2107
 1108YOPC   C1B16131   8.021   5.348   6.951  0.0720  0.0151  0.1007
 1108YOPC   C2B16132   7.863   5.536   7.287 -0.1209 -0.1277 -0.0968
 1108YOPC   D3B16133   7.821   5.540   7.748  0.2242 -0.1970 -0.3169
 1108YOPC   C4B16134   7.497   5.641   8.017  0.3004  0.1163  0.0584
 1109YOPC   NC316135  10.599   9.094   5.863  0.0289 -0.2670  0.0061
 1109YOPC   PO416136  10.415   8.643   5.883 -0.0366 -0.0022 -0.0800
 1109YOPC   GL116137  10.511   8.537   6.357  0.3198 -0.4062  0.1851
 1109YOPC   GL216138  10.342   8.225   6.478  0.0724  0.2719 -0.0653
 1109YOPC   C1A16139  10.472   8.686   6.745 -0.1340 -0.1841 -0.1111
 1109YOPC   D2A16140  10.529   9.010   7.051  0.0510  0.0397 -0.0417
 1109YOPC   C3A16141  10.290   9.363   7.038 -0.3795  0.0651 -0.3517
 1109YOPC   C4A16142  10.025   9.526   6.763  0.1916 -0.1363  0.3268
 1109YOPC   C1B16143  10.421   8.164   6.987  0.2621 -0.2432  0.1453
 1109YOPC   C2B16144  10.291   8.083   7.453  0.1252  0.1567  0.1093
 1109YOPC   D3B16145  10.102   8.441   7.575 -0.1245 -0.1338  0.3446
 1109YOPC   C4B16146  10.112   8.697   7.986 -0.0804  0.5141  0.1283
 1110YOPC   NC316147   2.709   9.682   6.465 -0.3405 -0.0545  0.1699
 1110YOPC   PO416148   2.417   9.393   6.272  0.5170 -0.0437 -0.2562
 1110YOPC   GL116149   2.116   9.085   6.643 -0.3033  0.2147 -0.0319
 1110YOPC   GL216150   2.057   8.883   6.484  0.0735 -0.1660 -0.4901
 1110YOPC   C1A16151   2.127   8.869   7.000  0.3246 -0.0777  0.0531
 1110YOPC   D2A16152   2.191   8.993   7.333  0.1192  0.2948 -0.1026
 1110YOPC   C3A16153   2.331   9.184   7.643  0.0631  0.0367 -0.0729
 1110YOPC   C4A16154   2.731   9.017   7.918  0.0245 -0.4301 -0.0862
 1110YOPC   C1B16155   1.674   8.723   6.732  0.1250  0.2342 -0.0953
 1110YOPC   C2B16156   1.532   8.661   7.188 -0.0506 -0.0311 -0.3398
 1110YOPC   D3B16157   1.469   8.703   7.631  0.1784  0.3206  0.2003
 1110YOPC   C4B16158   1.225   8.771   7.936 -0.1569 -0.1140 -0.0443
 1111YOPC   NC316159  17.333  11.185   6.171  0.1156  0.0291 -0.1670
 1111YOPC   PO416160  17.045  11.513   5.948  0.1229  0.1934 -0.0745
 1111YOPC   GL116161  17.221  11.736   6.326  0.4403 -0.1037  0.0181
 1111YOPC   GL216162  17.515  11.792   6.500  0.1349 -0.1321 -0.2973
 1111YOPC   C1A16163  16.962  11.774   6.629  0.0853 -0.3364 -0.2341
 1111YOPC   D2A16164  16.846  11.712   7.027  0.4744  0.4357  0.2437
 1111YOPC   C3A16165  16.583  11.448   7.327 -0.0821  0.1233 -0.1515
 1111YOPC   C4A16166  16.494  11.266   7.705 -0.1404 -0.0549  0.1541
 1111YOPC   C1B16167  17.349  11.912   6.912 -0.1277 -0.0363 -0.2443
 1111YOPC   C2B16168  17.309  11.912   7.352 -0.0762 -0.1435 -0.0797
 1111YOPC   D3B16169  16.950  11.751   7.538 -0.3357 -0.2707 -0.0178
 1111YOPC   C4B16170  16.647  11.750   7.863 -0.3470 -0.4011 -0.4041
 1112YOPC   NC316171  17.246   0.822   5.931 -0.1391  0.1324 -0.1011
 1112YOPC   PO416172  17.620   0.838   6.176  0.0315 -0.1007 -0.2387
 1112YOPC   GL116173  17.758   1.064   6.530 -0.1513 -0.0877  0.0728
 1112YOPC   GL216174  17.797   1.367   6.755 -0.2215 -0.0032  0.0687
 1112YOPC   C1A16175  17.720   0.986   7.011  0.0398  0.0210 -0.1497
 1112YOPC   D2A16176  17.921   1.016   7.342 -0.0401  0.2044 -0.2060
 1112YOPC   C3A16177  18.201   0.714   7.487  0.1176 -0.1746 -0.2135
 1112YOPC   C4A16178  18.202   0.247   7.657  0.1869  0.2468 -0.0553
 1112YOPC   C1B16179  17.504   1.492   7.028  0.3932 -0.1499  0.0007
 1112YOPC   C2B16180  17.393   1.568   7.564  0.2991  0.0446  0.0930
 1112YOPC   D3B16181  17.537   1.867   7.856  0.3669 -0.0439 -0.2070
 1112YOPC   C4B16182  17.672   2.062   8.302  0.2267  0.1581  0.1172
 1113YOPC   NC316183   1.870   5.422   6.008 -0.1694 -0.3024 -0.0656
 1113YOPC   PO416184   1.932   5.019   5.996  0.0749  0.0397  0.1470
 1113YOPC   GL116185   1.846   5.089   6.434  0.1398 -0.1580 -0.0028
 1113YOPC   GL216186   2.043   4.965   6.581 -0.1038  0.1459 -0.4475
 1113YOPC   C1A16187   1.582   5.032   6.850 -0.1711  0.1574 -0.0652
 1113YOPC   D2A16188   1.639   5.128   7.205 -0.1861  0.1990  0.0142
 1113YOPC   C3A16189   1.616   5.496   7.350 -0.0076  0.0231 -0.2973
 1113YOPC   C4A16190   1.689   5.580   7.743  0.1707  0.0153  0.4751
 1113YOPC   C1B16191   2.080   5.078   7.074  0.0568  0.0425  0.1031
 1113YOPC   C2B16192   2.119   5.400   7.413 -0.2117 -0.1167  0.0494
 1113YOPC   D3B16193   2.593   5.637   7.526 -0.0717 -0.1345  0.3865
 1113YOPC   C4B16194   2.947   5.868   7.566  0.0263 -0.0291 -0.0087
 1114YOPC   NC316195  11.032   4.123   5.590  0.1057  0.0591  0.3455
 1114YOPC   PO416196  10.912   3.862   5.942 -0.1189  0.4717 -0.0083
 1114YOPC   GL116197  10.712   3.735   6.273 -0.1027 -0.0212 -0.1000
 1114YOPC   GL216198  10.910   3.441   6.242  0.0664 -0.0867 -0.0182
 1114YOPC   C1A16199  10.600   3.594   6.630  0.0944 -0.1308 -0.1870
 1114YOPC   D2A16200  10.584   3.665   7.135  0.2796  0.0972 -0.1355
 1114YOPC   C3A16201  10.508   3.548   7.452 -0.2246  0.0896  0.1951
 1114YOPC   C4A16202  10.499   3.230   7.774 -0.1688  0.1746  0.3505
 1114YOPC   C1B16203  10.992   3.117   6.549 -0.2277  0.1029  0.1243
 1114YOPC   C2B16204  11.156   3.047   6.972  0.0470  0.1319 -0.1553
 1114YOPC   D3B16205  11.435   3.147   7.467  0.1379 -0.0785  0.0930
 1114YOPC   C4B16206  11.493   2.838   7.746  0.2605  0.1217  0.3266
 1115YOPC   NC316207   4.845  11.291   5.998  0.1367 -0.1428 -0.1130
 1115YOPC   PO416208   5.176  10.981   6.186 -0.2294  0.3351  0.0982
 1115YOPC   GL116209   5.208  10.946   6.544  0.0214  0.0216  0.2349
 1115YOPC   GL216210   4.860  10.795   6.694  0.0545  0.0005 -0.0163
 1115YOPC   C1A16211   5.349  10.709   6.887  0.0569 -0.0685  0.1248
 1115YOPC   D2A16212   5.237  10.708   7.395  0.1355 -0.0008 -0.0909
 1115YOPC   C3A16213   5.509  10.791   7.626 -0.2330  0.1280 -0.2214
 1115YOPC   C4A16214   5.913  10.790   7.924 -0.1929 -0.0744 -0.1903
 1115YOPC   C1B16215   4.847  10.714   7.085  0.0751 -0.1423  0.1510
 1115YOPC   C2B16216   4.777  10.570   7.557  0.2779  0.0884  0.0512
 1115YOPC   D3B16217   5.088  10.650   7.893 -0.2503  0.0631 -0.0641
 1115YOPC   C4B16218   5.462  10.312   7.864 -0.0436  0.1129  0.0082
 1116YOPC   NC316219   6.485   1.976   5.482  0.2168  0.1437  0.0435
 1116YOPC   PO416220   6.581   1.611   5.707  0.1378  0.1364  0.3684
 1116YOPC   GL116221   6.455   1.413   6.050  0.4182 -0.1927  0.0708
 1116YOPC   GL216222   6.374   1.661   6.322  0.1500 -0.0411 -0.0657
 1116YOPC   C1A16223   6.209   1.120   6.319  0.0042  0.2999 -0.2121
 1116YOPC   D2A16224   6.040   0.999   6.622 -0.0600 -0.0682 -0.1177
 1116YOPC   C3A16225   6.084   0.634   6.794  0.2212  0.3149  0.2641
 1116YOPC   C4A16226   6.091   0.426   7.240 -0.0030  0.2254 -0.0261
 1116YOPC   C1B16227   6.503   1.729   6.712 -0.0384  0.2824  0.2670
 1116YOPC   C2B16228   6.491   1.871   7.108  0.0895  0.1294 -0.0826
 1116YOPC   D3B16229   6.322   1.689   7.347 -0.1063  0.1279 -0.4065
 1116YOPC   C4B16230   6.173   1.392   7.433  0.0984 -0.0239  0.0503
 1117YOPC   NC316231  10.967   5.795   5.927 -0.2652 -0.1227  0.0427
 1117YOPC   PO416232  11.390   5.662   5.992  0.2857 -0.1170  0.5203
 1117YOPC   GL116233  11.657   5.809   6.334  0.0086 -0.0415 -0.0442
 1117YOPC   GL216234  11.623   6.131   6.285 -0.1694 -0.1617 -0.0715
 1117YOPC   C1A16235  11.746   5.821   6.842  0.3501  0.2069 -0.0199
 1117YOPC   D2A16236  11.899   5.835   7.255  0.2288 -0.3843 -0.1412
 1117YOPC   C3A16237  12.062   6.232   7.439  0.0484 -0.0902 -0.1744
 1117YOPC   C4A16238  12.354   6.419   7.750  0.1400  0.0191  0.2649
 1117YOPC   C1B16239  11.338   6.277   6.649  0.0959  0.0150  0.0491
 1117YOPC   C2B16240  11.325   6.621   6.964 -0.4482 -0.1406 -0.0290
 1117YOPC   D3B16241  11.732   6.637   7.304 -0.0697  0.0829  0.0194
 1117YOPC   C4B16242  12.233   6.599   7.217 -0.3010 -0.2172 -0.1297
 1118YOPC   NC316243   6.040   3.486   5.498 -0.2311 -0.0969  0.0398
 1118YOPC   PO416244   5.586   3.725   5.380 -0.0170  0.2342 -0.2244
 1118YOPC   GL116245   5.597   3.663   5.824  0.0939  0.1180  0.0056
 1118YOPC   GL216246   5.394   3.855   6.018 -0.3742  0.1360 -0.0348
 1118YOPC   C1A16247   5.641   3.332   6.215 -0.0246 -0.1203  0.2196
 1118YOPC   D2A16248   5.621   3.228   6.627 -0.0925 -0.3600  0.1299
 1118YOPC   C3A16249   5.911   3.419   6.856 -0.2891  0.0514 -0.1384
 1118YOPC   C4A16250   5.864   3.412   7.187 -0.0064 -0.2166 -0.0598
 1118YOPC   C1B16251   5.327   3.785   6.483 -0.0462 -0.1390 -0.1561
 1118YOPC   C2B16252   5.456   3.683   6.782  0.0874  0.1869 -0.0340
 1118YOPC   D3B16253   5.603   3.821   7.126 -0.1583  0.1896 -0.0908
 1118YOPC   C4B16254   5.816   3.861   7.615  0.0254 -0.1518 -0.4273
 1119YOPC   NC316255   9.486   8.399   6.236  0.1196  0.0560  0.1400
 1119YOPC   PO416256   9.302   8.002   6.138 -0.0247 -0.2530 -0.1992
 1119YOPC   GL116257   9.281   8.045   6.575  0.0491 -0.1952 -0.2601
 1119YOPC   GL216258   9.091   8.239   6.633 -0.0700 -0.4873 -0.1815
 1119YOPC   C1A16259   9.219   7.879   6.982 -0.0008  0.0916  0.0508
 1119YOPC   D2A16260   9.218   7.949   7.389  0.1897 -0.1278 -0.0461
 1119YOPC   C3A16261   9.448   7.771   7.785  0.1374 -0.0101 -0.0979
 1119YOPC   C4A16262   9.540   7.799   8.164 -0.0179  0.1005  0.0468
 1119YOPC   C1B16263   8.952   8.366   7.031  0.2558  0.2334 -0.0683
 1119YOPC   C2B16264   9.089   8.434   7.447  0.2004  0.1468  0.1357
 1119YOPC   D3B16265   9.176   8.229   7.793  0.1734  0.5058  0.1302
 1119YOPC   C4B16266   9.225   8.284   8.250 -0.0806 -0.1173 -0.0596
 1120YOPC   NC316267   9.834   3.748   5.862 -0.1866  0.2933  0.1616
 1120YOPC   PO416268   9.504   3.484   5.787 -0.0031  0.0693 -0.0873
 1120YOPC   GL116269   9.659   3.479   6.231 -0.3007  0.3657 -0.1565
 1120YOPC   GL216270   9.528   3.585   6.564 -0.0298  0.2309 -0.1654
 1120YOPC   C1A16271   9.733   3.178   6.611  0.1493  0.1585  0.1770
 1120YOPC   D2A16272   9.995   3.011   6.961 -0.3411 -0.2282  0.1265
 1120YOPC   C3A16273   9.765   2.838   7.262  0.0215  0.1392 -0.2647
 1120YOPC   C4A16274   9.689   2.848   7.794  0.0526  0.1453  0.1987
 1120YOPC   C1B16275   9.548   3.405   7.015 -0.2842 -0.0376 -0.0798
 1120YOPC   C2B16276   9.690   3.327   7.381 -0.1672 -0.2748  0.0029
 1120YOPC   D3B16277   9.981   3.166   7.601  0.0811 -0.2113 -0.0683
 1120YOPC   C4B16278  10.252   3.125   7.375 -0.4364 -0.1410 -0.1684
 1121YOPC   NC316279  16.995   3.638   5.800  0.0560 -0.0713  0.3579
 1121YOPC   PO416280  17.331   3.278   5.968  0.3142 -0.1399 -0.0069
 1121YOPC   GL116281  17.219   3.479   6.346 -0.1784 -0.1025  0.1682
 1121YOPC   GL216282  17.315   3.862   6.260  0.4943  0.4092 -0.0809
 1121YOPC   C1A16283  17.228   3.682   6.749 -0.2280 -0.0845 -0.0714
 1121YOPC   D2A16284  17.135   3.665   7.212  0.1376 -0.0769  0.2427
 1121YOPC   C3A16285  17.246   3.384   7.435 -0.0919  0.3943  0.1381
 1121YOPC   C4A16286  17.281   3.478   7.939 -0.0903 -0.1672  0.0752
 1121YOPC   C1B16287  17.475   4.151   6.616  0.3743 -0.0875  0.0762
 1121YOPC   C2B16288  17.758   4.531   6.775  0.2567  0.1560 -0.1804
 1121YOPC   D3B16289  17.762   4.510   7.289  0.1261 -0.3484  0.0659
 1121YOPC   C4B16290  17.590   4.267   7.513 -0.2155 -0.1304  0.0621
 1122YOPC   NC316291   2.156  10.220   6.106 -0.0069 -0.1522 -0.1160
 1122YOPC   PO416292   1.822  10.535   6.312 -0.2638 -0.2762  0.0381
 1122YOPC   GL116293   1.480  10.717   6.640  0.1231  0.0468 -0.2044
 1122YOPC   GL216294   1.131  10.780   6.533 -0.1277 -0.0477 -0.0450
 1122YOPC   C1A16295   1.435  10.755   7.062 -0.1867  0.3591 -0.0153
 1122YOPC   D2A16296   1.450  10.856   7.476  0.1346 -0.4351 -0.0494
 1122YOPC   C3A16297   1.569  10.516   7.704 -0.2178  0.2899 -0.0266
 1122YOPC   C4A16298   1.837  10.142   7.631  0.1220  0.1042 -0.0729
 1122YOPC   C1B16299   0.918  10.711   6.939 -0.0573 -0.1647  0.0880
 1122YOPC   C2B16300   1.090  10.414   7.164 -0.0314  0.1982  0.0764
 1122YOPC   D3B16301   0.810  10.038   7.435  0.1396  0.2017 -0.0942
 1122YOPC   C4B16302   0.839   9.620   7.670  0.0583  0.3112 -0.0737
 1123YOPC   NC316303  13.832  12.289   5.650  0.1669 -0.1503 -0.5595
 1123YOPC   PO416304  13.328  12.234   5.694  0.0142  0.0009 -0.1629
 1123YOPC   GL116305  13.405  12.232   6.130  0.0644 -0.1434  0.0342
 1123YOPC   GL216306  13.701  12.457   6.154  0.1891 -0.1201  0.0235
 1123YOPC   C1A16307  13.643  11.883   6.471  0.1569  0.1990  0.0741
 1123YOPC   D2A16308  13.788  11.826   6.932  0.0243  0.3126 -0.2046
 1123YOPC   C3A16309  13.657  12.184   7.098 -0.0147  0.0759 -0.3970
 1123YOPC   C4A16310  13.835  12.543   7.046  0.5389  0.3559 -0.0005
 1123YOPC   C1B16311  13.839  12.847   6.338  0.0859 -0.2049 -0.0667
 1123YOPC   C2B16312  13.957  13.214   6.539  0.0533  0.0039  0.2880
 1123YOPC   D3B16313  13.907  13.490   6.352  0.2843 -0.1395  0.0040
 1123YOPC   C4B16314  13.619  13.762   6.247  0.0181  0.0797 -0.1248
 1124YOPC   NC316315  16.643   6.013   5.766  0.4435 -0.0495 -0.1333
 1124YOPC   PO416316  16.881   5.642   5.812  0.1343 -0.1628  0.2391
 1124YOPC   GL116317  16.897   5.396   6.210  0.2391 -0.1445  0.1858
 1124YOPC   GL216318  16.951   5.078   6.140 -0.2215 -0.0790 -0.2436
 1124YOPC   C1A16319  16.912   5.492   6.662  0.0804  0.1047  0.1640
 1124YOPC   D2A16320  16.651   5.718   6.827  0.0017 -0.1842 -0.0782
 1124YOPC   C3A16321  16.302   5.935   6.648 -0.1486  0.0363  0.2015
 1124YOPC   C4A16322  16.081   6.343   6.638 -0.2240 -0.0221 -0.4351
 1124YOPC   C1B16323  16.962   4.954   6.578  0.1172 -0.1634 -0.0512
 1124YOPC   C2B16324  16.799   4.643   6.894  0.2201  0.2426  0.1578
 1124YOPC   D3B16325  16.678   4.881   7.318 -0.1390  0.4397  0.4222
 1124YOPC   C4B16326  16.969   5.167   7.508 -0.1967  0.1990  0.0609
 1125YOPC   NC316327   0.257   7.645   5.769 -0.1180 -0.2296 -0.0664
 1125YOPC   PO416328   0.100   7.327   5.812 -0.2226  0.0677  0.1904
 1125YOPC   GL116329   0.250   7.040   6.171  0.0925 -0.0239  0.1973
 1125YOPC   GL216330   0.157   7.261   6.456  0.3304  0.0092 -0.2610
 1125YOPC   C1A16331   0.320   6.815   6.488  0.0903  0.1628  0.0187
 1125YOPC   D2A16332   0.115   6.824   6.858 -0.4908 -0.0627  0.0426
 1125YOPC   C3A16333  -0.154   7.090   6.978 -0.0941  0.1609 -0.1304
 1125YOPC   C4A16334  -0.456   7.344   7.217 -0.0116  0.0837  0.1445
 1125YOPC   C1B16335   0.210   7.474   6.854  0.0136  0.1677 -0.1626
 1125YOPC   C2B16336   0.534   7.604   7.113 -0.1297  0.1430 -0.2035
 1125YOPC   D3B16337   0.474   7.811   7.563 -0.1834 -0.1915 -0.0341
 1125YOPC   C4B16338   0.176   8.059   7.752 -0.0501  0.0520 -0.1317
 1126YOPC   NC316339   8.043   9.560   5.914 -0.0260  0.0155  0.0253
 1126YOPC   PO416340   8.462   9.806   5.980 -0.0089  0.2444 -0.0454
 1126YOPC   GL116341   8.475   9.692   6.454  0.2487  0.2403  0.1325
 1126YOPC   GL216342   8.798   9.536   6.440  0.1112  0.2763 -0.1292
 1126YOPC   C1A16343   8.229   9.674   6.898 -0.1032  0.1377 -0.2720
 1126YOPC   D2A16344   8.219   9.532   7.280 -0.3028 -0.0147  0.3901
 1126YOPC   C3A16345   8.081   9.789   7.701  0.1544 -0.0629  0.1301
 1126YOPC   C4A16346   8.152   9.694   8.113 -0.0846  0.0026 -0.0927
 1126YOPC   C1B16347   8.607   9.293   6.762 -0.2298 -0.2012 -0.0570
 1126YOPC   C2B16348   8.692   9.374   7.226  0.0263 -0.0600  0.0635
 1126YOPC   D3B16349   8.957   9.555   7.400  0.2936  0.1597  0.0603
 1126YOPC   C4B16350   9.301   9.672   7.369 -0.1228  0.0303 -0.2991
 1127YOPC   NC316351  11.311  17.933   5.638  0.1247 -0.1565 -0.0492
 1127YOPC   PO416352  10.877  17.753   5.790  0.1084 -0.2301  0.1420
 1127YOPC   GL116353  11.092  17.559   6.086 -0.0160  0.1736 -0.1517
 1127YOPC   GL216354  10.999  17.476   6.423 -0.2975  0.0266  0.0750
 1127YOPC   C1A16355  11.415  17.755   6.471 -0.0773  0.1005 -0.0857
 1127YOPC   D2A16356  11.895  17.858   6.519  0.0637 -0.2359  0.1084
 1127YOPC   C3A16357  11.844  17.958   6.951 -0.0199 -0.0590 -0.3178
 1127YOPC   C4A16358  12.002  18.070   7.329  0.0736  0.3252  0.0165
 1127YOPC   C1B16359  11.251  17.161   6.641  0.1251  0.0020 -0.0483
 1127YOPC   C2B16360  11.396  17.080   7.012  0.1724  0.2273  0.3621
 1127YOPC   D3B16361  11.104  17.060   7.324 -0.0339 -0.0065 -0.0469
 1127YOPC   C4B16362  10.761  16.866   7.488  0.0089 -0.0896 -0.1726
 1128YOPC   NC316363   2.568   8.814   6.497  0.1881  0.1955  0.1369
 1128YOPC   PO416364   2.631   8.550   6.198 -0.0600 -0.3888  0.0447
 1128YOPC   GL116365   2.664   8.313   6.547  0.0439 -0.0872  0.1745
 1128YOPC   GL216366   2.280   8.387   6.668 -0.2173 -0.0000 -0.0863
 1128YOPC   C1A16367   2.780   8.080   7.029  0.4142  0.2717  0.1015
 1128YOPC   D2A16368   2.697   8.191   7.412  0.1126 -0.0383  0.1123
 1128YOPC   C3A16369   2.667   7.880   7.751  0.0487  0.1607  0.0370
 1128YOPC   C4A16370   2.436   7.748   8.140 -0.0947  0.1557  0.3691
 1128YOPC   C1B16371   2.441   8.437   7.002 -0.1676  0.2263 -0.0788
 1128YOPC   C2B16372   2.336   8.531   7.366  0.0680  0.2655  0.5738
 1128YOPC   D3B16373   2.518   8.508   7.793  0.0690 -0.1452 -0.1516
 1128YOPC   C4B16374   2.536   8.237   8.150 -0.2668  0.0565  0.1388
 1129YOPC   NC316375   2.520   1.655   5.721 -0.1253 -0.0084  0.2353
 1129YOPC   PO416376   2.154   1.860   5.678 -0.4009  0.1808  0.1480
 1129YOPC   GL116377   2.248   1.887   6.138 -0.1128  0.2243  0.0672
 1129YOPC   GL216378   2.274   1.613   6.196 -0.1906 -0.2770  0.1102
 1129YOPC   C1A16379   2.303   2.015   6.582 -0.0848 -0.1503  0.0041
 1129YOPC   D2A16380   2.389   1.946   7.051 -0.1477 -0.2149 -0.1500
 1129YOPC   C3A16381   2.378   2.081   7.404  0.1279 -0.0823  0.2245
 1129YOPC   C4A16382   2.265   1.908   7.838 -0.0616  0.1746  0.1204
 1129YOPC   C1B16383   2.535   1.221   6.338 -0.4188 -0.0551  0.1763
 1129YOPC   C2B16384   2.718   1.151   6.749 -0.0228  0.2601 -0.0297
 1129YOPC   D3B16385   2.454   0.874   6.950 -0.1993  0.0843 -0.1077
 1129YOPC   C4B16386   2.451   0.682   7.321  0.3399 -0.1752  0.0408
 1130YOPC   NC316387   7.901  16.304   5.193 -0.1101  0.1212  0.1963
 1130YOPC   PO416388   8.116  16.270   5.553 -0.0636  0.1535  0.0732
 1130YOPC   GL116389   8.129  16.113   5.941  0.2301 -0.1407 -0.0456
 1130YOPC   GL216390   7.981  16.261   6.047  0.1142 -0.4397 -0.0306
 1130YOPC   C1A16391   8.084  15.843   6.381 -0.0478 -0.2961 -0.1809
 1130YOPC   D2A16392   8.382  15.750   6.762 -0.0587 -0.0212  0.0889
 1130YOPC   C3A16393   8.628  15.695   7.135 -0.1745 -0.2300  0.0489
 1130YOPC   C4A16394   8.775  15.531   7.522 -0.0067 -0.1093  0.1926
 1130YOPC   C1B16395   8.002  16.456   6.495  0.0510 -0.0422  0.2096
 1130YOPC   C2B16396   8.044  16.662   6.813 -0.1763  0.4850 -0.1146
 1130YOPC   D3B16397   7.974  16.573   7.220  0.1223  0.1106 -0.1124
 1130YOPC   C4B16398   7.827  16.586   7.583 -0.1092  0.0942 -0.0879
 1131YOPC   NC316399   4.943   2.774   5.609  0.2546 -0.0334  0.1872
 1131YOPC   PO416400   4.830   3.175   5.681 -0.3444  0.3025 -0.1306
 1131YOPC   GL116401   4.531   2.980   5.990 -0.2297  0.0543  0.2393
 1131YOPC   GL216402   4.810   3.005   6.154 -0.0339  0.0320  0.3907
 1131YOPC   C1A16403   4.187   3.015   6.328  0.0088 -0.0721 -0.4144
 1131YOPC   D2A16404   3.966   3.455   6.194 -0.2668  0.2402 -0.2179
 1131YOPC   C3A16405   4.081   3.810   6.450 -0.1353  0.2791 -0.4073
 1131YOPC   C4A16406   4.212   3.782   6.862 -0.0476 -0.1053  0.1548
 1131YOPC   C1B16407   4.684   2.981   6.510  0.0955 -0.0986 -0.0352
 1131YOPC   C2B16408   4.646   2.914   6.881  0.0375 -0.1697 -0.2257
 1131YOPC   D3B16409   4.959   2.908   7.219  0.0638  0.0192  0.2169
 1131YOPC   C4B16410   5.096   3.090   7.557 -0.2907 -0.1982  0.0238
 1132YOPC   NC316411   7.823   1.110   5.876  0.0659 -0.2781  0.0174
 1132YOPC   PO416412   7.484   0.946   5.980 -0.0238 -0.0076 -0.1698
 1132YOPC   GL116413   7.738   0.745   6.256 -0.1003  0.0080  0.1486
 1132YOPC   GL216414   8.055   0.711   6.135  0.1143  0.1194 -0.0255
 1132YOPC   C1A16415   7.825   0.910   6.664 -0.0782  0.1298 -0.1542
 1132YOPC   D2A16416   8.023   0.807   6.968 -0.1570  0.3362  0.1167
 1132YOPC   C3A16417   7.917   0.910   7.313  0.1970  0.1065 -0.0033
 1132YOPC   C4A16418   7.941   0.884   7.712 -0.2052 -0.3027  0.0335
 1132YOPC   C1B16419   8.339   0.823   6.536 -0.2010  0.2987 -0.1532
 1132YOPC   C2B16420   8.553   0.672   6.893 -0.1096 -0.0794 -0.1361
 1132YOPC   D3B16421   8.464   0.693   7.347 -0.0320 -0.2798 -0.1137
 1132YOPC   C4B16422   8.349   0.618   7.839 -0.0810  0.0800  0.1811
 1133YOPC   NC316423   1.237  13.719   6.329  0.1268  0.3880 -0.0864
 1133YOPC   PO416424   1.143  14.115   6.286  0.0678  0.1519 -0.2787
 1133YOPC   GL116425   0.896  14.406   6.549 -0.0953  0.1817 -0.1600
 1133YOPC   GL216426   1.111  14.627   6.569 -0.0715  0.0620  0.2729
 1133YOPC   C1A16427   0.802  14.567   6.995  0.0040  0.1015 -0.1902
 1133YOPC   D2A16428   0.848  14.503   7.401  0.2026  0.0289 -0.1779
 1133YOPC   C3A16429   1.130  14.679   7.746  0.2403  0.0212  0.1051
 1133YOPC   C4A16430   0.980  15.064   8.022  0.2870  0.1002 -0.2248
 1133YOPC   C1B16431   1.286  14.438   6.919 -0.0437 -0.3069  0.1341
 1133YOPC   C2B16432   1.318  14.541   7.216 -0.1655  0.3350  0.1252
 1133YOPC   D3B16433   1.617  14.772   7.262 -0.0003 -0.1714 -0.3358
 1133YOPC   C4B16434   1.863  14.959   7.139  0.1169 -0.2011  0.1342
 1134YOPC   NC316435   0.564   8.233   5.412 -0.0619  0.0506  0.0345
 1134YOPC   PO416436   0.545   8.031   5.925  0.0955 -0.0177 -0.0086
 1134YOPC   GL116437   0.698   7.941   6.298 -0.0534  0.1743 -0.1477
 1134YOPC   GL216438   0.808   8.080   6.535  0.1517 -0.5716  0.1557
 1134YOPC   C1A16439   0.652   7.512   6.547 -0.1459  0.1358 -0.0249
 1134YOPC   D2A16440   0.537   7.141   6.885 -0.0821  0.1307  0.0241
 1134YOPC   C3A16441   0.321   7.187   7.255 -0.0444 -0.0089 -0.2728
 1134YOPC   C4A16442   0.163   7.163   7.647  0.0069  0.1151  0.1147
 1134YOPC   C1B16443   0.762   8.317   6.842 -0.1197 -0.0168  0.2607
 1134YOPC   C2B16444   1.018   8.572   7.095 -0.0898 -0.2199 -0.0052
 1134YOPC   D3B16445   1.071   8.440   7.473 -0.0866 -0.2467  0.0633
 1134YOPC   C4B16446   1.303   8.266   7.867  0.1302 -0.1546 -0.0877
 1135YOPC   NC316447  12.430  10.573   5.887 -0.1402  0.1954 -0.0656
 1135YOPC   PO416448  12.110  10.303   6.179 -0.1665  0.0811 -0.0982
 1135YOPC   GL116449  12.091  10.233   6.588 -0.0162  0.0679 -0.0909
 1135YOPC   GL216450  12.402  10.250   6.708  0.0866  0.0064  0.1086
 1135YOPC   C1A16451  11.952  10.366   7.090 -0.0441  0.0791 -0.1041
 1135YOPC   D2A16452  11.974  10.408   7.571  0.0097  0.2299  0.0139
 1135YOPC   C3A16453  12.165  10.635   7.822  0.0528  0.0253 -0.1120
 1135YOPC   C4A16454  12.490  10.490   8.095 -0.0187 -0.1114  0.3228
 1135YOPC   C1B16455  12.536  10.316   7.149 -0.1434  0.2726 -0.0336
 1135YOPC   C2B16456  12.470  10.290   7.614 -0.1935 -0.1459  0.4133
 1135YOPC   D3B16457  12.608   9.972   7.945  0.0256  0.0191  0.5122
 1135YOPC   C4B16458  12.728   9.697   8.308 -0.1997 -0.0313  0.1189
 1136YOPC   NC316459  13.602   7.906   5.581 -0.3153  0.1108  0.1359
 1136YOPC   PO416460  13.249   7.750   5.934  0.1593  0.1054 -0.0111
 1136YOPC   GL116461  13.594   7.958   6.203 -0.1170  0.0134 -0.3565
 1136YOPC   GL216462  13.228   8.131   6.355 -0.1027  0.2313 -0.0883
 1136YOPC   C1A16463  13.910   8.054   6.445  0.2661  0.1012 -0.0595
 1136YOPC   D2A16464  13.998   7.698   6.763 -0.2486 -0.0446  0.3514
 1136YOPC   C3A16465  13.767   7.689   7.129 -0.2963 -0.0866 -0.0352
 1136YOPC   C4A16466  13.529   7.867   7.520 -0.0665  0.0353 -0.0295
 1136YOPC   C1B16467  13.169   8.337   6.677 -0.1770  0.1475  0.1163
 1136YOPC   C2B16468  13.217   8.864   6.661  0.0159 -0.1627 -0.2111
 1136YOPC   D3B16469  12.870   9.040   6.819  0.0535  0.0508  0.1707
 1136YOPC   C4B16470  12.483   9.187   6.635 -0.1125 -0.1560  0.1577
 1137YOPC   NC316471   7.379   1.734   6.134 -0.0761 -0.2972  0.2806
 1137YOPC   PO416472   7.559   2.187   6.040 -0.0918 -0.1262  0.0002
 1137YOPC   GL116473   7.684   2.501   6.343  0.0613 -0.0205  0.1685
 1137YOPC   GL216474   7.523   2.738   6.514  0.0286  0.0223  0.0193
 1137YOPC   C1A16475   7.915   2.445   6.713 -0.0418  0.0889  0.0780
 1137YOPC   D2A16476   8.008   2.558   7.121 -0.2650  0.2659  0.3472
 1137YOPC   C3A16477   7.798   2.569   7.458 -0.0273 -0.2243  0.0606
 1137YOPC   C4A16478   7.534   2.621   7.583 -0.1610 -0.2390  0.1418
 1137YOPC   C1B16479   7.520   2.594   6.972 -0.2853 -0.1136 -0.3773
 1137YOPC   C2B16480   7.253   2.357   7.200 -0.1604 -0.1616  0.2582
 1137YOPC   D3B16481   7.307   1.989   7.499 -0.0810 -0.0153 -0.0860
 1137YOPC   C4B16482   7.420   1.620   7.601  0.1445  0.0035  0.0411
 1138YOPC   NC316483  15.534   1.447   5.369 -0.0898 -0.0756 -0.1026
 1138YOPC   PO416484  15.245   1.719   5.545 -0.2855 -0.0915 -0.0568
 1138YOPC   GL116485  14.927   1.745   5.862 -0.0248 -0.0787  0.1049
 1138YOPC   GL216486  14.839   1.975   6.013 -0.0444 -0.3549  0.2487
 1138YOPC   C1A16487  14.826   1.525   6.218  0.1286  0.2965  0.0026
 1138YOPC   D2A16488  14.756   1.370   6.620 -0.2589 -0.3395  0.2479
 1138YOPC   C3A16489  14.525   1.561   6.968 -0.2678 -0.1431 -0.0553
 1138YOPC   C4A16490  14.778   1.839   7.385 -0.0421  0.2948  0.0034
 1138YOPC   C1B16491  15.019   2.159   6.336  0.0373 -0.0317 -0.2256
 1138YOPC   C2B16492  15.085   2.378   6.765 -0.0363 -0.1787 -0.2849
 1138YOPC   D3B16493  15.159   2.736   6.980 -0.3589  0.0333  0.3500
 1138YOPC   C4B16494  14.927   2.870   7.376  0.0547 -0.3884 -0.2454
 1139YOPC   NC316495  11.364  15.015   5.455 -0.2712  0.0374  0.2232
 1139YOPC   PO416496  11.095  15.413   5.668  0.0801  0.0937 -0.1601
 1139YOPC   GL116497  11.367  15.250   5.992 -0.0143 -0.1182  0.0497
 1139YOPC   GL216498  11.718  15.431   6.076  0.1754 -0.1636  0.3090
 1139YOPC   C1A16499  11.401  15.113   6.413  0.0525 -0.0704 -0.0617
 1139YOPC   D2A16500  11.263  15.323   6.790 -0.0933 -0.2871  0.2805
 1139YOPC   C3A16501  10.853  15.257   6.779 -0.1330 -0.0455  0.0124
 1139YOPC   C4A16502  10.496  15.104   6.645 -0.0325 -0.1712  0.1748
 1139YOPC   C1B16503  11.754  15.797   6.401  0.1653 -0.1881 -0.1516
 1139YOPC   C2B16504  11.489  16.193   6.393 -0.1084  0.0620 -0.3209
 1139YOPC   D3B16505  11.006  16.201   6.539 -0.3784  0.1313  0.3500
 1139YOPC   C4B16506  10.761  16.269   6.831 -0.0003  0.0345  0.2373
 1140YOPC   NC316507   3.589  13.440   6.293  0.2926  0.1165 -0.2376
 1140YOPC   PO416508   3.885  13.379   6.432 -0.0694  0.0490 -0.0885
 1140YOPC   GL116509   4.253  13.242   6.666  0.2346  0.3135 -0.0921
 1140YOPC   GL216510   4.226  13.003   6.876  0.3895  0.0582  0.2478
 1140YOPC   C1A16511   4.160  13.519   7.032  0.1327  0.2694  0.0838
 1140YOPC   D2A16512   4.175  13.572   7.549  0.1397 -0.0966  0.3530
 1140YOPC   C3A16513   3.911  13.948   7.676  0.2101  0.4363 -0.2016
 1140YOPC   C4A16514   3.973  14.237   7.921  0.0081 -0.0150 -0.4304
 1140YOPC   C1B16515   4.376  13.101   7.208 -0.1501  0.2594  0.0746
 1140YOPC   C2B16516   4.445  13.095   7.607 -0.0019 -0.0185 -0.0904
 1140YOPC   D3B16517   4.430  13.398   7.893 -0.0177 -0.1132  0.1072
 1140YOPC   C4B16518   4.210  13.335   8.300  0.2013 -0.1208  0.0181
 1141YOPC   NC316519  16.194  13.569   5.537  0.2411 -0.0297  0.3207
 1141YOPC   PO416520  16.253  13.509   5.944  0.1406  0.2624 -0.0329
 1141YOPC   GL116521  16.426  13.465   6.293  0.0100 -0.1118  0.3907
 1141YOPC   GL216522  16.698  13.555   6.206 -0.0686  0.2857 -0.1718
 1141YOPC   C1A16523  16.297  13.241   6.643  0.2606  0.0621 -0.1302
 1141YOPC   D2A16524  16.346  13.192   7.070  0.5115 -0.2597  0.3741
 1141YOPC   C3A16525  16.049  13.199   7.350 -0.0021  0.0317  0.0859
 1141YOPC   C4A16526  15.884  13.255   7.695 -0.2248 -0.0014  0.3237
 1141YOPC   C1B16527  16.724  13.625   6.688  0.1524 -0.1449  0.1379
 1141YOPC   C2B16528  16.565  13.699   7.153  0.0065 -0.2320  0.1657
 1141YOPC   D3B16529  16.442  13.449   7.580 -0.0286 -0.0137 -0.1006
 1141YOPC   C4B16530  16.757  13.251   7.849 -0.1409 -0.0275  0.4279
 1142YOPC   NC316531  17.854   1.270   6.093  0.0541 -0.1040  0.1388
 1142YOPC   PO416532  18.252   1.074   6.290  0.0615  0.0273 -0.1657
 1142YOPC   GL116533  18.239   0.980   6.694  0.1157 -0.0482  0.0431
 1142YOPC   GL216534  18.322   0.612   6.663  0.2908  0.1829  0.2028
 1142YOPC   C1A16535  18.249   0.997   7.015 -0.1718  0.3797  0.1934
 1142YOPC   D2A16536  18.270   1.287   7.498 -0.1840  0.1699 -0.2230
 1142YOPC   C3A16537  18.533   1.085   7.757  0.2910 -0.3929 -0.0550
 1142YOPC   C4A16538  18.610   1.133   8.217  0.0999  0.1818 -0.4550
 1142YOPC   C1B16539  18.604   0.451   7.105  0.1007 -0.1993  0.0047
 1142YOPC   C2B16540  18.780   0.146   7.410 -0.0376  0.0026  0.1607
 1142YOPC   D3B16541  18.655   0.001   7.836 -0.1375  0.0921  0.1420
 1142YOPC   C4B16542  18.478   0.110   8.087 -0.3030  0.0223 -0.1914
 1143YOPC   NC316543   4.080  12.922   6.331 -0.0477 -0.2361 -0.0719
 1143YOPC   PO416544   3.864  12.577   6.138 -0.4968 -0.2506  0.0697
 1143YOPC   GL116545   3.900  12.421   6.549 -0.2165  0.0772  0.1642
 1143YOPC   GL216546   3.680  12.297   6.727  0.1696 -0.0997 -0.2691
 1143YOPC   C1A16547   4.185  12.371   6.901 -0.2594  0.0680  0.0086
 1143YOPC   D2A16548   4.407  12.603   7.214 -0.2458  0.0413 -0.0008
 1143YOPC   C3A16549   4.688  12.471   7.548 -0.1910 -0.0109 -0.0434
 1143YOPC   C4A16550   4.883  12.222   7.890  0.1013 -0.0769 -0.1106
 1143YOPC   C1B16551   3.800  12.156   7.116  0.3206  0.0569 -0.0725
 1143YOPC   C2B16552   3.703  12.121   7.501  0.1792 -0.0198 -0.0229
 1143YOPC   D3B16553   3.946  12.194   7.736 -0.0465 -0.2700 -0.1070
 1143YOPC   C4B16554   3.905  12.255   8.225  0.1609 -0.3558 -0.0566
 1144YOPC   NC316555   5.679  13.761   6.024  0.1996 -0.2913 -0.1924
 1144YOPC   PO416556   5.817  13.431   6.340 -0.0949  0.0874 -0.3011
 1144YOPC   GL116557   5.609  13.287   6.680  0.1614  0.1593  0.1653
 1144YOPC   GL216558   5.801  13.427   6.867  0.2402 -0.3127 -0.0692
 1144YOPC   C1A16559   5.122  13.135   6.762  0.0156  0.0916  0.2572
 1144YOPC   D2A16560   4.971  12.861   7.083  0.1332 -0.0824  0.2046
 1144YOPC   C3A16561   4.877  12.956   7.468  0.0273  0.0861 -0.1733
 1144YOPC   C4A16562   4.892  13.168   7.862  0.1490  0.0447  0.3084
 1144YOPC   C1B16563   5.803  13.325   7.326 -0.1720  0.0997  0.1716
 1144YOPC   C2B16564   5.961  13.510   7.642 -0.2837  0.3058 -0.0165
 1144YOPC   D3B16565   6.113  13.907   7.688  0.1863  0.1723  0.2969
 1144YOPC   C4B16566   6.205  14.366   7.510  0.2321  0.1121  0.0880
 1145YOPC   NC316567   0.863   3.245   5.118 -0.2060 -0.2252 -0.3269
 1145YOPC   PO416568   0.768   3.191   5.669  0.1237  0.2229  0.0871
 1145YOPC   GL116569   0.655   3.247   6.079  0.2316  0.2207 -0.1089
 1145YOPC   GL216570   0.537   3.002   6.278  0.2493 -0.0071 -0.0439
 1145YOPC   C1A16571   0.586   3.466   6.456  0.0146 -0.1350 -0.1091
 1145YOPC   D2A16572   0.911   3.850   6.577  0.0205 -0.2152 -0.2256
 1145YOPC   C3A16573   0.872   3.983   7.057 -0.0306 -0.3320  0.3447
 1145YOPC   C4A16574   1.038   4.074   7.424  0.1750 -0.1460  0.2517
 1145YOPC   C1B16575   0.522   3.047   6.766  0.1004 -0.3108 -0.2776
 1145YOPC   C2B16576   0.500   3.112   7.237  0.0702 -0.2843  0.2566
 1145YOPC   D3B16577   0.121   3.006   7.434  0.0474 -0.0268  0.0141
 1145YOPC   C4B16578  -0.097   2.745   7.764 -0.0593  0.2323  0.0116
 1146ERGO   ROH16579   5.684   0.531   6.446 -0.1497 -0.0867 -0.1416
 1146ERGO    R116580   5.608   0.607   6.708  0.0216  0.0044 -0.1168
 1146ERGO    R216581   5.469   0.439   6.877 -0.1775  0.1855 -0.0946
 1146ERGO    R316582   5.675   0.492   7.046 -0.0548 -0.1166 -0.1424
 1146ERGO    R416583   5.489   0.333   7.206 -0.2487  0.1462 -0.1029
 1146ERGO    R516584   5.571   0.527   7.259  0.0466  0.0288 -0.1159
 1146ERGO    C116585   5.694   0.321   7.555 -0.1751 -0.1602 -0.1526
 1146ERGO    C216586   6.047   0.283   7.703  0.2095  0.0307  0.0593
 1147ERGO   ROH16587   2.421   7.902   6.691  0.0396  0.2258  0.0397
 1147ERGO    R116588   2.240   7.924   6.908  0.0641  0.1430  0.0688
 1147ERGO    R216589   2.263   7.771   7.137  0.1764  0.1596  0.0685
 1147ERGO    R316590   2.260   8.013   7.260  0.0782  0.1613  0.0635
 1147ERGO    R416591   2.223   7.820   7.477  0.0270  0.1574  0.0521
 1147ERGO    R516592   2.095   7.990   7.432  0.0112  0.1318 -0.0034
 1147ERGO    C116593   2.197   8.076   7.790 -0.1522  0.1577  0.0378
 1147ERGO    C216594   2.049   8.176   8.214 -0.1038  0.1792 -0.1508
 1148ERGO   ROH16595  10.514   5.498   8.418  0.1243  0.1804 -0.1209
 1148ERGO    R116596  10.599   5.401   8.670  0.2121  0.3910 -0.0689
 1148ERGO    R216597  10.662   5.569   8.881 -0.3042  0.5598 -0.0414
 1148ERGO    R316598  10.480   5.418   9.014 -0.0313  0.1272 -0.1352
 1148ERGO    R416599  10.652   5.527   9.224 -0.3700  0.5332 -0.0451
 1148ERGO    R516600  10.604   5.317   9.192  0.1270  0.4061 -0.0765
 1148ERGO    C116601  10.475   5.360   9.548 -0.1521  0.1117 -0.1354
 1148ERGO    C216602  10.499   5.384   9.892 -0.0215 -0.0381  0.2227
 1149ERGO   ROH16603   3.856   1.766   9.954  0.3074  0.1121 -0.1462
 1149ERGO    R116604   3.718   1.712   9.712  0.2369 -0.0325 -0.0735
 1149ERGO    R216605   3.653   1.909   9.531 -0.0630 -0.1020 -0.0391
 1149ERGO    R316606   3.785   1.748   9.356  0.0128  0.0336 -0.1114
 1149ERGO    R416607   3.677   1.963   9.190 -0.0133  0.1141 -0.0036
 1149ERGO    R516608   3.649   1.750   9.159  0.0456  0.1200 -0.1377
 1149ERGO    C116609   3.815   1.843   8.828  0.0868  0.3673 -0.0508
 1149ERGO    C216610   3.726   1.936   8.500 -0.2641  0.2928 -0.1748
 1150ERGO   ROH16611   1.666  13.126   6.982  0.3846 -0.1369  0.2025
 1150ERGO    R116612   1.492  13.293   7.130  0.2566 -0.0546 -0.0345
 1150ERGO    R216613   1.465  13.273   7.404 -0.2109 -0.1172 -0.0780
 1150ERGO    R316614   1.525  13.538   7.397 -0.0036 -0.1567  0.0955
 1150ERGO    R416615   1.458  13.484   7.678 -0.4265 -0.2128 -0.0073
 1150ERGO    R516616   1.370  13.638   7.550 -0.1423 -0.1000 -0.0768
 1150ERGO    C116617   1.510  13.856   7.831 -0.3574 -0.3055  0.1967
 1150ERGO    C216618   1.593  14.122   8.080 -0.0050  0.0091  0.1844
 1151ERGO   ROH16619  17.105   1.620   6.366  0.0867  0.1977  0.0034
 1151ERGO    R116620  17.171   1.587   6.639  0.1267  0.4951  0.0340
 1151ERGO    R216621  17.113   1.778   6.831 -0.3924  0.4533 -0.0652
 1151ERGO    R316622  16.991   1.569   6.955  0.1059  0.1909  0.0064
 1151ERGO    R416623  16.993   1.783   7.155 -0.3336  0.2457 -0.0399
 1151ERGO    R516624  17.068   1.580   7.181  0.1366  0.4136 -0.0142
 1151ERGO    C116625  16.809   1.589   7.460  0.1685 -0.1214  0.0420
 1151ERGO    C216626  16.809   1.627   7.798  0.2832 -0.1922  0.0116
 1152ERGO   ROH16627   2.890   5.285   6.364  0.1771 -0.3108 -0.0249
 1152ERGO    R116628   3.010   5.207   6.608  0.0592 -0.2514  0.0521
 1152ERGO    R216629   3.075   5.387   6.807  0.0634 -0.1908 -0.0082
 1152ERGO    R316630   2.924   5.222   6.962 -0.0569 -0.0593  0.0180
 1152ERGO    R416631   3.070   5.392   7.152  0.1729 -0.2160 -0.0055
 1152ERGO    R516632   3.064   5.174   7.150 -0.0440 -0.2163 -0.0273
 1152ERGO    C116633   2.925   5.240   7.499  0.1238 -0.1072  0.0207
 1152ERGO    C216634   2.930   5.283   7.785  0.2193  0.1378  0.0988
 1153ERGO   ROH16635  14.311  13.802  10.018  0.2115  0.1591 -0.0607
 1153ERGO    R116636  14.202  13.700   9.778  0.2040  0.1094 -0.0371
 1153ERGO    R216637  14.082  13.862   9.589  0.1474  0.0654 -0.0438
 1153ERGO    R316638  14.261  13.744   9.422  0.1549  0.0833 -0.0474
 1153ERGO    R416639  14.037  13.820   9.249  0.0605 -0.1240 -0.0100
 1153ERGO    R516640  14.126  13.622   9.266  0.1728 -0.0650  0.0552
 1153ERGO    C116641  14.179  13.685   8.894  0.0169 -0.2175  0.0063
 1153ERGO    C216642  14.243  13.696   8.588 -0.0761  0.3851  0.2633
 1154ERGO   ROH16643  11.156  14.117   6.052 -0.1937  0.0625  0.1376
 1154ERGO    R116644  11.187  14.089   6.332  0.0699  0.1428  0.1200
 1154ERGO    R216645  11.389  14.216   6.473 -0.0175  0.4934 -0.0480
 1154ERGO    R316646  11.181  14.309   6.622 -0.0657  0.1729  0.0931
 1154ERGO    R416647  11.413  14.325   6.800 -0.0169  0.3477  0.0007
 1154ERGO    R516648  11.223  14.226   6.842  0.1186  0.1060  0.0298
 1154ERGO    C116649  11.232  14.476   7.130 -0.0616 -0.0381  0.1615
 1154ERGO    C216650  11.214  14.560   7.482  0.1053  0.1713  0.1568
 1155ERGO   ROH16651  14.392  17.352   9.671 -0.1340 -0.0060 -0.1698
 1155ERGO    R116652  14.536  17.411   9.434  0.0013  0.0275 -0.0819
 1155ERGO    R216653  14.573  17.225   9.233  0.0919  0.0593 -0.1065
 1155ERGO    R316654  14.465  17.420   9.077  0.1900  0.1048 -0.1158
 1155ERGO    R416655  14.581  17.228   8.887 -0.0628 -0.0340 -0.1105
 1155ERGO    R516656  14.619  17.443   8.895  0.1210 -0.0724 -0.1894
 1155ERGO    C116657  14.484  17.413   8.540 -0.0607 -0.0458 -0.1215
 1155ERGO    C216658  14.436  17.429   8.230  0.3256  0.2539  0.0050
 1156ERGO   ROH16659   9.956   5.433   6.457 -0.3076 -0.1522  0.0799
 1156ERGO    R116660   9.910   5.453   6.735  0.1477 -0.1171  0.1608
 1156ERGO    R216661   9.691   5.335   6.858 -0.0106  0.4266  0.4267
 1156ERGO    R316662   9.882   5.222   7.015 -0.0703 -0.1540  0.1112
 1156ERGO    R416663   9.653   5.262   7.194  0.2384  0.2850  0.4276
 1156ERGO    R516664   9.857   5.331   7.227  0.4623 -0.2311  0.2279
 1156ERGO    C116665   9.810   5.114   7.537  0.3274 -0.3426  0.1320
 1156ERGO    C216666   9.803   4.779   7.631 -0.0861 -0.1317  0.0021
 1157ERGO   ROH16667  17.276  10.710   6.863  0.0225 -0.0945 -0.0941
 1157ERGO    R116668  17.191  10.768   7.127 -0.1068 -0.0621 -0.1416
 1157ERGO    R216669  17.042  10.591   7.277  0.0728 -0.1716 -0.0855
 1157ERGO    R316670  17.242  10.625   7.458 -0.0045  0.1643 -0.0579
 1157ERGO    R416671  17.059  10.435   7.585  0.2535 -0.0808 -0.0486
 1157ERGO    R516672  17.132  10.622   7.670 -0.0358  0.0482 -0.0766
 1157ERGO    C116673  17.257  10.376   7.934  0.2862  0.2876 -0.0013
 1157ERGO    C216674  17.130  10.329   8.152  0.0631  0.0488 -0.0573
 1158ERGO   ROH16675  12.579  16.878   9.735 -0.1505 -0.1499  0.0708
 1158ERGO    R116676  12.605  17.066   9.525 -0.1713 -0.1127  0.1010
 1158ERGO    R216677  12.711  17.000   9.279 -0.1249 -0.0504  0.1027
 1158ERGO    R316678  12.477  17.102   9.186 -0.1396 -0.0954  0.0913
 1158ERGO    R416679  12.661  17.120   8.958 -0.1896 -0.2410  0.0407
 1158ERGO    R516680  12.543  17.283   9.043 -0.1629 -0.1848 -0.0322
 1158ERGO    C116681  12.411  17.285   8.685 -0.2411 -0.3940 -0.0060
 1158ERGO    C216682  12.349  17.242   8.280 -0.3299 -0.0093 -0.2181
 1159ERGO   ROH16683  12.261  12.017   6.506 -0.4135 -0.1366  0.2696
 1159ERGO    R116684  12.397  12.085   6.744 -0.2320 -0.2668  0.2065
 1159ERGO    R216685  12.595  11.927   6.854  0.0179 -0.2164 -0.1515
 1159ERGO    R316686  12.740  12.157   6.842 -0.1900 -0.0788 -0.0692
 1159ERGO    R416687  12.872  11.996   7.049 -0.0176 -0.0452 -0.1600
 1159ERGO    R516688  12.800  12.201   7.070 -0.1995 -0.1211 -0.0612
 1159ERGO    C116689  13.169  12.252   7.152 -0.2336  0.1837 -0.0877
 1159ERGO    C216690  13.382  12.488   7.365 -0.1109 -0.1211  0.1140
 1160ERGO   ROH16691   5.460  11.793   6.761  0.1323  0.1414 -0.0003
 1160ERGO    R116692   5.446  12.044   6.891  0.0597  0.1528 -0.0279
 1160ERGO    R216693   5.207  12.159   6.966  0.0187  0.1228 -0.0953
 1160ERGO    R316694   5.325  12.170   7.211 -0.0386  0.1609 -0.0696
 1160ERGO    R416695   5.135  12.393   7.211 -0.0274  0.1589 -0.1435
 1160ERGO    R516696   5.348  12.404   7.256 -0.0433  0.1625 -0.0967
 1160ERGO    C116697   5.204  12.539   7.583 -0.1082  0.2154 -0.1476
 1160ERGO    C216698   5.097  12.701   7.880 -0.3023  0.1382 -0.1918
 1161ERGO   ROH16699   1.866   3.113  10.010 -0.1048  0.0286 -0.0617
 1161ERGO    R116700   1.783   3.110   9.739  0.0124 -0.1087 -0.0983
 1161ERGO    R216701   1.819   3.325   9.570 -0.1848 -0.0785 -0.1098
 1161ERGO    R316702   1.942   3.141   9.413  0.1172  0.0520 -0.0324
 1161ERGO    R416703   1.819   3.330   9.225 -0.2123 -0.2368 -0.1117
 1161ERGO    R516704   1.793   3.113   9.227  0.1508 -0.2830 -0.0123
 1161ERGO    C116705   1.935   3.159   8.876  0.0553 -0.2064 -0.0401
 1161ERGO    C216706   1.897   3.133   8.437 -0.1917  0.0632  0.4502
 1162ERGO   ROH16707   1.755  17.102   6.353  0.0257  0.0814  0.0393
 1162ERGO    R116708   1.636  16.981   6.580 -0.0864  0.1706  0.0274
 1162ERGO    R216709   1.778  16.925   6.810 -0.0956 -0.1416 -0.0473
 1162ERGO    R316710   1.582  17.070   6.929  0.1631  0.1126  0.0854
 1162ERGO    R416711   1.712  16.927   7.149 -0.1636 -0.4580 -0.0539
 1162ERGO    R516712   1.499  16.928   7.103 -0.1686  0.0352 -0.1186
 1162ERGO    C116713   1.489  17.066   7.458  0.0396 -0.4036  0.0667
 1162ERGO    C216714   1.456  17.051   7.790  0.2279 -0.1413 -0.1297
 1163ERGO   ROH16715   9.248   3.935   6.422 -0.0490  0.0534 -0.0449
 1163ERGO    R116716   9.246   4.009   6.695  0.2123  0.2382 -0.0911
 1163ERGO    R216717   9.157   3.841   6.896 -0.0915  0.5578  0.0488
 1163ERGO    R316718   9.402   3.891   7.002  0.0684  0.0924 -0.0717
 1163ERGO    R416719   9.250   3.772   7.222 -0.0850  0.4325  0.0216
 1163ERGO    R516720   9.357   3.961   7.226  0.3018  0.2312 -0.0618
 1163ERGO    C116721   9.534   3.780   7.511  0.0690 -0.0773 -0.1074
 1163ERGO    C216722   9.689   3.617   7.843 -0.3068 -0.1333  0.4090
 1164ERGO   ROH16723  13.375  10.717   6.783  0.0288  0.1510  0.0032
 1164ERGO    R116724  13.276  10.696   7.047  0.0082  0.1444 -0.0048
 1164ERGO    R216725  13.360  10.500   7.223 -0.0528  0.0994 -0.0230
 1164ERGO    R316726  13.414  10.713   7.383 -0.0058  0.0668  0.0043
 1164ERGO    R416727  13.315  10.506   7.566 -0.1398  0.1003 -0.0342
 1164ERGO    R516728  13.239  10.709   7.547 -0.0491  0.1316 -0.0417
 1164ERGO    C116729  13.339  10.709   7.915 -0.1463  0.0703 -0.0151
 1164ERGO    C216730  13.441  10.830   8.095 -0.2195 -0.0889  0.1979
 1165ERGO   ROH16731  16.709  12.345   6.348  0.0252  0.1098  0.0076
 1165ERGO    R116732  16.702  12.216   6.600  0.2618  0.0382 -0.0204
 1165ERGO    R216733  16.914  12.226   6.778  0.2388  0.4203 -0.0042
 1165ERGO    R316734  16.723  12.317   6.949  0.0373  0.0112  0.0017
 1165ERGO    R416735  16.921  12.185   7.121  0.4082  0.5557  0.0103
 1165ERGO    R516736  16.706  12.146   7.116  0.4937  0.0190  0.0661
 1165ERGO    C116737  16.746  12.246   7.482  0.3174  0.2507  0.0243
 1165ERGO    C216738  16.802  12.298   7.812  0.0417 -0.2295 -0.0385
 1166ERGO   ROH16739   5.852   1.483   6.242  0.2124  0.0348  0.0147
 1166ERGO    R116740   5.909   1.471   6.519  0.2336 -0.0345  0.0074
 1166ERGO    R216741   5.991   1.692   6.664 -0.0329 -0.0038  0.1148
 1166ERGO    R316742   5.781   1.626   6.823  0.0491 -0.3421  0.0907
 1166ERGO    R416743   5.974   1.752   7.004 -0.1342 -0.1024  0.1279
 1166ERGO    R516744   5.881   1.556   7.029  0.1422 -0.2459  0.0798
 1166ERGO    C116745   5.766   1.725   7.351 -0.1163 -0.4774  0.1128
 1166ERGO    C216746   5.601   1.753   7.671 -0.3805  0.0235  0.1673
 1167ERGO   ROH16747   3.514   3.256   6.204 -0.1475 -0.0608  0.1348
 1167ERGO    R116748   3.545   3.291   6.483  0.0516 -0.1930  0.1305
 1167ERGO    R216749   3.773   3.214   6.618  0.2851  0.0389 -0.1219
 1167ERGO    R316750   3.771   3.472   6.703 -0.0018 -0.0119  0.0394
 1167ERGO    R416751   3.858   3.317   6.937  0.3692 -0.0491 -0.1147
 1167ERGO    R516752   3.693   3.459   6.929  0.1690 -0.2606  0.0897
 1167ERGO    C116753   3.905   3.620   7.202  0.1487 -0.1481  0.0409
 1167ERGO    C216754   3.871   3.914   7.299  0.1823  0.0282  0.0162
 1168ERGO   ROH16755  11.327  11.165  10.200  0.2828 -0.0197 -0.0002
 1168ERGO    R116756  11.369  10.955  10.014  0.1456 -0.0014 -0.0529
 1168ERGO    R216757  11.164  10.849   9.861  0.0413  0.0491  0.0479
 1168ERGO    R316758  11.330  10.910   9.655 -0.0660  0.0526 -0.0379
 1168ERGO    R416759  11.101  10.779   9.529 -0.1330  0.0624  0.0772
 1168ERGO    R516760  11.311  10.725   9.505 -0.1474  0.0597 -0.0347
 1168ERGO    C116761  11.221  10.796   9.142 -0.3355  0.0735  0.0136
 1168ERGO    C216762  11.176  10.817   8.757  0.2420 -0.1381  0.0042
 1169ERGO   ROH16763  15.657  17.646   6.114 -0.1605  0.1485  0.1438
 1169ERGO    R116764  15.749  17.614   6.380 -0.1223  0.2018  0.1377
 1169ERGO    R216765  15.967  17.750   6.480 -0.0780  0.1891  0.0666
 1169ERGO    R316766  15.791  17.826   6.673 -0.0349  0.2726  0.0730
 1169ERGO    R416767  16.054  17.870   6.793 -0.0159 -0.0200  0.1311
 1169ERGO    R516768  15.891  17.754   6.878 -0.1338  0.0964  0.0579
 1169ERGO    C116769  15.940  18.011   7.155  0.0608 -0.0633  0.1745
 1169ERGO    C216770  16.046  18.274   7.407  0.1052 -0.0406 -0.1666
 1170ERGO   ROH16771   2.466   2.415   6.284 -0.1328  0.0092  0.0681
 1170ERGO    R116772   2.388   2.593   6.489 -0.1523 -0.1619  0.2103
 1170ERGO    R216773   2.369   2.516   6.754  0.2402 -0.2765  0.2063
 1170ERGO    R316774   2.536   2.727   6.794  0.0006 -0.0590  0.0939
 1170ERGO    R416775   2.418   2.673   7.057  0.3526 -0.3232  0.2136
 1170ERGO    R516776   2.420   2.865   6.952 -0.0246 -0.2738  0.2724
 1170ERGO    C116777   2.603   2.963   7.272  0.1931 -0.1463  0.1124
 1170ERGO    C216778   2.899   2.932   7.533 -0.0305  0.1924  0.4121
 1171ERGO   ROH16779   6.940   6.020   6.241  0.2482  0.1738  0.0482
 1171ERGO    R116780   6.885   5.974   6.515  0.1463  0.0940  0.0159
 1171ERGO    R216781   6.933   5.730   6.638  0.1960  0.0878 -0.0117
 1171ERGO    R316782   7.076   5.883   6.811  0.0550  0.1145  0.0817
 1171ERGO    R416783   6.978   5.661   6.974 -0.1018  0.1513  0.0429
 1171ERGO    R516784   6.954   5.873   7.016 -0.1265  0.1626 -0.0219
 1171ERGO    C116785   7.138   5.763   7.331 -0.4076  0.2131  0.1623
 1171ERGO    C216786   7.360   5.509   7.528  0.2096 -0.0753  0.0685
 1172ERGO   ROH16787   7.152   3.857   8.062  0.0422 -0.1628 -0.0623
 1172ERGO    R116788   7.409   3.970   8.088 -0.0268 -0.0360  0.1009
 1172ERGO    R216789   7.582   3.902   8.292 -0.0462 -0.0936  0.1073
 1172ERGO    R316790   7.753   3.850   8.087  0.0383  0.1522  0.1136
 1172ERGO    R416791   7.916   3.817   8.328 -0.0061  0.0689  0.1177
 1172ERGO    R516792   7.961   3.944   8.157 -0.0342  0.2155  0.2270
 1172ERGO    C116793   8.270   3.719   8.157  0.0964  0.3943  0.1298
 1172ERGO    C216794   8.589   3.527   8.288 -0.2024 -0.1973 -0.0848
 1173ERGO   ROH16795  13.319  15.469   6.168 -0.2464  0.0204  0.0276
 1173ERGO    R116796  13.246  15.450   6.441 -0.0846  0.0718  0.0757
 1173ERGO    R216797  13.412  15.533   6.646 -0.0144  0.2328 -0.0435
 1173ERGO    R316798  13.196  15.681   6.717 -0.0570  0.1385  0.0249
 1173ERGO    R416799  13.283  15.553   6.966  0.0113  0.0947 -0.0238
 1173ERGO    R516800  13.083  15.547   6.880  0.0051  0.0527 -0.0031
 1173ERGO    C116801  13.005  15.704   7.219 -0.0136 -0.0742  0.0520
 1173ERGO    C216802  13.005  15.640   7.486 -0.2418  0.1417  0.0969
 1174ERGO   ROH16803   8.540  16.284   6.290  0.0767  0.0974 -0.0665
 1174ERGO    R116804   8.444  16.222   6.549 -0.0175  0.0824 -0.1044
 1174ERGO    R216805   8.613  16.161   6.759 -0.1003 -0.1055 -0.0900
 1174ERGO    R316806   8.478  16.362   6.883  0.0186 -0.0474 -0.0531
 1174ERGO    R416807   8.534  16.169   7.096 -0.1074 -0.1274 -0.0913
 1174ERGO    R516808   8.339  16.251   7.043 -0.0557  0.0036 -0.0814
 1174ERGO    C116809   8.361  16.362   7.408 -0.0000 -0.0859 -0.0574
 1174ERGO    C216810   8.452  16.668   7.652 -0.0643  0.2248  0.1660
 1175ERGO   ROH16811   5.836   2.663  10.096  0.1236 -0.1502 -0.1949
 1175ERGO    R116812   5.738   2.720   9.836  0.1160 -0.0598 -0.1722
 1175ERGO    R216813   5.745   2.974   9.726 -0.0054  0.0032 -0.0337
 1175ERGO    R316814   5.875   2.848   9.524  0.0762  0.1804 -0.0942
 1175ERGO    R416815   5.673   3.013   9.391 -0.1104  0.0279 -0.0091
 1175ERGO    R516816   5.704   2.799   9.364  0.0881  0.0608 -0.0728
 1175ERGO    C116817   5.754   2.918   9.005 -0.0949  0.2086 -0.0515
 1175ERGO    C216818   5.766   2.904   8.704  0.1190 -0.0665 -0.0408
 1176ERGO   ROH16819   8.839  10.592   6.277 -0.0542  0.0052 -0.1339
 1176ERGO    R116820   8.966  10.576   6.530 -0.0289 -0.0588 -0.1504
 1176ERGO    R216821   9.087  10.793   6.650 -0.0163 -0.0881 -0.1067
 1176ERGO    R316822   8.924  10.729   6.857  0.0031 -0.1413 -0.1080
 1176ERGO    R416823   9.102  10.937   6.963 -0.0673 -0.0857 -0.1055
 1176ERGO    R516824   9.067  10.740   7.050 -0.0038 -0.0961 -0.1069
 1176ERGO    C116825   8.958  10.960   7.341 -0.0788 -0.1343 -0.1061
 1176ERGO    C216826   8.832  11.069   7.557 -0.0911  0.0826 -0.2394
 1177ERGO   ROH16827   4.589   5.808   6.614 -0.0032  0.0752 -0.0852
 1177ERGO    R116828   4.781   5.952   6.763 -0.0979  0.1168 -0.0029
 1177ERGO    R216829   4.740   6.026   7.026 -0.1223 -0.1162  0.0596
 1177ERGO    R316830   4.976   5.897   7.066 -0.0114  0.0427 -0.0711
 1177ERGO    R416831   4.900   5.997   7.331 -0.0469 -0.1952  0.0131
 1177ERGO    R516832   5.090   6.031   7.229 -0.0893  0.0253 -0.0003
 1177ERGO    C116833   5.215   5.859   7.546  0.1012 -0.0920 -0.1366
 1177ERGO    C216834   5.565   5.777   7.815 -0.0620 -0.0211  0.0487
 1178ERGO   ROH16835  15.050  10.858   6.483 -0.1495  0.1214 -0.0402
 1178ERGO    R116836  14.982  10.918   6.751 -0.0714  0.0506 -0.0044
 1178ERGO    R216837  14.974  10.725   6.949  0.2054  0.0372 -0.0057
 1178ERGO    R316838  15.143  10.895   7.076  0.1123  0.1909 -0.0833
 1178ERGO    R416839  14.994  10.764   7.291  0.3862 -0.0176 -0.0087
 1178ERGO    R516840  15.016  10.979   7.261  0.1400  0.0173  0.0190
 1178ERGO    C116841  15.164  10.946   7.611  0.4041  0.0946 -0.0832
 1178ERGO    C216842  15.297  11.095   7.879  0.0579  0.0963  0.0009
 1179ERGO   ROH16843   5.912   2.911   6.306  0.0381  0.0542 -0.1093
 1179ERGO    R116844   5.863   2.781   6.553 -0.0774  0.0240 -0.1472
 1179ERGO    R216845   6.067   2.687   6.714 -0.1547 -0.0942 -0.1136
 1179ERGO    R316846   5.944   2.839   6.903 -0.1391 -0.0792 -0.1162
 1179ERGO    R416847   6.063   2.618   7.053  0.0764  0.0666 -0.0763
 1179ERGO    R516848   5.855   2.681   7.059  0.0432 -0.0567  0.0109
 1179ERGO    C116849   5.946   2.721   7.427  0.2255  0.1744 -0.0570
 1179ERGO    C216850   5.866   2.775   7.804 -0.0764 -0.0867 -0.1443
 1180ERGO   ROH16851   2.840  11.841   7.063  0.0080  0.0668 -0.0238
 1180ERGO    R116852   2.610  11.870   7.226 -0.0114  0.0866 -0.0548
 1180ERGO    R216853   2.357  11.905   7.122  0.0100  0.1398 -0.0888
 1180ERGO    R316854   2.299  11.690   7.278 -0.0487  0.1321 -0.1207
 1180ERGO    R416855   2.094  11.888   7.345 -0.1006  0.1110 -0.2198
 1180ERGO    R516856   2.225  11.784   7.485 -0.1612  0.1214 -0.1555
 1180ERGO    C116857   1.885  11.676   7.621 -0.2201  0.0869 -0.3259
 1180ERGO    C216858   1.697  11.575   7.851  0.2184 -0.0541 -0.0480
 1181ERGO   ROH16859   2.487   9.459   6.856 -0.0171 -0.0682  0.0149
 1181ERGO    R116860   2.469   9.252   7.048  0.1092 -0.0365  0.0619
 1181ERGO    R216861   2.589   9.005   7.012  0.1653 -0.0114  0.0674
 1181ERGO    R316862   2.702   9.061   7.252  0.2364  0.0678  0.0157
 1181ERGO    R416863   2.778   8.783   7.197  0.0995  0.0023  0.1510
 1181ERGO    R516864   2.681   8.858   7.377  0.1674  0.1446  0.1300
 1181ERGO    C116865   2.995   8.707   7.531  0.1279  0.0846  0.1512
 1181ERGO    C216866   3.239   8.744   7.824  0.1173 -0.3734 -0.0004
 1182ERGO   ROH16867   9.758   9.775   6.378 -0.1556  0.0721  0.0711
 1182ERGO    R116868   9.739   9.936   6.610 -0.1030 -0.0058  0.1294
 1182ERGO    R216869   9.538   9.903   6.797  0.0162 -0.1547  0.2293
 1182ERGO    R316870   9.747   9.883   6.970  0.1200 -0.1074  0.1116
 1182ERGO    R416871   9.530   9.997   7.130  0.1925 -0.1118  0.2229
 1182ERGO    R516872   9.731  10.079   7.107  0.1729 -0.0890  0.0957
 1182ERGO    C116873   9.722  10.033   7.485  0.3927 -0.0424  0.1087
 1182ERGO    C216874   9.535  10.203   7.844 -0.1411 -0.2265  0.0698
 1183ERGO   ROH16875   8.897   7.598   6.687 -0.2109 -0.0479  0.1330
 1183ERGO    R116876   8.890   7.458   6.933  0.0051 -0.0670  0.1289
 1183ERGO    R216877   9.117   7.351   7.050  0.1424  0.1388  0.0414
 1183ERGO    R316878   9.035   7.498   7.264  0.0834  0.0486  0.0833
 1183ERGO    R416879   9.143   7.252   7.380 -0.0353 -0.0574 -0.0001
 1183ERGO    R516880   8.946   7.337   7.417 -0.0354 -0.0185 -0.0462
 1183ERGO    C116881   9.082   7.332   7.773 -0.1941 -0.2563  0.0150
 1183ERGO    C216882   9.315   7.309   8.005  0.0270  0.0896  0.2356
 1184ERGO   ROH16883   7.613   7.328   6.215 -0.1614 -0.0817  0.1101
 1184ERGO    R116884   7.564   7.170   6.445 -0.0866 -0.1133  0.1042
 1184ERGO    R216885   7.765   7.098   6.621 -0.0507 -0.0306  0.0984
 1184ERGO    R316886   7.598   7.209   6.805 -0.0986 -0.1125  0.1048
 1184ERGO    R416887   7.777   7.038   6.961  0.1463  0.1645  0.1277
 1184ERGO    R516888   7.560   7.034   6.964  0.1511 -0.0695  0.2147
 1184ERGO    C116889   7.628   7.108   7.332  0.2161  0.2012  0.1509
 1184ERGO    C216890   7.439   7.103   7.630 -0.2282 -0.2234  0.0201
 1185ERGO   ROH16891  12.079   2.080   6.266 -0.0121  0.1109  0.0550
 1185ERGO    R116892  12.072   1.962   6.523 -0.0862  0.0611  0.0302
 1185ERGO    R216893  12.278   1.990   6.705 -0.1198 -0.0103  0.0786
 1185ERGO    R316894  12.078   2.077   6.868 -0.1385 -0.0087  0.0550
 1185ERGO    R416895  12.302   2.023   7.048 -0.1426  0.0344  0.0761
 1185ERGO    R516896  12.100   1.944   7.066 -0.1373  0.0170  0.0732
 1185ERGO    C116897  12.129   2.124   7.401 -0.1734  0.0619  0.0525
 1185ERGO    C216898  12.221   2.460   7.686 -0.0753  0.0096  0.0722
 1186ERGO   ROH16899  14.552  14.723   7.406 -0.0132  0.0066 -0.0530
 1186ERGO    R116900  14.360  14.766   7.609 -0.0269 -0.1204 -0.0385
 1186ERGO    R216901  14.260  14.560   7.764  0.1867 -0.1756  0.0313
 1186ERGO    R316902  14.340  14.719   7.969  0.0672 -0.0426 -0.0234
 1186ERGO    R416903  14.135  14.545   8.086  0.2125 -0.1685  0.0415
 1186ERGO    R516904  14.140  14.763   8.093  0.0374 -0.1626 -0.0301
 1186ERGO    C116905  14.139  14.685   8.466  0.1153 -0.0396 -0.0038
 1186ERGO    C216906  14.124  14.555   8.669 -0.0754 -0.1670 -0.1976
 1187ERGO   ROH16907   8.653   5.134   6.372  0.1654 -0.2361 -0.0298
 1187ERGO    R116908   8.693   5.242   6.631 -0.0518 -0.1494 -0.0295
 1187ERGO    R216909   8.519   5.195   6.841 -0.0998 -0.2838 -0.0962
 1187ERGO    R316910   8.745   5.110   6.967 -0.0678 -0.0420  0.0147
 1187ERGO    R416911   8.561   5.181   7.184 -0.2587 -0.2681 -0.0755
 1187ERGO    R516912   8.764   5.254   7.157 -0.3265 -0.0373  0.0387
 1187ERGO    C116913   8.797   5.093   7.501 -0.3215 -0.0320  0.0407
 1187ERGO    C216914   8.805   5.103   7.876  0.0146  0.0970  0.2610
 1188ERGO   ROH16915   1.133   6.616   6.538 -0.0319 -0.0025  0.0425
 1188ERGO    R116916   0.996   6.732   6.757 -0.1237 -0.0378  0.0036
 1188ERGO    R216917   0.737   6.662   6.825 -0.0701 -0.2161  0.0217
 1188ERGO    R316918   0.848   6.614   7.068 -0.0370 -0.0524  0.0403
 1188ERGO    R416919   0.564   6.657   7.124 -0.0981 -0.3676  0.0044
 1188ERGO    R516920   0.731   6.761   7.217 -0.2219 -0.1597  0.0059
 1188ERGO    C116921   0.567   6.610   7.526 -0.0834 -0.3021  0.0117
 1188ERGO    C216922   0.394   6.719   7.774 -0.2040 -0.0442 -0.3657
 1189ERGO   ROH16923   2.500   2.038  10.075  0.0508  0.0458 -0.1433
 1189ERGO    R116924   2.649   1.996   9.839  0.1036 -0.0851 -0.0869
 1189ERGO    R216925   2.677   1.747   9.723 -0.1100 -0.1015 -0.0993
 1189ERGO    R316926   2.583   1.875   9.502  0.1137  0.0198 -0.1279
 1189ERGO    R416927   2.720   1.638   9.398 -0.3431 -0.2883 -0.0704
 1189ERGO    R516928   2.755   1.844   9.338  0.0513 -0.3617 -0.1346
 1189ERGO    C116929   2.657   1.694   9.001 -0.2688 -0.2832 -0.0806
 1189ERGO    C216930   2.763   1.701   8.734  0.0574  0.1827  0.0992
 1190ERGO   ROH16931  12.187   7.943   6.593 -0.0001  0.0872 -0.0170
 1190ERGO    R116932  12.302   8.071   6.818 -0.0295 -0.0423  0.0715
 1190ERGO    R216933  12.201   8.042   7.074 -0.0601 -0.1913  0.0372
 1190ERGO    R316934  12.456   7.968   7.131 -0.0662 -0.2194  0.0339
 1190ERGO    R416935  12.359   8.094   7.377 -0.0196 -0.0980  0.0015
 1190ERGO    R516936  12.540   8.145   7.268 -0.0180 -0.1750 -0.0449
 1190ERGO    C116937  12.690   8.055   7.607 -0.0018 -0.0703 -0.0225
 1190ERGO    C216938  12.729   7.999   7.967 -0.0773 -0.0705  0.0565
 1191ERGO   ROH16939   6.048  13.897   6.435  0.3656 -0.3188 -0.2054
 1191ERGO    R116940   6.055  13.923   6.716  0.1037 -0.1187 -0.2137
 1191ERGO    R216941   6.196  13.750   6.879 -0.0507 -0.0102  0.0436
 1191ERGO    R316942   6.310  13.979   6.971 -0.1297  0.0522 -0.0131
 1191ERGO    R416943   6.338  13.788   7.191 -0.1796  0.1549  0.0833
 1191ERGO    R516944   6.249  13.986   7.202 -0.2214  0.1435 -0.0395
 1191ERGO    C116945   6.527  14.025   7.460 -0.3289  0.3096  0.0532
 1191ERGO    C216946   6.835  14.077   7.634 -0.1858 -0.1057 -0.0968
 1192ERGO   ROH16947  13.097  14.954  10.005  0.1955 -0.1608  0.0950
 1192ERGO    R116948  13.162  14.893   9.736  0.2368  0.0977  0.0434
 1192ERGO    R216949  12.997  14.742   9.573  0.4865 -0.1756  0.0277
 1192ERGO    R316950  13.018  14.958   9.408 -0.0111 -0.0422  0.1239
 1192ERGO    R416951  12.896  14.749   9.243  0.2031 -0.1489  0.1123
 1192ERGO    R516952  13.075  14.865   9.195 -0.0284  0.1776  0.0247
 1192ERGO    C116953  12.857  14.955   8.896 -0.4288 -0.0083  0.2519
 1192ERGO    C216954  12.722  15.005   8.593 -0.1325 -0.0992 -0.1148
 1193ERGO   ROH16955   4.265  11.328   6.640 -0.1597  0.1599  0.0470
 1193ERGO    R116956   4.320  11.497   6.860  0.0479  0.1979 -0.0328
 1193ERGO    R216957   4.285  11.416   7.122 -0.2569  0.4287  0.0003
 1193ERGO    R316958   4.545  11.493   7.146 -0.1107 -0.0579  0.0927
 1193ERGO    R416959   4.435  11.517   7.417 -0.2765  0.4766 -0.0054
 1193ERGO    R516960   4.539  11.672   7.305  0.1212  0.1484 -0.1192
 1193ERGO    C116961   4.765  11.647   7.612 -0.1505  0.0475  0.0782
 1193ERGO    C216962   4.741  11.691   7.954 -0.1154  0.2511  0.1466
 1194ERGO   ROH16963  17.828  12.227   6.778  0.1200 -0.1109  0.0596
 1194ERGO    R116964  17.809  12.134   7.044  0.0606 -0.0756  0.0667
 1194ERGO    R216965  17.957  12.243   7.251 -0.0089 -0.0310  0.0866
 1194ERGO    R316966  17.713  12.274   7.367 -0.0414 -0.0444  0.0251
 1194ERGO    R416967  17.905  12.329   7.581 -0.0883 -0.0587  0.0825
 1194ERGO    R516968  17.741  12.186   7.588 -0.0920 -0.0657  0.0277
 1194ERGO    C116969  17.646  12.409   7.883 -0.1651 -0.0874  0.0224
 1194ERGO    C216970  17.823  12.516   8.118  0.2644  0.0121  0.0719
 1195ERGO   ROH16971  12.124   0.633   6.430 -0.2556  0.0160  0.1428
 1195ERGO    R116972  12.365   0.504   6.503 -0.2976 -0.1566 -0.0154
 1195ERGO    R216973  12.565   0.631   6.645  0.0047 -0.2126 -0.3716
 1195ERGO    R316974  12.537   0.419   6.812 -0.0216 -0.0212 -0.1284
 1195ERGO    R416975  12.784   0.550   6.900  0.0885 -0.0558 -0.3927
 1195ERGO    R516976  12.760   0.340   6.847 -0.0471 -0.1011 -0.1562
 1195ERGO    C116977  12.885   0.304   7.205  0.1127  0.2153 -0.1766
 1195ERGO    C216978  13.221   0.462   7.478 -0.2037 -0.0027 -0.1994
 1196ERGO   ROH16979  13.290   2.435   6.019  0.0823 -0.0863 -0.1286
 1196ERGO    R116980  13.483   2.355   6.210  0.0267 -0.1492 -0.0997
 1196ERGO    R216981  13.542   2.504   6.434  0.0289 -0.1782 -0.0867
 1196ERGO    R316982  13.487   2.272   6.564 -0.0538 -0.1683 -0.1016
 1196ERGO    R416983  13.677   2.411   6.739 -0.1441 -0.1535 -0.0004
 1196ERGO    R516984  13.696   2.208   6.663 -0.1058 -0.1644  0.0225
 1196ERGO    C116985  13.704   2.139   7.038 -0.3224 -0.1299  0.0359
 1196ERGO    C216986  13.734   2.023   7.287 -0.1012 -0.0778  0.0565
 1197ERGO   ROH16987   7.915   8.491   6.248 -0.2007  0.0189 -0.0936
 1197ERGO    R116988   7.888   8.371   6.503 -0.2951 -0.1174 -0.1677
 1197ERGO    R216989   7.936   8.103   6.548  0.1831 -0.0393 -0.2015
 1197ERGO    R316990   8.105   8.199   6.738 -0.2460  0.2368  0.0578
 1197ERGO    R416991   8.027   7.934   6.835  0.4011 -0.1271 -0.3187
 1197ERGO    R516992   8.012   8.121   6.945 -0.2301 -0.2702 -0.1059
 1197ERGO    C116993   8.239   7.926   7.181  0.1252  0.0809 -0.1435
 1197ERGO    C216994   8.342   8.009   7.493 -0.0446  0.0621  0.1601
 1198ERGO   ROH16995  12.320  16.556   9.385 -0.1125 -0.1077 -0.0292
 1198ERGO    R116996  12.253  16.695   9.148 -0.0678 -0.1046 -0.0390
 1198ERGO    R216997  12.435  16.741   8.946 -0.0520 -0.1678 -0.0325
 1198ERGO    R316998  12.245  16.622   8.791 -0.0789 -0.1222 -0.0367
 1198ERGO    R416999  12.378  16.814   8.613  0.2412 -0.4204 -0.1438
 1198ERGO    R517000  12.164  16.799   8.651  0.1926 -0.1612 -0.2602
 1198ERGO    C117001  12.167  16.745   8.274  0.3866 -0.5247 -0.2125
 1198ERGO    C217002  12.235  16.834   8.012 -0.1416 -0.2483  0.0910
 1199ERGO   ROH17003   4.955   3.532   6.143  0.2138  0.0780 -0.1045
 1199ERGO    R117004   4.890   3.442   6.404  0.1910  0.0978 -0.1036
 1199ERGO    R217005   5.082   3.367   6.588  0.1713  0.0436 -0.1060
 1199ERGO    R317006   4.957   3.551   6.745  0.2254  0.0801 -0.1047
 1199ERGO    R417007   5.006   3.322   6.922  0.1333  0.0536 -0.1131
 1199ERGO    R517008   4.814   3.421   6.887  0.1698  0.1229 -0.1206
 1199ERGO    C117009   4.844   3.469   7.264  0.1618  0.0936 -0.1159
 1199ERGO    C217010   4.778   3.513   7.624  0.0742  0.0107 -0.1371
 1200ERGO   ROH17011   5.889  12.788   6.764 -0.1401  0.1597 -0.1330
 1200ERGO    R117012   5.924  12.907   7.018 -0.2007 -0.0308 -0.0338
 1200ERGO    R217013   5.987  12.760   7.244  0.0935 -0.1618 -0.1942
 1200ERGO    R317014   6.193  12.937   7.261 -0.1391  0.1070 -0.1189
 1200ERGO    R417015   6.156  12.838   7.535  0.1911 -0.2921 -0.2154
 1200ERGO    R517016   6.159  13.046   7.472 -0.1460 -0.2039  0.0446
 1200ERGO    C117017   6.448  13.049   7.721  0.0296 -0.1156 -0.1571
 1200ERGO    C217018   6.681  13.026   7.970  0.1775 -0.3386 -0.2941
 1201ERGO   ROH17019   5.760   7.237   6.187  0.2679 -0.3408 -0.1198
 1201ERGO    R117020   5.718   7.250   6.467  0.1790 -0.0992 -0.1416
 1201ERGO    R217021   5.696   7.024   6.625 -0.0713  0.0320  0.0207
 1201ERGO    R317022   5.896   7.142   6.766 -0.0174 -0.0347 -0.0003
 1201ERGO    R417023   5.795   6.933   6.943 -0.0839  0.0202  0.0211
 1201ERGO    R517024   5.818   7.144   6.992 -0.0001  0.0130  0.0036
 1201ERGO    C117025   6.041   6.992   7.261 -0.0405 -0.0492  0.0015
 1201ERGO    C217026   6.162   6.905   7.519  0.1501  0.0452 -0.0981
 1202ERGO   ROH17027   3.668   8.131   6.578  0.0512  0.0662 -0.1548
 1202ERGO    R117028   3.804   8.178   6.822 -0.0351  0.0516 -0.1022
 1202ERGO    R217029   3.671   8.249   7.054 -0.1201  0.0400 -0.1395
 1202ERGO    R317030   3.803   8.034   7.156 -0.1589  0.0306 -0.1128
 1202ERGO    R417031   3.725   8.191   7.391 -0.1877  0.0277 -0.1318
 1202ERGO    R517032   3.925   8.122   7.342 -0.1893  0.0130 -0.0902
 1202ERGO    C117033   3.879   7.956   7.683 -0.2635  0.0117 -0.1023
 1202ERGO    C217034   3.829   7.684   7.981  0.2493 -0.0637 -0.1378
 1203ERGO   ROH17035   4.359   2.829   9.903 -0.1040 -0.0716  0.0777
 1203ERGO    R117036   4.266   2.719   9.659 -0.0162  0.0113  0.0053
 1203ERGO    R217037   4.062   2.833   9.512 -0.0090  0.0252  0.0044
 1203ERGO    R317038   4.246   2.824   9.311  0.0438  0.1593  0.0461
 1203ERGO    R417039   3.991   2.873   9.176  0.0330 -0.0586 -0.0146
 1203ERGO    R517040   4.133   2.714   9.132  0.1732  0.0530  0.0290
 1203ERGO    C117041   4.122   2.888   8.792  0.1070  0.0185  0.0136
 1203ERGO    C217042   4.223   2.866   8.455  0.4339  0.0759  0.2696
 1204ERGO   ROH17043  14.621  10.714   6.343 -0.2903  0.2304 -0.1976
 1204ERGO    R117044  14.485  10.801   6.576 -0.1527  0.0900 -0.0605
 1204ERGO    R217045  14.527  10.687   6.825  0.0281 -0.0332 -0.1407
 1204ERGO    R317046  14.576  10.944   6.898  0.0378 -0.0638 -0.0451
 1204ERGO    R417047  14.550  10.799   7.151 -0.1131 -0.1301 -0.0983
 1204ERGO    R517048  14.441  10.978   7.092 -0.0513 -0.0951 -0.1026
 1204ERGO    C117049  14.609  11.106   7.409 -0.1862 -0.2154  0.0163
 1204ERGO    C217050  14.736  11.169   7.701  0.1042 -0.0563 -0.0036
 1205ERGO   ROH17051   6.708   7.168   6.533  0.0746 -0.0159  0.0630
 1205ERGO    R117052   6.794   7.326   6.751  0.1268 -0.2542  0.2192
 1205ERGO    R217053   6.658   7.553   6.832  0.5062  0.0351  0.0774
 1205ERGO    R317054   6.658   7.427   7.073 -0.1080 -0.0353  0.0552
 1205ERGO    R417055   6.639   7.712   7.139  0.4391  0.0004  0.0914
 1205ERGO    R517056   6.785   7.571   7.216  0.0252 -0.3544  0.2661
 1205ERGO    C117057   6.627   7.686   7.543 -0.1764 -0.0860  0.0786
 1205ERGO    C217058   6.364   7.883   7.784  0.0120 -0.0529  0.0436
 1206ERGO   ROH17059   4.431   3.441   9.842  0.2645  0.2893  0.0308
 1206ERGO    R117060   4.490   3.277   9.619 -0.0699  0.0908  0.0818
 1206ERGO    R217061   4.299   3.205   9.433 -0.2340  0.3853  0.1293
 1206ERGO    R317062   4.478   3.309   9.257 -0.0473 -0.0153  0.0712
 1206ERGO    R417063   4.245   3.240   9.093 -0.1512  0.2522  0.1017
 1206ERGO    R517064   4.451   3.177   9.059 -0.2446 -0.1040  0.1553
 1206ERGO    C117065   4.381   3.358   8.730  0.0723 -0.2015  0.0311
 1206ERGO    C217066   4.452   3.339   8.388  0.0961 -0.1632  0.0256
 1207ERGO   ROH17067  15.443  13.560   6.577 -0.1488 -0.0445 -0.0510
 1207ERGO    R117068  15.241  13.502   6.766 -0.1522 -0.1472 -0.0849
 1207ERGO    R217069  15.262  13.296   6.949 -0.0545 -0.1043 -0.0449
 1207ERGO    R317070  15.212  13.493   7.129 -0.2232 -0.1049 -0.0897
 1207ERGO    R417071  15.138  13.245   7.267 -0.1513 -0.1214 -0.0852
 1207ERGO    R517072  15.013  13.422   7.241 -0.2300 -0.1886 -0.1563
 1207ERGO    C117073  15.019  13.401   7.622 -0.3661 -0.1319 -0.1507
 1207ERGO    C217074  14.879  13.460   7.900 -0.0460  0.3866 -0.2620
 1208ERGO   ROH17075  10.867   1.813   6.268 -0.1334 -0.1218 -0.0138
 1208ERGO    R117076  10.919   1.812   6.546 -0.0471 -0.0565 -0.0297
 1208ERGO    R217077  11.102   1.984   6.665 -0.1043  0.0577 -0.1101
 1208ERGO    R317078  10.890   2.049   6.821 -0.0905 -0.0359 -0.0508
 1208ERGO    R417079  11.124   2.094   6.991 -0.0628 -0.0412 -0.0788
 1208ERGO    R517080  10.951   1.972   7.039 -0.0312 -0.0944 -0.0852
 1208ERGO    C117081  10.937   2.220   7.329 -0.0257 -0.1866 -0.0049
 1208ERGO    C217082  11.164   2.370   7.575 -0.5233  0.1097 -0.2002
 1209ERGO   ROH17083   0.075   2.214  10.279 -0.0597  0.0888 -0.0775
 1209ERGO    R117084   0.123   2.124  10.015  0.0724  0.1751 -0.0845
 1209ERGO    R217085  -0.078   2.025   9.853  0.2101 -0.0962 -0.0968
 1209ERGO    R317086   0.012   2.215   9.681 -0.0519  0.0480 -0.0786
 1209ERGO    R417087  -0.114   2.015   9.509  0.4418 -0.2432 -0.1183
 1209ERGO    R517088   0.088   2.093   9.490  0.3089  0.1502 -0.0064
 1209ERGO    C117089  -0.050   2.188   9.148  0.3309 -0.1935 -0.1136
 1209ERGO    C217090  -0.101   2.385   8.855  0.0550 -0.2283  0.3147
 1210ERGO   ROH17091  11.730   4.220   6.407  0.1697 -0.0354 -0.1173
 1210ERGO    R117092  11.846   4.238   6.664  0.2698  0.3095 -0.1808
 1210ERGO    R217093  11.845   4.472   6.813 -0.3390  0.3276 -0.1866
 1210ERGO    R317094  11.731   4.313   7.001  0.2235 -0.0238 -0.1199
 1210ERGO    R417095  11.833   4.542   7.151 -0.2369  0.2130 -0.1585
 1210ERGO    R517096  11.875   4.333   7.191  0.3412  0.2980 -0.2381
 1210ERGO    C117097  11.719   4.434   7.525  0.3509 -0.1835 -0.0796
 1210ERGO    C217098  11.607   4.507   7.838  0.0998  0.1668 -0.1069
 1211ERGO   ROH17099   9.886   8.047   6.320 -0.1207 -0.0086 -0.1694
 1211ERGO    R117100   9.842   7.956   6.585  0.0165  0.1035 -0.1083
 1211ERGO    R217101   9.985   8.052   6.801 -0.0456  0.3768 -0.1944
 1211ERGO    R317102   9.737   8.103   6.901 -0.0808  0.1833 -0.1744
 1211ERGO    R417103   9.912   8.094   7.136 -0.0962  0.0065 -0.1529
 1211ERGO    R517104   9.729   7.979   7.106 -0.0565 -0.0367 -0.2959
 1211ERGO    C117105   9.638   8.167   7.425 -0.1588 -0.3907 -0.1100
 1211ERGO    C217106   9.665   8.249   7.818  0.0102 -0.0497 -0.0959
 1212ERGO   ROH17107   9.633   2.600   6.304 -0.1456 -0.3544  0.0830
 1212ERGO    R117108   9.731   2.458   6.528 -0.1798 -0.2381  0.1724
 1212ERGO    R217109   9.925   2.561   6.696 -0.0055 -0.2628 -0.0121
 1212ERGO    R317110   9.741   2.508   6.889  0.0294  0.0925  0.1258
 1212ERGO    R417111  10.001   2.472   7.021  0.0731 -0.3353 -0.0502
 1212ERGO    R517112   9.838   2.328   7.014 -0.1908 -0.0578  0.0880
 1212ERGO    C117113   9.873   2.371   7.392  0.1517 -0.0439  0.0573
 1212ERGO    C217114   9.840   2.339   7.696  0.0213 -0.3033  0.0452
 1213ERGO   ROH17115   8.663   2.777   6.340  0.0781 -0.0094  0.0289
 1213ERGO    R117116   8.801   2.687   6.571  0.1300  0.2147  0.0879
 1213ERGO    R217117   8.866   2.856   6.780 -0.3063  0.3136  0.1553
 1213ERGO    R317118   8.734   2.670   6.928 -0.0357  0.0280  0.0492
 1213ERGO    R417119   8.943   2.770   7.106 -0.3415  0.4287  0.1942
 1213ERGO    R517120   8.905   2.562   7.056  0.1032  0.3511  0.1436
 1213ERGO    C117121   8.864   2.546   7.434 -0.1080  0.2275  0.1173
 1213ERGO    C217122   8.854   2.415   7.732  0.1971 -0.2539 -0.0848
 1214ERGO   ROH17123  16.793   7.154   6.589 -0.1327  0.2067 -0.0434
 1214ERGO    R117124  16.757   7.246   6.854 -0.0340  0.1483 -0.0089
 1214ERGO    R217125  16.600   7.112   7.038 -0.0883  0.1882 -0.0258
 1214ERGO    R317126  16.827   7.122   7.189 -0.0579  0.0023 -0.0572
 1214ERGO    R417127  16.617   7.043   7.376 -0.1020  0.1796 -0.0271
 1214ERGO    R517128  16.755   7.210   7.399  0.0417  0.0668 -0.0487
 1214ERGO    C117129  16.839   7.012   7.714 -0.0816  0.0002 -0.0574
 1214ERGO    C217130  16.917   6.746   7.925 -0.1027 -0.0501 -0.0184
 1215ERGO   ROH17131   2.287  17.821   6.513 -0.1515 -0.1857 -0.0329
 1215ERGO    R117132   2.222  17.951   6.756 -0.0862 -0.0673 -0.0786
 1215ERGO    R217133   2.061  17.835   6.948 -0.0683  0.0439  0.0015
 1215ERGO    R317134   2.272  17.889   7.111 -0.0312  0.0839 -0.0585
 1215ERGO    R417135   2.047  17.841   7.293  0.0440 -0.0312  0.0082
 1215ERGO    R517136   2.177  18.016   7.290 -0.0165  0.0158 -0.0007
 1215ERGO    C117137   2.237  17.895   7.647  0.1443 -0.0371 -0.0442
 1215ERGO    C217138   2.186  17.604   7.821 -0.4664  0.1649  0.2331
 1216ERGO   ROH17139  14.653  14.674   9.811 -0.1440 -0.1073  0.0667
 1216ERGO    R117140  14.655  14.592   9.541  0.1703 -0.0291  0.0421
 1216ERGO    R217141  14.433  14.610   9.378  0.1783 -0.5375 -0.0377
 1216ERGO    R317142  14.602  14.748   9.216 -0.0931 -0.0605  0.0672
 1216ERGO    R417143  14.449  14.576   9.034  0.4225 -0.4392 -0.0377
 1216ERGO    R517144  14.666  14.590   9.048  0.3979  0.1223  0.0646
 1216ERGO    C117145  14.618  14.687   8.683  0.3099  0.0660  0.0608
 1216ERGO    C217146  14.659  14.656   8.403  0.3238  0.2501 -0.0030
 1217ERGO   ROH17147   6.659  11.454   6.770 -0.1478 -0.1236  0.0242
 1217ERGO    R117148   6.749  11.616   6.984 -0.1064 -0.1390  0.0175
 1217ERGO    R217149   6.820  11.512   7.230  0.0187 -0.1627 -0.0294
 1217ERGO    R317150   7.052  11.646   7.183 -0.0369 -0.0939 -0.0960
 1217ERGO    R417151   7.044  11.609   7.474  0.0704 -0.1053 -0.0980
 1217ERGO    R517152   7.071  11.797   7.368 -0.0197 -0.0966 -0.0976
 1217ERGO    C117153   7.393  11.790   7.573  0.0483 -0.0075 -0.2004
 1217ERGO    C217154   7.546  11.966   7.770 -0.1866 -0.1878  0.1342
 1218ERGO   ROH17155  17.628  13.783   6.314 -0.1351 -0.0029  0.0714
 1218ERGO    R117156  17.637  13.987   6.510 -0.1927 -0.0165  0.0879
 1218ERGO    R217157  17.490  13.975   6.743 -0.1262 -0.1165  0.1239
 1218ERGO    R317158  17.732  14.014   6.860 -0.1163  0.0024  0.0663
 1218ERGO    R417159  17.542  14.005   7.083 -0.1085  0.2807  0.0917
 1218ERGO    R517160  17.687  14.163   7.042 -0.0964  0.2241 -0.1037
 1218ERGO    C117161  17.799  14.058   7.392 -0.0890  0.6234  0.0189
 1218ERGO    C217162  17.749  13.814   7.651  0.0142 -0.0102  0.1632
 1219ERGO   ROH17163  12.161   5.955   6.524  0.0001  0.2021 -0.1167
 1219ERGO    R117164  12.359   5.967   6.726 -0.0814  0.0695 -0.0257
 1219ERGO    R217165  12.380   6.179   6.903  0.0250  0.0951 -0.0584
 1219ERGO    R317166  12.365   5.982   7.090 -0.2428  0.1428 -0.0270
 1219ERGO    R417167  12.503   6.202   7.224  0.0629 -0.0340 -0.0643
 1219ERGO    R517168  12.573   5.996   7.208 -0.2228 -0.1304 -0.0327
 1219ERGO    C117169  12.562   6.031   7.587 -0.1663 -0.0644 -0.0383
 1219ERGO    C217170  12.579   6.034   7.973 -0.3012  0.1275 -0.0067
 1220ERGO   ROH17171   3.394   6.354   6.848 -0.2557  0.1464 -0.2492
 1220ERGO    R117172   3.138   6.456   6.911 -0.2561  0.0518 -0.0955
 1220ERGO    R217173   2.996   6.373   7.134 -0.0274  0.1116  0.0767
 1220ERGO    R317174   2.987   6.639   7.187 -0.1180  0.1409 -0.0790
 1220ERGO    R417175   2.816   6.517   7.392  0.2491  0.1601  0.2466
 1220ERGO    R517176   2.761   6.678   7.256 -0.0472  0.0407  0.2200
 1220ERGO    C117177   2.703   6.850   7.592  0.3250  0.2158  0.1995
 1220ERGO    C217178   2.670   6.875   7.862  0.1695  0.1967  0.1874
 1221ERGO   ROH17179  12.187  13.759   5.977  0.1256 -0.2178  0.1335
 1221ERGO    R117180  12.114  13.860   6.231  0.1195 -0.1203  0.0933
 1221ERGO    R217181  12.063  13.697   6.448 -0.0370 -0.0459  0.1155
 1221ERGO    R317182  12.250  13.854   6.568  0.0269 -0.1335  0.1307
 1221ERGO    R417183  12.140  13.690   6.785 -0.3277  0.1708  0.1897
 1221ERGO    R517184  12.154  13.907   6.781 -0.0989  0.1556  0.0064
 1221ERGO    C117185  12.359  13.833   7.094 -0.4370  0.2148  0.2471
 1221ERGO    C217186  12.405  13.705   7.317 -0.1636 -0.0689 -0.0471
 1222ERGO   ROH17187   0.392   5.661   6.250  0.1508  0.0458 -0.0163
 1222ERGO    R117188   0.385   5.669   6.533  0.1185  0.0498 -0.0188
 1222ERGO    R217189   0.376   5.906   6.675 -0.0260  0.0441 -0.0312
 1222ERGO    R317190   0.157   5.793   6.788  0.0256 -0.0702 -0.0394
 1222ERGO    R417191   0.270   5.960   6.999 -0.2068  0.2146 -0.1148
 1222ERGO    R517192   0.221   5.748   7.013 -0.0201  0.1696  0.0308
 1222ERGO    C117193   0.002   5.884   7.294 -0.2638  0.2065 -0.1711
 1222ERGO    C217194  -0.216   6.046   7.496 -0.0880  0.2279 -0.0767
 1223ERGO   ROH17195  16.005   8.960   7.986  0.1059 -0.3326  0.0313
 1223ERGO    R117196  16.254   8.862   7.894  0.1421 -0.0835 -0.1386
 1223ERGO    R217197  16.448   9.027   7.787  0.0772  0.1729  0.1561
 1223ERGO    R317198  16.605   8.912   7.977  0.1282 -0.1090 -0.0474
 1223ERGO    R417199  16.793   9.030   7.784  0.0841  0.7043  0.3316
 1223ERGO    R517200  16.790   8.823   7.854  0.3400  0.4838 -0.2125
 1223ERGO    C117201  17.142   8.924   7.961  0.1363  0.7490  0.2428
 1223ERGO    C217202  17.500   9.129   7.830  0.1209 -0.0881 -0.0312
 1224ERGO   ROH17203  15.386   4.925   6.278 -0.1410  0.0754 -0.0095
 1224ERGO    R117204  15.302   4.858   6.540 -0.0482  0.0404  0.0122
 1224ERGO    R217205  15.443   4.933   6.765  0.0206  0.0314 -0.0240
 1224ERGO    R317206  15.204   5.038   6.841  0.0347  0.0016  0.0617
 1224ERGO    R417207  15.308   4.909   7.083  0.1202 -0.0031  0.0157
 1224ERGO    R517208  15.113   4.876   6.992  0.0971 -0.0148  0.0779
 1224ERGO    C117209  15.006   4.994   7.338  0.1915 -0.0511  0.1193
 1224ERGO    C217210  15.018   5.019   7.738 -0.1726 -0.2138 -0.0119
 1225ERGO   ROH17211  13.272   0.708   9.681 -0.0436 -0.3743 -0.0740
 1225ERGO    R117212  13.308   0.653   9.406 -0.0046 -0.2842 -0.0885
 1225ERGO    R217213  13.151   0.472   9.268 -0.0186 -0.2094 -0.1853
 1225ERGO    R317214  13.110   0.683   9.102  0.0529 -0.1374 -0.1099
 1225ERGO    R417215  13.139   0.453   8.923  0.1884 -0.0347 -0.2033
 1225ERGO    R517216  13.252   0.640   8.914  0.1655 -0.0207 -0.0471
 1225ERGO    C117217  13.094   0.640   8.567  0.3759  0.1346 -0.1429
 1225ERGO    C217218  13.109   0.583   8.207 -0.0505 -0.0226 -0.1513
 1226ERGO   ROH17219  18.068  14.902   6.649 -0.1977 -0.0257 -0.0835
 1226ERGO    R117220  18.054  15.089   6.861 -0.0533 -0.1707  0.0558
 1226ERGO    R217221  17.855  15.279   6.879  0.1778  0.0714  0.1119
 1226ERGO    R317222  17.819  15.171   7.126 -0.0686 -0.0780  0.0141
 1226ERGO    R417223  17.656  15.415   7.127  0.0105 -0.0241  0.0316
 1226ERGO    R517224  17.809  15.360   7.273 -0.1304 -0.1684  0.1287
 1226ERGO    C117225  17.506  15.393   7.503 -0.3182 -0.2197 -0.1071
 1226ERGO    C217226  17.457  15.321   7.774 -0.0993 -0.3127  0.1195
 1227ERGO   ROH17227   1.556  14.434   6.471 -0.0795  0.0047  0.0575
 1227ERGO    R117228   1.714  14.328   6.680 -0.2001 -0.0439  0.1245
 1227ERGO    R217229   1.924  14.467   6.794 -0.0247 -0.2197  0.0149
 1227ERGO    R317230   1.791  14.416   7.025 -0.0770  0.1045  0.0617
 1227ERGO    R417231   2.051  14.521   7.111  0.1957 -0.4360 -0.0334
 1227ERGO    R517232   1.959  14.333   7.174 -0.1990 -0.2405  0.0232
 1227ERGO    C117233   1.999  14.504   7.512  0.2749 -0.2576 -0.0175
 1227ERGO    C217234   2.048  14.515   7.815  0.0257 -0.1259  0.2778
 1228ERGO   ROH17235   1.867   1.736   6.571  0.0041 -0.0195  0.0512
 1228ERGO    R117236   1.922   1.772   6.846 -0.0796 -0.0348  0.0676
 1228ERGO    R217237   1.743   1.702   7.044 -0.0980 -0.1257  0.0031
 1228ERGO    R317238   1.953   1.558   7.139 -0.0703 -0.0576  0.0541
 1228ERGO    R417239   1.818   1.661   7.379 -0.3541 -0.3336  0.0404
 1228ERGO    R517240   2.029   1.683   7.329 -0.3153 -0.1418  0.2242
 1228ERGO    C117241   2.058   1.502   7.663 -0.4771 -0.3908  0.1101
 1228ERGO    C217242   2.156   1.306   7.932  0.2211 -0.2526 -0.0647
 1229ERGO   ROH17243  10.562  17.547   6.727 -0.0365 -0.1730  0.4015
 1229ERGO    R117244  10.752  17.597   6.930  0.1047 -0.1616  0.2691
 1229ERGO    R217245  10.958  17.422   6.988  0.1807 -0.1322  0.1007
 1229ERGO    R317246  11.113  17.642   6.950  0.1127 -0.1000  0.0091
 1229ERGO    R417247  11.216  17.520   7.196  0.1334  0.0538  0.0732
 1229ERGO    R517248  11.151  17.727   7.171  0.0695  0.0193 -0.0300
 1229ERGO    C117249  11.512  17.784   7.281  0.0421  0.1924 -0.0287
 1229ERGO    C217250  11.765  17.679   7.545  0.1131 -0.0720  0.0718
 1230ERGO   ROH17251  13.931  14.310   6.267 -0.0536  0.1942  0.0094
 1230ERGO    R117252  14.003  14.200   6.518 -0.0737  0.0417 -0.0497
 1230ERGO    R217253  13.847  14.013   6.649 -0.1196  0.0120 -0.1425
 1230ERGO    R317254  14.078  13.870   6.651 -0.1572 -0.0499 -0.2280
 1230ERGO    R417255  13.915  13.753   6.866  0.0127  0.1935  0.0370
 1230ERGO    R517256  14.119  13.828   6.883  0.0514  0.1545 -0.2262
 1230ERGO    C117257  14.172  13.467   6.994  0.0543  0.2411  0.0612
 1230ERGO    C217258  14.068  13.262   7.289 -0.0591  0.2797 -0.1267
 1231ERGO   ROH17259   7.158  17.614   6.482  0.3589 -0.2890 -0.0331
 1231ERGO    R117260   7.266  17.504   6.720  0.1648 -0.1795  0.1081
 1231ERGO    R217261   7.218  17.613   6.969 -0.0253 -0.0530  0.0185
 1231ERGO    R317262   7.135  17.361   7.028 -0.0883 -0.0185  0.0783
 1231ERGO    R417263   7.095  17.512   7.276 -0.1596  0.0784  0.0094
 1231ERGO    R517264   7.207  17.326   7.254 -0.1805  0.0517  0.1194
 1231ERGO    C117265   6.947  17.216   7.510 -0.2969  0.1873  0.0603
 1231ERGO    C217266   6.558  17.201   7.633 -0.1040 -0.1424  0.0789
 1232ERGO   ROH17267   6.438   0.639   6.390 -0.2301  0.0687  0.0920
 1232ERGO    R117268   6.601   0.659   6.620 -0.0699  0.1049 -0.0215
 1232ERGO    R217269   6.542   0.829   6.830  0.0533  0.1105  0.0131
 1232ERGO    R317270   6.561   0.602   6.978  0.1866  0.1208  0.0106
 1232ERGO    R417271   6.523   0.816   7.175 -0.1021  0.0766  0.0036
 1232ERGO    R517272   6.684   0.668   7.173  0.0321  0.2214  0.0736
 1232ERGO    C117273   6.531   0.595   7.514 -0.0675  0.0664 -0.0043
 1232ERGO    C217274   6.424   0.653   7.849  0.0239  0.1744 -0.1225
 1233ERGO   ROH17275   3.315  13.606   6.697  0.2069  0.1073  0.0955
 1233ERGO    R117276   3.306  13.551   6.975  0.0220 -0.1216  0.0468
 1233ERGO    R217277   3.263  13.748   7.164  0.3105 -0.2046  0.2018
 1233ERGO    R317278   3.062  13.584   7.243 -0.0132  0.0761 -0.0074
 1233ERGO    R417279   3.117  13.749   7.478  0.2519 -0.2619  0.1759
 1233ERGO    R517280   3.112  13.532   7.471 -0.1465 -0.2551 -0.0478
 1233ERGO    C117281   2.843  13.595   7.733 -0.0861 -0.0317 -0.0356
 1233ERGO    C217282   2.611  13.578   8.003 -0.0522  0.0899  0.0838
 1234ERGO   ROH17283   0.857  12.652   6.500  0.1049  0.0304  0.0208
 1234ERGO    R117284   0.730  12.645   6.753 -0.0753  0.0548 -0.0675
 1234ERGO    R217285   0.851  12.540   6.978 -0.3083 -0.1001 -0.0113
 1234ERGO    R317286   0.793  12.783   7.084 -0.1983 -0.0842  0.0150
 1234ERGO    R417287   0.793  12.600   7.313 -0.0358 -0.0631  0.0314
 1234ERGO    R517288   0.633  12.736   7.256 -0.0677 -0.0514  0.1473
 1234ERGO    C117289   0.705  12.864   7.608  0.2261 -0.0266  0.0811
 1234ERGO    C217290   0.763  12.900   7.935  0.1587 -0.1011  0.1101
 1235ERGO   ROH17291   7.074   3.148  10.288 -0.1983 -0.0288 -0.0453
 1235ERGO    R117292   7.080   3.336  10.077  0.1733 -0.0945 -0.0990
 1235ERGO    R217293   7.234   3.299   9.850  0.0783 -0.4833 -0.1088
 1235ERGO    R317294   6.997   3.338   9.723  0.1350 -0.0208 -0.0894
 1235ERGO    R417295   7.199   3.366   9.512  0.1729 -0.5453 -0.1312
 1235ERGO    R517296   7.043   3.510   9.562  0.4848 -0.1805 -0.1665
 1235ERGO    C117297   6.957   3.442   9.197  0.2812 -0.1473 -0.1260
 1235ERGO    C217298   6.972   3.334   8.847  0.1878  0.1469  0.0754
 1236ERGO   ROH17299   8.595  11.759   6.360 -0.3022  0.1477 -0.2010
 1236ERGO    R117300   8.494  11.882   6.594 -0.1619  0.0213 -0.0712
 1236ERGO    R217301   8.456  11.744   6.831 -0.0327 -0.1117 -0.1252
 1236ERGO    R317302   8.611  11.943   6.933  0.0373 -0.1776 -0.1029
 1236ERGO    R417303   8.459  11.841   7.163  0.0074 -0.1499 -0.1144
 1236ERGO    R517304   8.472  12.049   7.097  0.0785 -0.1480 -0.0891
 1236ERGO    C117305   8.607  12.084   7.452  0.0964 -0.2341 -0.0872
 1236ERGO    C217306   8.735  12.328   7.712 -0.2025  0.1313  0.2776
 1237ERGO   ROH17307   3.081  12.294   6.862  0.1064  0.1849  0.1099
 1237ERGO    R117308   3.261  12.460   7.004  0.0980  0.1374  0.1759
 1237ERGO    R217309   3.183  12.610   7.223  0.0946  0.0327  0.2439
 1237ERGO    R317310   3.390  12.481   7.343  0.1119 -0.0012  0.1799
 1237ERGO    R417311   3.254  12.621   7.562  0.0089 -0.2396  0.2740
 1237ERGO    R517312   3.465  12.633   7.512  0.0181 -0.1205  0.3338
 1237ERGO    C117313   3.489  12.507   7.871 -0.0249 -0.4300  0.2316
 1237ERGO    C217314   3.415  12.426   8.190 -0.4242 -0.0582 -0.0388
 1238ERGO   ROH17315   2.213   2.956   9.693 -0.0780 -0.0397  0.0117
 1238ERGO    R117316   2.419   2.870   9.520 -0.0561  0.0010  0.0182
 1238ERGO    R217317   2.385   2.666   9.337 -0.0424  0.0661 -0.0539
 1238ERGO    R317318   2.474   2.853   9.161  0.0050  0.1161  0.0207
 1238ERGO    R417319   2.493   2.598   9.016 -0.1286  0.1732 -0.1066
 1238ERGO    R517320   2.653   2.743   9.044 -0.0600  0.0941 -0.0633
 1238ERGO    C117321   2.639   2.734   8.663 -0.1344  0.2825 -0.0672
 1238ERGO    C217322   2.692   2.651   8.362 -0.2249  0.1735 -0.0134
 1239ERGO   ROH17323   4.913   2.139   9.950 -0.4467 -0.0343  0.1816
 1239ERGO    R117324   4.747   2.138   9.721 -0.2091 -0.0015  0.0060
 1239ERGO    R217325   4.597   2.358   9.644 -0.1689 -0.0114 -0.0856
 1239ERGO    R317326   4.727   2.323   9.408  0.0802  0.0819  0.0326
 1239ERGO    R417327   4.452   2.383   9.331  0.1237  0.0044 -0.2241
 1239ERGO    R517328   4.569   2.211   9.268  0.2496  0.0532 -0.1472
 1239ERGO    C117329   4.490   2.364   8.928  0.5281  0.1011 -0.1940
 1239ERGO    C217330   4.457   2.479   8.628 -0.0149  0.0318  0.0006
 1240ERGO   ROH17331   2.942   3.787   9.747 -0.0600  0.0617  0.0863
 1240ERGO    R117332   2.861   3.676   9.499  0.0017  0.0165  0.0865
 1240ERGO    R217333   2.633   3.759   9.366  0.0230 -0.0246  0.0269
 1240ERGO    R317334   2.807   3.797   9.160  0.0615 -0.0412  0.0558
 1240ERGO    R417335   2.552   3.730   9.032  0.0078  0.2400  0.0052
 1240ERGO    R517336   2.744   3.632   8.998 -0.0680  0.1033 -0.0455
 1240ERGO    C117337   2.668   3.748   8.643  0.0351  0.3784  0.0197
 1240ERGO    C217338   2.589   3.837   8.217 -0.2237  0.3527  0.3758
 1241ERGO   ROH17339  15.919   3.718   6.428 -0.0809 -0.1603 -0.0082
 1241ERGO    R117340  15.974   3.728   6.706 -0.0596  0.0453 -0.0193
 1241ERGO    R217341  16.071   3.512   6.847 -0.1738  0.1117  0.1577
 1241ERGO    R317342  16.265   3.686   6.920 -0.0710  0.0653  0.0021
 1241ERGO    R417343  16.257   3.488   7.137 -0.2000  0.2580  0.1878
 1241ERGO    R517344  16.241   3.705   7.158 -0.0721  0.2938 -0.0099
 1241ERGO    C117345  16.548   3.638   7.375 -0.1188  0.2997  0.0593
 1241ERGO    C217346  16.809   3.470   7.509 -0.1583 -0.0393  0.0345
 1242ERGO   ROH17347   0.031   3.249   6.250 -0.0834  0.1131 -0.0779
 1242ERGO    R117348   0.130   3.252   6.515 -0.0272  0.1098 -0.0986
 1242ERGO    R217349   0.104   3.471   6.681 -0.0404  0.0896 -0.0711
 1242ERGO    R317350  -0.009   3.290   6.849  0.0350  0.0473 -0.0660
 1242ERGO    R417351   0.018   3.534   7.010 -0.0990  0.0688 -0.0825
 1242ERGO    R517352   0.092   3.336   7.062 -0.0065  0.1109 -0.0618
 1242ERGO    C117353  -0.138   3.401   7.359 -0.0625  0.0170 -0.0844
 1242ERGO    C217354  -0.421   3.558   7.615 -0.2664 -0.2338  0.0485
 1243ERGO   ROH17355  11.418   8.652   6.675 -0.0873 -0.0831  0.1567
 1243ERGO    R117356  11.381   8.627   6.954 -0.0112 -0.0816  0.1663
 1243ERGO    R217357  11.586   8.667   7.135 -0.0047  0.0916  0.1181
 1243ERGO    R317358  11.412   8.843   7.246 -0.1153 -0.0282  0.1393
 1243ERGO    R417359  11.576   8.751   7.471 -0.0295  0.0677  0.1240
 1243ERGO    R517360  11.358   8.748   7.459 -0.0335 -0.0774  0.1412
 1243ERGO    C117361  11.406   8.965   7.769 -0.1477 -0.0588  0.1471
 1243ERGO    C217362  11.339   9.145   8.028 -0.1077  0.0098 -0.2154
 1244ERGO   ROH17363  11.172   5.924   6.391  0.0890  0.1778 -0.0251
 1244ERGO    R117364  11.090   5.829   6.645  0.1850 -0.0674 -0.0829
 1244ERGO    R217365  11.262   5.697   6.816  0.3838  0.1819 -0.0791
 1244ERGO    R317366  11.182   5.888   6.992 -0.0259 -0.0192 -0.0351
 1244ERGO    R417367  11.362   5.715   7.147 -0.0263  0.0692  0.0566
 1244ERGO    R517368  11.157   5.772   7.200 -0.1503 -0.1834 -0.1419
 1244ERGO    C117369  11.345   5.906   7.504 -0.6498 -0.1852  0.1769
 1244ERGO    C217370  11.616   5.972   7.639 -0.1014 -0.0355  0.1842
 1245ERGO   ROH17371   5.364   5.356   6.202  0.0618  0.1170 -0.0558
 1245ERGO    R117372   5.333   5.207   6.441  0.0417 -0.0383 -0.1540
 1245ERGO    R217373   5.427   4.949   6.468  0.1468 -0.0140 -0.2735
 1245ERGO    R317374   5.552   5.052   6.686  0.0230 -0.0853 -0.1671
 1245ERGO    R417375   5.600   4.763   6.702  0.0422 -0.0860 -0.2524
 1245ERGO    R517376   5.516   4.889   6.858 -0.0518 -0.1543 -0.2482
 1245ERGO    C117377   5.820   4.751   7.042 -0.1350 -0.1949 -0.1403
 1245ERGO    C217378   6.107   4.600   7.070 -0.1578  0.1833  0.1294
 1246ERGO   ROH17379   3.645  11.528   6.613  0.1779  0.0503 -0.0246
 1246ERGO    R117380   3.705  11.448   6.878  0.0970  0.0053 -0.0202
 1246ERGO    R217381   3.895  11.574   7.033  0.1116 -0.0781  0.0268
 1246ERGO    R317382   3.690  11.597   7.210  0.0866 -0.0198 -0.0086
 1246ERGO    R417383   3.932  11.603   7.375  0.0565 -0.3644  0.0591
 1246ERGO    R517384   3.761  11.470   7.399 -0.0752 -0.2283 -0.0824
 1246ERGO    C117385   3.762  11.640   7.741  0.0010 -0.4764  0.0447
 1246ERGO    C217386   3.800  11.847   8.034  0.0514  0.0111  0.0616
 1247ERGO   ROH17387  14.868   3.925   6.296 -0.0930 -0.1041  0.0376
 1247ERGO    R117388  14.880   4.034   6.557 -0.2124  0.1428 -0.0565
 1247ERGO    R217389  14.688   4.208   6.655 -0.4828 -0.0814 -0.1686
 1247ERGO    R317390  14.673   4.026   6.856 -0.1391  0.0567 -0.0082
 1247ERGO    R417391  14.560   4.272   6.969 -0.3086  0.0266 -0.1174
 1247ERGO    R517392  14.722   4.152   7.054 -0.1171  0.2614 -0.1425
 1247ERGO    C117393  14.472   4.139   7.342  0.1155  0.2191  0.0630
 1247ERGO    C217394  14.312   4.281   7.623  0.1137  0.1943  0.2366
 1248ERGO   ROH17395   1.147   4.735   6.678 -0.2154 -0.0278  0.0405
 1248ERGO    R117396   1.279   4.652   6.915 -0.1702 -0.2969 -0.0747
 1248ERGO    R217397   1.272   4.800   7.148  0.2961 -0.2996 -0.0497
 1248ERGO    R317398   1.182   4.567   7.255 -0.0550 -0.1489 -0.0037
 1248ERGO    R417399   1.214   4.746   7.485  0.0907 -0.1105 -0.0529
 1248ERGO    R517400   1.300   4.547   7.463 -0.1613 -0.2345  0.0489
 1248ERGO    C117401   1.095   4.495   7.780 -0.3584  0.1411 -0.0115
 1248ERGO    C217402   1.000   4.666   8.158 -0.0376  0.0178 -0.1884
 1249ERGO   ROH17403   5.299   1.914  10.179 -0.0324  0.5278  0.1791
 1249ERGO    R117404   5.330   1.846   9.906  0.1101  0.3584  0.2356
 1249ERGO    R217405   5.118   1.774   9.745  0.2201  0.0602  0.2175
 1249ERGO    R317406   5.212   1.974   9.587  0.0977  0.0294  0.1049
 1249ERGO    R417407   5.213   1.736   9.415  0.4632 -0.1230  0.3057
 1249ERGO    R517408   5.381   1.869   9.453  0.2961  0.0961  0.2982
 1249ERGO    C117409   5.356   1.902   9.074  0.4900 -0.2586  0.2510
 1249ERGO    C217410   5.303   1.908   8.721  0.2223  0.0818 -0.2098
 1250ERGO   ROH17411   4.128   4.733   5.901 -0.0235  0.0158 -0.0056
 1250ERGO    R117412   4.032   4.819   6.153  0.2007  0.0759  0.0610
 1250ERGO    R217413   3.799   4.721   6.265  0.1524  0.3054  0.1654
 1250ERGO    R317414   3.962   4.666   6.475  0.2063  0.0939  0.0708
 1250ERGO    R417415   3.691   4.660   6.588  0.2508  0.2392  0.1865
 1250ERGO    R517416   3.860   4.777   6.661  0.3680  0.0857  0.1665
 1250ERGO    C117417   3.781   4.573   6.973  0.3587  0.0021  0.1100
 1250ERGO    C217418   3.791   4.331   7.137 -0.2285  0.0697 -0.0296
 1251ERGO   ROH17419  10.215   3.632   6.315  0.0059  0.1233  0.0548
 1251ERGO    R117420  10.055   3.639   6.549  0.0740  0.1523  0.0996
 1251ERGO    R217421  10.089   3.462   6.758  0.0407  0.0888  0.0448
 1251ERGO    R317422  10.109   3.691   6.905  0.1949  0.0433  0.0996
 1251ERGO    R417423  10.055   3.480   7.102 -0.0178  0.0295  0.0431
 1251ERGO    R517424   9.943   3.666   7.076  0.1330  0.1318  0.0596
 1251ERGO    C117425  10.053   3.705   7.439  0.0928 -0.0477  0.0935
 1251ERGO    C217426  10.188   3.638   7.822  0.0511  0.0127 -0.2489
 1252ERGO   ROH17427   4.891  14.616   6.549  0.1275 -0.0608  0.0622
 1252ERGO    R117428   4.962  14.818   6.733  0.0021  0.0567 -0.0160
 1252ERGO    R217429   4.817  14.868   6.964  0.0125  0.0065  0.0030
 1252ERGO    R317430   5.058  14.834   7.084  0.0704  0.2432 -0.0424
 1252ERGO    R417431   4.902  14.994   7.274 -0.1838 -0.2218  0.1535
 1252ERGO    R517432   5.099  15.043   7.194 -0.2564  0.1837  0.2043
 1252ERGO    C117433   5.178  15.036   7.567 -0.2438 -0.1325  0.1985
 1252ERGO    C217434   5.328  15.261   7.715 -0.1506 -0.0526  0.0877
 1253ERGO   ROH17435   5.818  10.723   6.688  0.1438  0.1518  0.0568
 1253ERGO    R117436   5.847  10.858   6.935 -0.0377  0.0260  0.1495
 1253ERGO    R217437   5.857  10.725   7.177  0.0325 -0.1178  0.0700
 1253ERGO    R317438   6.089  10.864   7.207 -0.1016  0.0828  0.2054
 1253ERGO    R417439   6.052  10.727   7.463 -0.0635 -0.0590  0.1352
 1253ERGO    R517440   6.085  10.940   7.433 -0.2473 -0.0152  0.2363
 1253ERGO    C117441   6.383  10.858   7.657 -0.2454  0.1635  0.3003
 1253ERGO    C217442   6.654  10.726   7.895 -0.0717  0.2066 -0.0305
 1254ERGO   ROH17443   7.660   9.602   6.513 -0.3141  0.0366 -0.0129
 1254ERGO    R117444   7.754   9.625   6.779 -0.1626 -0.0056 -0.0601
 1254ERGO    R217445   7.687   9.838   6.943 -0.0402 -0.0048 -0.0021
 1254ERGO    R317446   7.606   9.641   7.111  0.0158 -0.0140  0.0223
 1254ERGO    R417447   7.665   9.868   7.286 -0.1314  0.0584 -0.0139
 1254ERGO    R517448   7.746   9.666   7.304 -0.0355  0.0951  0.0480
 1254ERGO    C117449   7.577   9.700   7.645 -0.1319  0.0865  0.0021
 1254ERGO    C217450   7.647   9.593   8.050  0.0320 -0.2345  0.1828
 1255ERGO   ROH17451  12.599  12.867   6.224  0.1911 -0.1099 -0.0513
 1255ERGO    R117452  12.823  12.968   6.365  0.2643 -0.3363 -0.0020
 1255ERGO    R217453  12.807  13.191   6.528  0.5315 -0.0928 -0.3037
 1255ERGO    R317454  12.912  13.022   6.714  0.0758 -0.0540  0.0078
 1255ERGO    R417455  12.978  13.290   6.812  0.7040 -0.0124 -0.4334
 1255ERGO    R517456  13.117  13.126   6.780  0.3261 -0.4278 -0.1314
 1255ERGO    C117457  13.176  13.189   7.151  0.3768  0.0711 -0.2164
 1255ERGO    C217458  13.158  13.362   7.484  0.0105 -0.2452  0.0587
 1256ERGO   ROH17459   1.595  11.215   6.798 -0.1177  0.0060 -0.0023
 1256ERGO    R117460   1.628  11.179   7.077  0.0481 -0.2999 -0.0583
 1256ERGO    R217461   1.840  11.037   7.184  0.3858 -0.0111 -0.3244
 1256ERGO    R317462   1.878  11.265   7.327 -0.0429 -0.1092 -0.0304
 1256ERGO    R417463   2.043  11.065   7.463  0.4635  0.0411 -0.3855
 1256ERGO    R517464   1.892  11.193   7.554  0.2201 -0.4014 -0.1309
 1256ERGO    C117465   2.197  11.296   7.758  0.1063 -0.0207 -0.1450
 1256ERGO    C217466   2.456  11.372   7.812 -0.1501  0.0192 -0.0654
 1257ERGO   ROH17467   3.917  15.093   6.662  0.0741 -0.0623 -0.0228
 1257ERGO    R117468   4.019  15.002   6.910  0.1038 -0.0725 -0.0394
 1257ERGO    R217469   4.107  15.175   7.106  0.1005 -0.0815 -0.0340
 1257ERGO    R317470   3.930  15.038   7.261  0.1299 -0.1134 -0.0277
 1257ERGO    R417471   4.073  15.213   7.448  0.0498 -0.0207 -0.0451
 1257ERGO    R517472   4.050  14.996   7.465  0.1242 -0.0291 -0.0043
 1257ERGO    C117473   3.888  15.106   7.793  0.0478 -0.0153 -0.0457
 1257ERGO    C217474   3.836  15.176   8.102  0.2172  0.1409 -0.0429
 1258ERGO   ROH17475   3.874  17.135   6.316 -0.0084 -0.1801 -0.1563
 1258ERGO    R117476   3.929  17.073   6.586 -0.0480 -0.1866 -0.1493
 1258ERGO    R217477   4.136  17.189   6.727  0.0142 -0.2856 -0.1538
 1258ERGO    R317478   3.938  17.253   6.902  0.0424 -0.1627 -0.1662
 1258ERGO    R417479   4.178  17.221   7.069 -0.0033 -0.3631 -0.1444
 1258ERGO    R517480   3.986  17.121   7.096 -0.0794 -0.2234 -0.1793
 1258ERGO    C117481   4.016  17.299   7.432  0.0129 -0.2929 -0.1508
 1258ERGO    C217482   3.924  17.328   7.733 -0.0386 -0.2408  0.0591
 1259ERGO   ROH17483   4.639   8.397   6.366  0.0862 -0.1127 -0.0670
 1259ERGO    R117484   4.730   8.359   6.631 -0.0005 -0.0152 -0.0220
 1259ERGO    R217485   4.950   8.492   6.733  0.0883 -0.1242 -0.0610
 1259ERGO    R317486   4.775   8.566   6.928  0.1022  0.1439 -0.1480
 1259ERGO    R417487   5.031   8.530   7.067 -0.0492 -0.3862  0.0044
 1259ERGO    R517488   4.840   8.437   7.119 -0.2622 -0.0450 -0.1462
 1259ERGO    C117489   4.913   8.622   7.444 -0.1162 -0.2868 -0.0393
 1259ERGO    C217490   4.975   8.541   7.734  0.1193  0.1097  0.0146
 1260ERGO   ROH17491   7.181  17.396   8.298 -0.1921  0.0634 -0.0300
 1260ERGO    R117492   7.010  17.383   8.523 -0.1482 -0.1804 -0.0064
 1260ERGO    R217493   7.038  17.192   8.721  0.2400 -0.0642  0.0662
 1260ERGO    R317494   7.046  17.410   8.884 -0.1507  0.0218 -0.0215
 1260ERGO    R417495   7.015  17.184   9.066  0.2601  0.0444  0.0695
 1260ERGO    R517496   6.890  17.361   9.058 -0.0600 -0.1845 -0.0017
 1260ERGO    C117497   7.010  17.383   9.419 -0.0950  0.1885 -0.0107
 1260ERGO    C217498   7.007  17.379   9.727  0.0994 -0.0681 -0.2989
 1261ERGO   ROH17499   3.268   0.923   6.266  0.0689 -0.0716 -0.0653
 1261ERGO    R117500   3.209   0.876   6.539 -0.0768 -0.0223 -0.0879
 1261ERGO    R217501   3.398   0.903   6.739 -0.1498 -0.1153 -0.0088
 1261ERGO    R317502   3.213   1.069   6.848 -0.1053 -0.0056 -0.0967
 1261ERGO    R417503   3.430   1.060   7.045 -0.2771 -0.2889  0.0963
 1261ERGO    R517504   3.219   1.020   7.082 -0.3525 -0.1264 -0.1094
 1261ERGO    C117505   3.276   1.308   7.325 -0.3094 -0.2871  0.0751
 1261ERGO    C217506   3.232   1.658   7.444  0.0609  0.1122  0.0309
 1262ERGO   ROH17507   6.243   0.676  10.001  0.0262 -0.1904  0.1370
 1262ERGO    R117508   6.294   0.618   9.729 -0.1564 -0.3174  0.1302
 1262ERGO    R217509   6.128   0.457   9.577 -0.5697  0.0687  0.1669
 1262ERGO    R317510   6.124   0.672   9.411 -0.0904  0.0802  0.1554
 1262ERGO    R417511   6.163   0.444   9.233 -0.5612 -0.0335  0.1695
 1262ERGO    R517512   6.287   0.622   9.244 -0.1693 -0.2863  0.1730
 1262ERGO    C117513   6.180   0.639   8.878 -0.1064 -0.0822  0.1602
 1262ERGO    C217514   6.186   0.661   8.521  0.2175  0.1382 -0.4020
 1263ERGO   ROH17515  14.275  16.836   6.515 -0.2429  0.0139 -0.0195
 1263ERGO    R117516  14.461  16.897   6.719 -0.1708  0.0572 -0.0980
 1263ERGO    R217517  14.496  17.153   6.817 -0.2303  0.0550 -0.0758
 1263ERGO    R317518  14.447  17.034   7.056 -0.0666 -0.0019 -0.0689
 1263ERGO    R417519  14.592  17.280   7.124 -0.2105  0.0947 -0.0977
 1263ERGO    R517520  14.644  17.078   7.186 -0.0493  0.1223 -0.1330
 1263ERGO    C117521  14.602  17.242   7.527 -0.0454  0.0645 -0.1039
 1263ERGO    C217522  14.474  17.071   7.881  0.1460  0.2003  0.0709
 1264ERGO   ROH17523   5.917   6.192   6.296 -0.1011  0.0025 -0.0084
 1264ERGO    R117524   5.858   6.112   6.561 -0.0505 -0.0498 -0.0130
 1264ERGO    R217525   5.990   5.904   6.687  0.0744  0.0200 -0.0283
 1264ERGO    R317526   6.037   6.092   6.877 -0.0346  0.0358 -0.0165
 1264ERGO    R417527   6.059   5.836   7.019  0.0595  0.0422 -0.0204
 1264ERGO    R517528   5.932   6.005   7.074 -0.0226 -0.0154 -0.0330
 1264ERGO    C117529   6.143   5.973   7.391 -0.0516  0.0700 -0.0047
 1264ERGO    C217530   6.070   5.902   7.761  0.4678  0.0430 -0.2780
 1265ERGO   ROH17531   7.811   0.185   6.070 -0.1275  0.0503 -0.0782
 1265ERGO    R117532   7.889   0.163   6.341 -0.2847 -0.1394 -0.0450
 1265ERGO    R217533   8.001   0.373   6.481  0.0959 -0.3719  0.0254
 1265ERGO    R317534   7.799   0.322   6.656 -0.0964  0.0220 -0.0735
 1265ERGO    R417535   8.037   0.361   6.825 -0.0887 -0.5282  0.0401
 1265ERGO    R517536   7.902   0.190   6.827 -0.4614 -0.2395 -0.0542
 1265ERGO    C117537   7.868   0.307   7.189 -0.3767 -0.2494 -0.0441
 1265ERGO    C217538   8.034   0.459   7.422  0.1368 -0.0593  0.1957
 1266ERGO   ROH17539  12.341   0.548   9.744  0.1489 -0.1604  0.0560
 1266ERGO    R117540  12.292   0.453   9.482  0.0269 -0.0260  0.0287
 1266ERGO    R217541  12.041   0.457   9.367 -0.0110  0.1099  0.1167
 1266ERGO    R317542  12.170   0.591   9.169 -0.0356  0.1560  0.1315
 1266ERGO    R417543  11.997   0.400   9.029  0.0972  0.0454  0.1130
 1266ERGO    R517544  12.212   0.425   9.002  0.0921  0.1569  0.1607
 1266ERGO    C117545  12.093   0.493   8.646  0.1370  0.0511  0.1249
 1266ERGO    C217546  12.068   0.507   8.367  0.3432  0.0008  0.0343
 1267ERGO   ROH17547  17.971   5.001   6.279 -0.0733  0.1049  0.1917
 1267ERGO    R117548  18.155   5.012   6.495 -0.0155 -0.0484  0.1503
 1267ERGO    R217549  18.100   5.146   6.732  0.0755 -0.1608  0.2315
 1267ERGO    R317550  18.159   4.905   6.843  0.0540 -0.2307  0.0960
 1267ERGO    R417551  18.190   5.096   7.061  0.1715 -0.3359  0.1810
 1267ERGO    R517552  18.338   4.952   6.995  0.1178 -0.3429  0.0612
 1267ERGO    C117553  18.299   4.842   7.358  0.2073 -0.5035  0.0243
 1267ERGO    C217554  18.190   4.742   7.630  0.5195  0.0804  0.1706
 1268ERGO   ROH17555   2.520  15.271   6.480  0.1462  0.0757  0.1455
 1268ERGO    R117556   2.630  15.167   6.719  0.1952 -0.0156  0.0836
 1268ERGO    R217557   2.883  15.055   6.730  0.3010  0.2131  0.0416
 1268ERGO    R317558   2.919  15.237   6.929  0.0879  0.0886  0.1985
 1268ERGO    R417559   3.063  14.997   7.019  0.2652  0.1365  0.0486
 1268ERGO    R517560   2.911  15.106   7.130  0.1379 -0.0803  0.0932
 1268ERGO    C117561   3.202  15.133   7.374  0.0443 -0.0250  0.2000
 1268ERGO    C217562   3.530  15.238   7.508 -0.0969 -0.1004 -0.1401
 1269ERGO   ROH17563   6.560   1.590  10.138  0.2669 -0.0016 -0.1949
 1269ERGO    R117564   6.636   1.667   9.876  0.2307 -0.0421 -0.2191
 1269ERGO    R217565   6.778   1.501   9.707  0.2047 -0.0756 -0.2213
 1269ERGO    R317566   6.572   1.550   9.537  0.1745 -0.0946 -0.1878
 1269ERGO    R417567   6.797   1.484   9.362  0.1350 -0.0670 -0.2246
 1269ERGO    R517568   6.673   1.662   9.352  0.1215 -0.0868 -0.2031
 1269ERGO    C117569   6.615   1.521   9.002  0.0661 -0.0797 -0.1952
 1269ERGO    C217570   6.534   1.524   8.627 -0.2178  0.2775 -0.0183
 1270ERGO   ROH17571  10.775   9.927   6.357 -0.1328 -0.0937  0.0606
 1270ERGO    R117572  10.937  10.073   6.538 -0.1067 -0.2278  0.1423
 1270ERGO    R217573  10.884  10.334   6.609  0.0566 -0.2043  0.1303
 1270ERGO    R317574  10.895  10.234   6.862 -0.1240 -0.2149  0.1381
 1270ERGO    R417575  10.897  10.525   6.897  0.2535 -0.1857  0.1131
 1270ERGO    R517576  11.041  10.383   6.979  0.0635 -0.3862  0.1512
 1270ERGO    C117577  10.914  10.542   7.301  0.1985 -0.1848  0.1103
 1270ERGO    C217578  10.770  10.802   7.413  0.0631  0.1557 -0.1478
 1271ERGO   ROH17579  10.110   2.119  10.433  0.0027 -0.1564 -0.1455
 1271ERGO    R117580  10.013   2.079  10.170  0.1112 -0.1510 -0.1878
 1271ERGO    R217581   9.925   2.287  10.010 -0.0005 -0.1654 -0.1531
 1271ERGO    R317582  10.106   2.186   9.835  0.1334  0.0237 -0.1258
 1271ERGO    R417583   9.878   2.265   9.669  0.0133 -0.3600 -0.1426
 1271ERGO    R517584   9.974   2.069   9.673  0.2896 -0.2242 -0.0756
 1271ERGO    C117585  10.021   2.157   9.305  0.1469 -0.2958 -0.1108
 1271ERGO    C217586  10.021   2.197   9.017 -0.2376  0.0832 -0.0771
 1272ERGO   ROH17587   9.571  13.034   6.514  0.0834  0.4013  0.1158
 1272ERGO    R117588   9.475  12.996   6.778 -0.1683  0.3876  0.0240
 1272ERGO    R217589   9.642  12.986   6.997 -0.3405 -0.0025  0.1422
 1272ERGO    R317590   9.480  13.183   7.090 -0.1089  0.1942  0.1415
 1272ERGO    R417591   9.595  13.062   7.331 -0.3031  0.0020  0.1471
 1272ERGO    R517592   9.383  13.092   7.289 -0.2642  0.2804  0.1100
 1272ERGO    C117593   9.415  13.292   7.612 -0.0639  0.1892  0.1492
 1272ERGO    C217594   9.300  13.322   7.987  0.0117  0.0065  0.0612
 1273ERGO   ROH17595   0.497   1.983   6.452 -0.3485  0.0132 -0.0905
 1273ERGO    R117596   0.422   2.060   6.714 -0.2021  0.0887 -0.0699
 1273ERGO    R217597   0.347   1.877   6.907 -0.1398  0.1489  0.0092
 1273ERGO    R317598   0.541   1.999   7.053 -0.0437  0.1458 -0.1144
 1273ERGO    R417599   0.371   1.869   7.252  0.0872  0.1350 -0.0050
 1273ERGO    R517600   0.428   2.079   7.248  0.0828  0.1373 -0.0353
 1273ERGO    C117601   0.568   1.979   7.589  0.3095  0.1240 -0.1293
 1273ERGO    C217602   0.758   1.879   7.824  0.0255 -0.1330  0.2399
 1274ERGO   ROH17603   6.744   9.300   6.309 -0.3056  0.1563  0.0288
 1274ERGO    R117604   6.875   9.300   6.560 -0.1433  0.0782 -0.0539
 1274ERGO    R217605   6.757   9.399   6.790  0.0042  0.0096  0.0558
 1274ERGO    R317606   6.818   9.153   6.888  0.0653 -0.0220 -0.0620
 1274ERGO    R417607   6.823   9.328   7.122 -0.0632 -0.1524  0.0353
 1274ERGO    R517608   6.982   9.195   7.057  0.0015 -0.0582  0.0067
 1274ERGO    C117609   6.919   9.056   7.407 -0.0451 -0.2763 -0.0871
 1274ERGO    C217610   6.948   9.004   7.621 -0.0965 -0.1142 -0.0854
 1275ERGO   ROH17611   1.607   4.606   6.599  0.0630 -0.0814 -0.0616
 1275ERGO    R117612   1.720   4.508   6.840 -0.1479 -0.1910 -0.0048
 1275ERGO    R217613   1.824   4.676   7.034  0.1358 -0.2950 -0.0656
 1275ERGO    R317614   1.653   4.541   7.196 -0.1408  0.0868 -0.0259
 1275ERGO    R417615   1.824   4.690   7.379  0.1723 -0.2031 -0.0686
 1275ERGO    R517616   1.785   4.476   7.384 -0.2601 -0.1343 -0.0123
 1275ERGO    C117617   1.663   4.572   7.732 -0.0661  0.2089 -0.0332
 1275ERGO    C217618   1.497   4.721   7.962 -0.2257 -0.3506  0.0140
 1276ERGO   ROH17619  14.463   1.562   5.711  0.1059  0.1460  0.0037
 1276ERGO    R117620  14.427   1.587   5.990  0.2374  0.0064  0.0347
 1276ERGO    R217621  14.177   1.596   6.108  0.2843  0.2826  0.1231
 1276ERGO    R317622  14.275   1.390   6.256  0.0455  0.0356 -0.0519
 1276ERGO    R417623  14.063   1.507   6.421  0.1567  0.1198  0.0323
 1276ERGO    R517624  14.269   1.471   6.481  0.1146 -0.1625  0.0235
 1276ERGO    C117625  14.088   1.262   6.743 -0.1418 -0.2068 -0.1849
 1276ERGO    C217626  14.109   1.155   6.925  0.1261  0.5896  0.0364
 1277ERGO   ROH17627   7.073  15.766   8.053  0.0724  0.0518 -0.0779
 1277ERGO    R117628   6.983  15.953   8.245  0.0581  0.0201 -0.0543
 1277ERGO    R217629   6.780  15.897   8.424  0.0026  0.0125 -0.1223
 1277ERGO    R317630   6.966  15.972   8.608 -0.0323 -0.0669 -0.0529
 1277ERGO    R417631   6.719  15.935   8.762 -0.1913  0.3391 -0.1894
 1277ERGO    R517632   6.845  16.113   8.760  0.0224  0.1937 -0.2412
 1277ERGO    C117633   6.858  16.028   9.131 -0.3369  0.4549 -0.1631
 1277ERGO    C217634   6.821  15.935   9.514 -0.4968  0.1489 -0.0931
 1278ERGO   ROH17635   2.767  17.131   6.264  0.0255  0.3437 -0.0409
 1278ERGO    R117636   2.676  17.089   6.528 -0.0484  0.3008 -0.0738
 1278ERGO    R217637   2.820  16.943   6.714 -0.2091  0.0741 -0.1272
 1278ERGO    R317638   2.791  17.168   6.864 -0.0161  0.0286 -0.0174
 1278ERGO    R417639   2.815  16.951   7.060 -0.2909 -0.1075 -0.1224
 1278ERGO    R517640   2.656  17.099   7.050 -0.1389  0.0663 -0.0889
 1278ERGO    C117641   2.786  17.167   7.402 -0.1573 -0.2562 -0.0165
 1278ERGO    C217642   2.627  17.173   7.712 -0.0362  0.0692 -0.3249
 1279ERGO   ROH17643   8.100   2.622  10.258 -0.0854 -0.1935 -0.0182
 1279ERGO    R117644   8.220   2.591  10.003  0.0239  0.2383 -0.0257
 1279ERGO    R217645   8.109   2.434   9.804  0.4596  0.0089 -0.0981
 1279ERGO    R317646   8.128   2.663   9.658 -0.1517  0.1391 -0.0009
 1279ERGO    R417647   8.113   2.449   9.459  0.4559  0.1628 -0.0924
 1279ERGO    R517648   8.266   2.603   9.472  0.0418  0.5898 -0.0149
 1279ERGO    C117649   8.133   2.672   9.121 -0.1202  0.3747  0.0021
 1279ERGO    C217650   8.117   2.592   8.763 -0.1492 -0.0528 -0.1178
 1280ERGO   ROH17651  15.249   7.736   6.509 -0.0334 -0.0627 -0.0814
 1280ERGO    R117652  15.318   7.523   6.682 -0.0045 -0.0560 -0.0831
 1280ERGO    R217653  15.349   7.556   6.955  0.0238 -0.0481 -0.0823
 1280ERGO    R317654  15.166   7.355   6.968  0.0321 -0.0530 -0.0638
 1280ERGO    R417655  15.330   7.321   7.208  0.0772 -0.0798 -0.1087
 1280ERGO    R517656  15.288   7.170   7.058  0.0486 -0.0604 -0.1120
 1280ERGO    C117657  15.148   6.996   7.367  0.1159 -0.1030 -0.1066
 1280ERGO    C217658  15.154   6.740   7.637  0.0169  0.2974  0.0597
 1281ERGO   ROH17659  15.129   9.785   6.527  0.0090 -0.0636  0.1571
 1281ERGO    R117660  15.105   9.892   6.788 -0.1313 -0.0407  0.1374
 1281ERGO    R217661  14.872   9.876   6.935 -0.1676 -0.1662  0.0782
 1281ERGO    R317662  15.036   9.764   7.121 -0.1452 -0.0409  0.1327
 1281ERGO    R417663  14.792   9.835   7.269 -0.1734 -0.0750  0.0871
 1281ERGO    R517664  14.996   9.893   7.320 -0.2023  0.0129  0.0820
 1281ERGO    C117665  14.898   9.706   7.638 -0.1559  0.0958  0.1435
 1281ERGO    C217666  14.931   9.827   7.911  0.1900 -0.0261 -0.0517
 1282ERGO   ROH17667   7.565  16.602   6.564  0.3608  0.0836  0.1133
 1282ERGO    R117668   7.581  16.524   6.835  0.1797  0.0312  0.1106
 1282ERGO    R217669   7.357  16.479   6.991  0.0734  0.1287 -0.0100
 1282ERGO    R317670   7.476  16.239   7.036 -0.0797  0.0556  0.0126
 1282ERGO    R417671   7.331  16.296   7.283 -0.0927  0.1389 -0.0177
 1282ERGO    R517672   7.542  16.247   7.266 -0.1201  0.0120  0.0243
 1282ERGO    C117673   7.427  15.964   7.495 -0.3331  0.0763 -0.0010
 1282ERGO    C217674   7.508  15.794   7.804  0.1480  0.0818  0.1854
 1283ERGO   ROH17675  16.025   9.334   6.350 -0.0982 -0.1013 -0.1630
 1283ERGO    R117676  16.025   9.161   6.574 -0.1176 -0.0606 -0.1312
 1283ERGO    R217677  15.833   9.174   6.772 -0.0882  0.0305 -0.1065
 1283ERGO    R317678  15.802   8.911   6.714 -0.1710  0.0292 -0.0560
 1283ERGO    R417679  15.668   8.947   6.973 -0.2086  0.1290 -0.0927
 1283ERGO    R517680  15.823   8.801   6.926 -0.2527  0.0648 -0.0306
 1283ERGO    C117681  15.543   8.566   7.036 -0.3564  0.1850 -0.0373
 1283ERGO    C217682  15.547   8.413   7.407 -0.1209 -0.3906 -0.3347
 1284ERGO   ROH17683   4.620   9.431   6.562 -0.1689 -0.0242  0.0368
 1284ERGO    R117684   4.527   9.529   6.810 -0.1356 -0.0549  0.0607
 1284ERGO    R217685   4.398   9.369   6.995 -0.0260 -0.0969  0.0955
 1284ERGO    R317686   4.591   9.462   7.162 -0.0162 -0.0258  0.0463
 1284ERGO    R417687   4.391   9.340   7.339 -0.0995  0.1948  0.1210
 1284ERGO    R517688   4.471   9.543   7.353 -0.0233  0.1830 -0.0399
 1284ERGO    C117689   4.569   9.411   7.697 -0.1332  0.4314  0.0897
 1284ERGO    C217690   4.505   9.229   7.947 -0.2098 -0.3508  0.1365
 1285ERGO   ROH17691   1.259   2.542   9.953 -0.0853 -0.2498 -0.0659
 1285ERGO    R117692   1.245   2.508   9.672 -0.0678  0.0105 -0.0999
 1285ERGO    R217693   1.167   2.710   9.501  0.0349  0.1971  0.0765
 1285ERGO    R317694   1.404   2.656   9.380  0.0250  0.2113  0.0482
 1285ERGO    R417695   1.231   2.752   9.164  0.0090  0.2725  0.0799
 1285ERGO    R517696   1.343   2.565   9.167  0.0010  0.2618  0.0299
 1285ERGO    C117697   1.490   2.725   8.854 -0.0153  0.3296  0.0552
 1285ERGO    C217698   1.515   2.749   8.614 -0.3592 -0.1490 -0.0776
 1286ERGO   ROH17699   1.466   2.938  10.075  0.0362 -0.0291 -0.0912
 1286ERGO    R117700   1.344   2.998   9.826  0.0328  0.0538 -0.0685
 1286ERGO    R217701   1.383   3.238   9.695  0.3019 -0.0359 -0.1476
 1286ERGO    R317702   1.457   3.077   9.489  0.0272 -0.1908 -0.1315
 1286ERGO    R417703   1.383   3.330   9.362  0.3932 -0.0830 -0.1622
 1286ERGO    R517704   1.305   3.133   9.312  0.0784  0.0171 -0.1184
 1286ERGO    C117705   1.452   3.232   8.975  0.1885 -0.2558 -0.1556
 1286ERGO    C217706   1.386   3.239   8.693 -0.0429 -0.2974 -0.1746
 1287ERGO   ROH17707  15.471  15.825   6.167  0.0901  0.0308 -0.0588
 1287ERGO    R117708  15.351  15.571   6.201  0.2629 -0.0753 -0.2181
 1287ERGO    R217709  15.498  15.339   6.226  0.4375  0.0526 -0.0003
 1287ERGO    R317710  15.352  15.309   6.453  0.1387 -0.0587 -0.2000
 1287ERGO    R417711  15.511  15.064   6.435  0.3557  0.0629  0.0184
 1287ERGO    R517712  15.294  15.077   6.458  0.3093 -0.1031 -0.2831
 1287ERGO    C117713  15.381  14.876   6.770  0.0275 -0.0354 -0.1583
 1287ERGO    C217714  15.550  14.962   7.183 -0.0205 -0.1798 -0.2688
 1288ERGO   ROH17715  13.020   9.669   6.311 -0.0829  0.0404 -0.0982
 1288ERGO    R117716  12.976   9.602   6.582  0.1299  0.1764 -0.0282
 1288ERGO    R217717  12.910   9.791   6.772 -0.3008  0.2007 -0.1918
 1288ERGO    R317718  12.700   9.625   6.819  0.1044 -0.2846 -0.0048
 1288ERGO    R417719  12.776   9.726   7.084 -0.4939  0.7118 -0.1581
 1288ERGO    R517720  12.755   9.516   7.026  0.1793  0.4490  0.3951
 1288ERGO    C117721  12.501   9.532   7.310 -0.2260  0.5537  0.0370
 1288ERGO    C217722  12.357   9.504   7.659 -0.0412 -0.0699  0.0368
 1289ERGO   ROH17723   7.795   1.881   6.418 -0.0231 -0.0814  0.1133
 1289ERGO    R117724   8.021   1.876   6.589  0.0441 -0.1389  0.0226
 1289ERGO    R217725   8.023   1.998   6.837  0.2218 -0.0196 -0.0393
 1289ERGO    R317726   8.097   1.751   6.922  0.1048 -0.0246  0.0529
 1289ERGO    R417727   8.155   1.929   7.148  0.2019  0.0420 -0.0165
 1289ERGO    R517728   8.294   1.791   7.053  0.1323 -0.0658  0.0285
 1289ERGO    C117729   8.302   1.657   7.410  0.0804  0.0731  0.0832
 1289ERGO    C217730   8.383   1.631   7.741 -0.2362 -0.1901  0.0401
 1290ERGO   ROH17731  14.020   9.267   6.253  0.1949  0.1714 -0.1102
 1290ERGO    R117732  14.134   9.066   6.417  0.1796  0.1061 -0.1790
 1290ERGO    R217733  14.383   9.093   6.535  0.1017  0.1295 -0.0140
 1290ERGO    R317734  14.245   9.039   6.762 -0.0130 -0.0804 -0.1303
 1290ERGO    R417735  14.525   8.983   6.830 -0.0160  0.1176  0.0388
 1290ERGO    R517736  14.356   8.848   6.855  0.0758 -0.0302 -0.1359
 1290ERGO    C117737  14.478   8.868   7.216 -0.1923 -0.0864 -0.0395
 1290ERGO    C217738  14.620   8.840   7.497  0.0750 -0.1792  0.1891
 1291ERGO   ROH17739   8.831  17.538   6.318 -0.0818 -0.0220 -0.1384
 1291ERGO    R117740   8.813  17.734   6.521  0.1527  0.0246 -0.1597
 1291ERGO    R217741   8.641  17.710   6.737 -0.0565  0.3624 -0.2801
 1291ERGO    R317742   8.868  17.748   6.881 -0.0758 -0.0759 -0.1192
 1291ERGO    R417743   8.651  17.808   7.068 -0.0968  0.2625 -0.2491
 1291ERGO    R517744   8.820  17.937   7.020  0.1682 -0.0210 -0.1065
 1291ERGO    C117745   8.871  17.901   7.396 -0.1383 -0.2071 -0.0799
 1291ERGO    C217746   8.996  18.077   7.693  0.1987 -0.0348 -0.0959
 1292ERGO   ROH17747  11.829   5.706   8.482  0.1841 -0.1738  0.0649
 1292ERGO    R117748  11.814   5.891   8.695 -0.0140 -0.0911 -0.0178
 1292ERGO    R217749  11.637   5.862   8.906  0.0192 -0.1905  0.0001
 1292ERGO    R317750  11.862   5.884   9.056  0.0030  0.1226 -0.0150
 1292ERGO    R417751  11.643   5.942   9.242 -0.0743 -0.2846  0.0244
 1292ERGO    R517752  11.818   6.067   9.204 -0.2746  0.0079  0.0466
 1292ERGO    C117753  11.858   6.009   9.579 -0.1440 -0.0454  0.0244
 1292ERGO    C217754  11.813   5.902   9.895  0.1339  0.1695 -0.0823
 1293ERGO   ROH17755   8.095   9.409  10.101 -0.3175  0.0360  0.1482
 1293ERGO    R117756   8.149   9.399   9.824 -0.2857  0.3052  0.1418
 1293ERGO    R217757   8.067   9.189   9.664  0.2214  0.1725  0.0356
 1293ERGO    R317758   7.954   9.388   9.517 -0.2655 -0.0162  0.1384
 1293ERGO    R417759   8.053   9.195   9.318  0.5145  0.4657  0.0244
 1293ERGO    R517760   8.096   9.409   9.325 -0.1446  0.6137  0.2793
 1293ERGO    C117761   7.938   9.386   8.979  0.2280  0.4593  0.1142
 1293ERGO    C217762   7.877   9.487   8.584  0.1135 -0.1552 -0.1785
 1294ERGO   ROH17763  11.860   3.031   6.310  0.2433  0.1058  0.0691
 1294ERGO    R117764  12.028   3.075   6.534  0.1727  0.1901  0.1056
 1294ERGO    R217765  12.045   3.320   6.660 -0.0124  0.1876  0.1380
 1294ERGO    R317766  11.984   3.174   6.881  0.0422  0.1207  0.1096
 1294ERGO    R417767  12.095   3.424   6.986 -0.2742  0.2434  0.1629
 1294ERGO    R517768  12.161   3.222   7.035 -0.0785  0.3121  0.1918
 1294ERGO    C117769  12.067   3.348   7.383 -0.3753  0.2131  0.1508
 1294ERGO    C217770  12.201   3.559   7.770  0.2461  0.2037  0.0030
 1295ERGO   ROH17771   1.482   3.746   6.390 -0.0083  0.0941  0.0212
 1295ERGO    R117772   1.373   3.612   6.613  0.1674 -0.0872 -0.0017
 1295ERGO    R217773   1.516   3.567   6.844  0.1777  0.2050  0.0367
 1295ERGO    R317774   1.305   3.690   6.962 -0.0956 -0.1795 -0.0259
 1295ERGO    R417775   1.455   3.567   7.184  0.3831  0.4832  0.0791
 1295ERGO    R517776   1.242   3.541   7.140  0.3964 -0.1383  0.2147
 1295ERGO    C117777   1.220   3.683   7.493  0.2460  0.2842  0.0450
 1295ERGO    C217778   1.190   3.684   7.802  0.0649 -0.1945 -0.1236
 1296ERGO   ROH17779  14.312  15.882   9.919 -0.3121 -0.0917  0.0238
 1296ERGO    R117780  14.276  15.931   9.643 -0.3604 -0.1961  0.0121
 1296ERGO    R217781  14.485  15.931   9.463 -0.3518  0.0162  0.0238
 1296ERGO    R317782  14.332  15.749   9.332 -0.1293 -0.2004  0.0538
 1296ERGO    R417783  14.401  15.949   9.128 -0.2162 -0.2512 -0.0288
 1296ERGO    R517784  14.200  15.881   9.181 -0.1817 -0.4029 -0.0834
 1296ERGO    C117785  14.208  15.789   8.810  0.0715 -0.6103 -0.0313
 1296ERGO    C217786  14.383  16.004   8.596  0.0532 -0.1055 -0.0399
 1297ERGO   ROH17787  14.016  15.541   9.714 -0.1562  0.1996 -0.0200
 1297ERGO    R117788  13.944  15.443   9.459 -0.1729  0.1284  0.0126
 1297ERGO    R217789  13.849  15.607   9.258 -0.2199  0.0660 -0.0132
 1297ERGO    R317790  14.052  15.495   9.115 -0.2222  0.0605 -0.0137
 1297ERGO    R417791  13.859  15.587   8.913 -0.2392  0.0296 -0.0125
 1297ERGO    R517792  13.942  15.386   8.932 -0.2279  0.0349  0.0041
 1297ERGO    C117793  14.055  15.470   8.578 -0.2526  0.0031 -0.0126
 1297ERGO    C217794  14.160  15.590   8.336 -0.0937 -0.0916  0.1256
 1298ERGO   ROH17795   4.398   7.252   6.817 -0.2168  0.0800  0.0685
 1298ERGO    R117796   4.411   7.264   7.099 -0.1237 -0.0947  0.0734
 1298ERGO    R217797   4.315   7.061   7.261  0.0053 -0.2344 -0.0187
 1298ERGO    R317798   4.566   7.069   7.365  0.0394 -0.2092 -0.1034
 1298ERGO    R417799   4.421   6.880   7.536  0.1396 -0.2789 -0.0994
 1298ERGO    R517800   4.533   7.055   7.602  0.1259 -0.2739 -0.0960
 1298ERGO    C117801   4.718   6.783   7.794  0.2498 -0.2811 -0.2258
 1298ERGO    C217802   5.022   6.623   8.025 -0.3585 -0.1529 -0.2854
 1299ERGO   ROH17803   8.256   3.904   6.657 -0.1770  0.0221  0.1524
 1299ERGO    R117804   8.197   4.099   6.854 -0.0144  0.0072  0.2181
 1299ERGO    R217805   8.194   4.041   7.124  0.0765 -0.0427  0.2084
 1299ERGO    R317806   8.370   4.248   7.137  0.1643 -0.1187  0.1781
 1299ERGO    R417807   8.215   4.267   7.386 -0.0818  0.1949  0.0165
 1299ERGO    R517808   8.245   4.425   7.240  0.1417  0.0411 -0.1135
 1299ERGO    C117809   8.391   4.592   7.550 -0.0918  0.2617 -0.1237
 1299ERGO    C217810   8.414   4.740   7.789 -0.1985 -0.0861  0.0510
 1300ERGO   ROH17811  10.399  16.718  10.103 -0.1495  0.0880  0.1372
 1300ERGO    R117812  10.267  16.601   9.882  0.2357 -0.1506  0.0267
 1300ERGO    R217813  10.123  16.751   9.699 -0.0157 -0.4207  0.0179
 1300ERGO    R317814  10.286  16.627   9.519  0.3660  0.0124  0.0397
 1300ERGO    R417815  10.080  16.757   9.356  0.0221 -0.4913  0.0087
 1300ERGO    R517816  10.136  16.547   9.349  0.5859 -0.3707 -0.0003
 1300ERGO    C117817  10.207  16.645   8.988  0.4026 -0.1257  0.0238
 1300ERGO    C217818  10.250  16.745   8.668  0.1230 -0.1698  0.1673
 1301ERGO   ROH17819  17.202   0.644   6.401 -0.0044 -0.0981  0.0072
 1301ERGO    R117820  16.998   0.678   6.595  0.0269  0.0289  0.0193
 1301ERGO    R217821  16.870   0.465   6.716 -0.0889  0.1067  0.0412
 1301ERGO    R317822  16.949   0.588   6.944 -0.0003  0.0757  0.0269
 1301ERGO    R417823  16.712   0.435   7.021 -0.0770  0.2126  0.0574
 1301ERGO    R517824  16.745   0.648   7.054  0.0438  0.1951  0.0426
 1301ERGO    C117825  16.694   0.533   7.414  0.0132  0.2450  0.0533
 1301ERGO    C217826  16.512   0.394   7.658  0.1711 -0.1014  0.2799
 1302ERGO   ROH17827   6.725   4.385  10.178  0.0973  0.1012 -0.1587
 1302ERGO    R117828   6.912   4.440   9.973  0.1811 -0.0105 -0.1155
 1302ERGO    R217829   7.003   4.245   9.798 -0.0073 -0.0406 -0.1955
 1302ERGO    R317830   6.918   4.421   9.609  0.1933  0.1379 -0.1210
 1302ERGO    R417831   7.017   4.192   9.457 -0.2581  0.0128 -0.2146
 1302ERGO    R517832   7.077   4.400   9.432  0.0706 -0.0834 -0.1985
 1302ERGO    C117833   6.946   4.326   9.081 -0.2158  0.2116 -0.1560
 1302ERGO    C217834   6.939   4.271   8.771 -0.4636 -0.0710 -0.0212
 1303ERGO   ROH17835   0.687  13.682   6.976 -0.0453  0.0515 -0.0964
 1303ERGO    R117836   0.748  13.725   7.249 -0.0761  0.1212 -0.1001
 1303ERGO    R217837   0.656  13.944   7.389 -0.2940  0.0339 -0.1016
 1303ERGO    R317838   0.561  13.755   7.560 -0.0951 -0.0598 -0.0928
 1303ERGO    R417839   0.536  14.007   7.707 -0.1056 -0.1143  0.0004
 1303ERGO    R517840   0.637  13.827   7.776  0.0211 -0.0920 -0.1221
 1303ERGO    C117841   0.378  13.866   8.053  0.1907 -0.2886  0.0680
 1303ERGO    C217842   0.312  13.881   8.424  0.0189  0.2145 -0.1266
 1304ERGO   ROH17843   8.146   1.220   6.231  0.0799 -0.2255  0.0311
 1304ERGO    R117844   8.235   1.342   6.471  0.1411 -0.1371 -0.0354
 1304ERGO    R217845   8.083   1.344   6.702  0.1124  0.1211 -0.0499
 1304ERGO    R317846   8.307   1.235   6.811  0.0210  0.0230  0.0411
 1304ERGO    R417847   8.145   1.315   7.041  0.1149  0.4033 -0.0248
 1304ERGO    R517848   8.352   1.370   7.003  0.1619  0.1746 -0.0982
 1304ERGO    C117849   8.391   1.197   7.341  0.0307  0.4755  0.0754
 1304ERGO    C217850   8.398   1.113   7.698  0.1182  0.2838 -0.1013
 1305ERGO   ROH17851   6.382   3.854   6.306  0.0236 -0.1783 -0.0807
 1305ERGO    R117852   6.249   3.975   6.524  0.1274 -0.0378 -0.0942
 1305ERGO    R217853   6.140   3.829   6.731  0.0191  0.0806 -0.0684
 1305ERGO    R317854   6.294   3.992   6.885  0.1546 -0.0164 -0.0982
 1305ERGO    R417855   6.077   3.906   7.062  0.0682  0.2086 -0.0883
 1305ERGO    R517856   6.137   4.112   7.020  0.2483  0.1506 -0.1322
 1305ERGO    C117857   6.186   4.105   7.399  0.2239  0.1921 -0.1277
 1305ERGO    C217858   6.281   4.001   7.816  0.1401  0.3110 -0.1516
 1306ERGO   ROH17859   7.700   5.070   6.603  0.0436  0.1137 -0.0726
 1306ERGO    R117860   7.613   4.936   6.836  0.2096  0.0739 -0.0320
 1306ERGO    R217861   7.749   4.951   7.077  0.2076  0.2949 -0.0428
 1306ERGO    R317862   7.507   5.030   7.171  0.1181  0.0433 -0.0524
 1306ERGO    R417863   7.667   4.979   7.411  0.2320  0.4111 -0.0458
 1306ERGO    R517864   7.471   4.894   7.365  0.3304  0.1238  0.0450
 1306ERGO    C117865   7.392   5.069   7.695  0.1622  0.2426 -0.0565
 1306ERGO    C217866   7.235   5.244   7.916 -0.1260  0.1849  0.1799
 1307ERGO   ROH17867  12.489  17.112   6.121 -0.0868 -0.2001  0.0256
 1307ERGO    R117868  12.364  17.301   6.291  0.0116 -0.0861 -0.0260
 1307ERGO    R217869  12.195  17.226   6.497 -0.1119  0.0626 -0.0674
 1307ERGO    R317870  12.365  17.377   6.647 -0.0320 -0.0620 -0.0320
 1307ERGO    R417871  12.118  17.364   6.805 -0.1094  0.2205 -0.1368
 1307ERGO    R517872  12.225  17.544   6.746  0.0904  0.1002 -0.1364
 1307ERGO    C117873  12.233  17.585   7.125 -0.0330  0.1954 -0.1440
 1307ERGO    C217874  12.279  17.619   7.463  0.0979  0.3231 -0.1362
 1308ERGO   ROH17875   6.184  17.192   6.511 -0.1461 -0.0964 -0.0024
 1308ERGO    R117876   6.179  17.235   6.790 -0.0555 -0.0916 -0.0018
 1308ERGO    R217877   5.991  17.117   6.955 -0.0290 -0.0512  0.0529
 1308ERGO    R317878   6.210  17.030   7.090 -0.0075 -0.0928 -0.0070
 1308ERGO    R417879   5.989  16.990   7.277  0.0417  0.0020  0.0756
 1308ERGO    R517880   6.173  17.099   7.316  0.0879 -0.0435 -0.0043
 1308ERGO    C117881   6.194  16.835   7.590  0.1031 -0.0059  0.0326
 1308ERGO    C217882   6.142  16.544   7.772 -0.1483 -0.0368  0.1946
 1309ERGO   ROH17883   9.545   0.770   6.237  0.0151  0.0995  0.0137
 1309ERGO    R117884   9.730   0.806   6.448 -0.0640  0.1136  0.0810
 1309ERGO    R217885   9.714   1.018   6.626 -0.1916  0.0677  0.1245
 1309ERGO    R317886   9.716   0.819   6.812 -0.1839  0.0264  0.0805
 1309ERGO    R417887   9.758   1.066   6.965 -0.0489 -0.0166  0.1184
 1309ERGO    R517888   9.883   0.888   6.969 -0.1022 -0.0583  0.0327
 1309ERGO    C117889   9.786   0.907   7.338  0.0413 -0.1045  0.0736
 1309ERGO    C217890   9.618   1.072   7.571  0.0750  0.0266  0.1247
 1310ERGO   ROH17891   4.610  17.073  10.137  0.3188  0.3071  0.0320
 1310ERGO    R117892   4.517  17.014   9.877  0.3102  0.0059  0.0994
 1310ERGO    R217893   4.391  17.201   9.717 -0.0183 -0.2689  0.0161
 1310ERGO    R317894   4.584  17.131   9.539  0.0270 -0.1086  0.0025
 1310ERGO    R417895   4.377  17.261   9.377 -0.0234 -0.1754  0.0330
 1310ERGO    R517896   4.463  17.064   9.343  0.0818 -0.1127 -0.0240
 1310ERGO    C117897   4.551  17.231   9.012  0.0160  0.0292  0.0302
 1310ERGO    C217898   4.392  17.231   8.635  0.1326 -0.0949 -0.0140
 1311ERGO   ROH17899  13.580  16.742   9.630  0.1641  0.1291  0.0381
 1311ERGO    R117900  13.728  16.699   9.392  0.0586 -0.0184 -0.0035
 1311ERGO    R217901  13.618  16.584   9.166 -0.1074  0.0507  0.0372
 1311ERGO    R317902  13.710  16.810   9.046  0.0456 -0.0353 -0.0074
 1311ERGO    R417903  13.678  16.617   8.828 -0.2214 -0.0100  0.0112
 1311ERGO    R517904  13.858  16.730   8.875 -0.0990 -0.1716 -0.0688
 1311ERGO    C117905  13.800  16.847   8.517 -0.1441 -0.1261 -0.0459
 1311ERGO    C217906  13.710  16.928   8.206  0.0983 -0.0866 -0.2199
 1312ERGO   ROH17907  15.156   0.921   9.995 -0.0821  0.3977  0.0596
 1312ERGO    R117908  14.979   0.965   9.779 -0.0114  0.2147 -0.0367
 1312ERGO    R217909  14.984   1.195   9.627 -0.0604  0.1486 -0.1333
 1312ERGO    R317910  15.007   1.019   9.421  0.1134  0.0707 -0.0507
 1312ERGO    R417911  14.981   1.282   9.292 -0.3283 -0.0229 -0.1795
 1312ERGO    R517912  14.860   1.105   9.253 -0.0890 -0.2301 -0.0376
 1312ERGO    C117913  15.002   1.168   8.904 -0.3211 -0.1958 -0.1290
 1312ERGO    C217914  14.898   1.189   8.455 -0.2201 -0.1328 -0.2453
 1313ERGO   ROH17915  16.774  11.342   6.374  0.0682  0.1229  0.1164
 1313ERGO    R117916  16.585  11.392   6.580 -0.0744  0.0995 -0.0079
 1313ERGO    R217917  16.362  11.234   6.617  0.1123 -0.1496  0.0679
 1313ERGO    R317918  16.458  11.214   6.871  0.0436  0.2402  0.1322
 1313ERGO    R417919  16.171  11.159   6.896  0.1104 -0.2007  0.0534
 1313ERGO    R517920  16.286  11.308   7.008 -0.1714  0.0937 -0.0293
 1313ERGO    C117921  16.151  11.097   7.296  0.0448  0.1354  0.1052
 1313ERGO    C217922  16.083  10.897   7.601  0.0297 -0.0122 -0.0918
 1314ERGO   ROH17923   7.081   1.713   6.503 -0.0769  0.0717 -0.0811
 1314ERGO    R117924   7.002   1.498   6.669  0.0515  0.0531 -0.0412
 1314ERGO    R217925   7.093   1.468   6.928  0.1379  0.1068 -0.0591
 1314ERGO    R317926   6.828   1.459   6.986  0.1567  0.0157  0.0100
 1314ERGO    R417927   6.958   1.316   7.207  0.2801  0.3593  0.1515
 1314ERGO    R517928   6.796   1.242   7.082  0.3007  0.1129  0.2777
 1314ERGO    C117929   6.630   1.219   7.425  0.3805  0.4208  0.3390
 1314ERGO    C217930   6.516   1.122   7.725 -0.0530  0.1481  0.2203
 1315ERGO   ROH17931   8.586  13.835   6.180 -0.1210  0.0389  0.0588
 1315ERGO    R117932   8.711  13.821   6.433 -0.0528  0.0115  0.0250
 1315ERGO    R217933   8.983  13.784   6.464 -0.0446 -0.0337 -0.0501
 1315ERGO    R317934   8.964  14.009   6.614  0.0270 -0.0330 -0.0434
 1315ERGO    R417935   9.192  13.865   6.727  0.0715 -0.0206 -0.1459
 1315ERGO    R517936   9.018  13.938   6.836  0.1280 -0.0209 -0.0696
 1315ERGO    C117937   9.295  14.124   7.022  0.2066 -0.0124 -0.1956
 1315ERGO    C217938   9.482  14.324   7.114  0.3909 -0.1160  0.3738
 1316ERGO   ROH17939   0.357  11.371   6.580 -0.0488 -0.0704 -0.0046
 1316ERGO    R117940   0.214  11.440   6.814  0.0187 -0.0054  0.0175
 1316ERGO    R217941   0.032  11.271   6.933 -0.0901  0.1034  0.0067
 1316ERGO    R317942   0.185  11.313   7.153 -0.0420 -0.0359  0.0013
 1316ERGO    R417943  -0.066  11.203   7.257 -0.2131  0.3551  0.0242
 1316ERGO    R517944   0.030  11.389   7.320  0.0487  0.2451 -0.0353
 1316ERGO    C117945   0.021  11.204   7.653 -0.2396  0.3707  0.0294
 1316ERGO    C217946  -0.087  11.094   7.971  0.3516  0.3228  0.0297
 1317ERGO   ROH17947  15.793   5.683   6.522 -0.0017 -0.1418  0.0521
 1317ERGO    R117948  15.774   5.869   6.734 -0.0286 -0.1055  0.0170
 1317ERGO    R217949  15.550   5.889   6.895  0.0092 -0.1752  0.0724
 1317ERGO    R317950  15.731   5.855   7.095  0.0788 -0.0459  0.0334
 1317ERGO    R417951  15.475   5.895   7.232  0.0921 -0.1184  0.0909
 1317ERGO    R517952  15.659   6.006   7.266  0.0571 -0.0286  0.0128
 1317ERGO    C117953  15.601   5.867   7.616  0.2056  0.0361  0.0650
 1317ERGO    C217954  15.542   5.858   8.006 -0.0253 -0.0674  0.0011
 1318ERGO   ROH17955   4.778  13.472   6.589  0.0501 -0.0157  0.1264
 1318ERGO    R117956   4.673  13.435   6.849  0.1576 -0.1000  0.1601
 1318ERGO    R217957   4.823  13.327   7.056  0.3734  0.1922  0.1712
 1318ERGO    R317958   4.749  13.556   7.184  0.0422  0.1255  0.1049
 1318ERGO    R417959   4.890  13.401   7.387  0.1382  0.3339  0.1882
 1318ERGO    R517960   4.691  13.485   7.404  0.0309  0.0960  0.0877
 1318ERGO    C117961   4.860  13.658   7.699 -0.3097  0.3537  0.1358
 1318ERGO    C217962   5.088  13.646   7.994 -0.1218 -0.1294 -0.0823
 1319ERGO   ROH17963   1.326   8.541   6.456 -0.0810 -0.1081 -0.0251
 1319ERGO    R117964   1.279   8.452   6.720 -0.1412 -0.1287 -0.0431
 1319ERGO    R217965   1.277   8.184   6.789 -0.0792 -0.1290 -0.0513
 1319ERGO    R317966   1.462   8.263   6.972 -0.1656 -0.0762  0.0153
 1319ERGO    R417967   1.341   8.023   7.089  0.0422 -0.2709 -0.1516
 1319ERGO    R517968   1.360   8.218   7.184 -0.1457 -0.3113 -0.0204
 1319ERGO    C117969   1.552   8.004   7.434  0.0317 -0.3040 -0.1476
 1319ERGO    C217970   1.710   7.921   7.701 -0.0328 -0.0655  0.2718
 1320ERGO   ROH17971   3.818   0.064   6.568  0.1726  0.1450 -0.1337
 1320ERGO    R117972   3.768   0.190   6.816 -0.0433 -0.0052 -0.0981
 1320ERGO    R217973   3.637   0.062   7.024  0.1033 -0.2632 -0.1553
 1320ERGO    R317974   3.859   0.133   7.164 -0.0112  0.0064 -0.1056
 1320ERGO    R417975   3.665   0.049   7.368 -0.0364  0.0230 -0.1309
 1320ERGO    R517976   3.773   0.239   7.361 -0.1736  0.0951 -0.2247
 1320ERGO    C117977   3.890   0.108   7.700 -0.2253  0.4426 -0.0700
 1320ERGO    C217978   4.081   0.084   7.868 -0.1224  0.0599  0.0084
 1321ERGO   ROH17979   9.447  12.178   6.817  0.0816  0.0467 -0.0626
 1321ERGO    R117980   9.477  12.091   7.085  0.1331  0.1358 -0.0401
 1321ERGO    R217981   9.491  11.824   7.153 -0.1039  0.1541  0.0678
 1321ERGO    R317982   9.722  11.900   7.275  0.0407 -0.0299 -0.0818
 1321ERGO    R417983   9.627  11.670   7.431 -0.1732  0.1746  0.1143
 1321ERGO    R517984   9.679  11.868   7.509  0.0922  0.1757 -0.0373
 1321ERGO    C117985   9.923  11.652   7.708 -0.0779  0.0136  0.0008
 1321ERGO    C217986  10.024  11.488   8.088  0.1530 -0.2748  0.0398
 1322ERGO   ROH17987  10.937  11.920   6.575 -0.1442 -0.1858  0.2980
 1322ERGO    R117988  11.097  12.045   6.772 -0.1592 -0.2034  0.3225
 1322ERGO    R217989  11.103  11.960   7.035  0.0300 -0.4036  0.2609
 1322ERGO    R317990  11.371  11.948   6.991  0.0211 -0.1491  0.1224
 1322ERGO    R417991  11.343  11.932   7.282  0.1873 -0.2583  0.1266
 1322ERGO    R517992  11.467  12.073   7.171  0.0030 -0.1164  0.1050
 1322ERGO    C117993  11.735  11.904   7.385  0.2706  0.0654 -0.0817
 1322ERGO    C217994  11.978  11.748   7.712  0.0228  0.1074 -0.0491
 1323ERGO   ROH17995   1.421   2.497   6.641  0.0259 -0.3468  0.1185
 1323ERGO    R117996   1.348   2.456   6.912  0.1528 -0.2031  0.1763
 1323ERGO    R217997   1.535   2.432   7.114  0.2477 -0.0318  0.1136
 1323ERGO    R317998   1.391   2.633   7.227  0.2433 -0.0005  0.0515
 1323ERGO    R417999   1.533   2.509   7.451  0.1835  0.0270  0.0997
 1323ERGO    R518000   1.319   2.544   7.437  0.1919  0.0439  0.0507
 1323ERGO    C118001   1.396   2.743   7.753  0.1420  0.0907  0.0332
 1323ERGO    C218002   1.547   2.888   8.075 -0.0003 -0.0782  0.1445
 1324ERGO   ROH18003  14.745  17.683   9.739  0.2160 -0.2314 -0.1211
 1324ERGO    R118004  14.733  17.854   9.513  0.2828 -0.0718 -0.0058
 1324ERGO    R218005  14.914  17.840   9.305  0.1396 -0.1680 -0.1270
 1324ERGO    R318006  14.690  17.815   9.154  0.0068  0.2017 -0.0076
 1324ERGO    R418007  14.909  17.833   8.960 -0.0153 -0.4616 -0.1222
 1324ERGO    R518008  14.729  17.957   8.966  0.2541 -0.0436 -0.1501
 1324ERGO    C118009  14.695  17.807   8.617 -0.2300 -0.2855 -0.0074
 1324ERGO    C218010  14.729  17.860   8.329 -0.0178  0.0157  0.0144
 1325ERGO   ROH18011  12.809  15.768   9.511  0.0766 -0.0399  0.1678
 1325ERGO    R118012  12.718  15.834   9.252 -0.0709 -0.1068  0.2009
 1325ERGO    R218013  12.866  15.987   9.076 -0.3123  0.1429  0.1990
 1325ERGO    R318014  12.827  15.776   8.910 -0.0559  0.1179  0.1672
 1325ERGO    R418015  12.855  16.007   8.731 -0.5183  0.2041  0.2087
 1325ERGO    R518016  12.690  15.864   8.733 -0.2867 -0.0611  0.2567
 1325ERGO    C118017  12.811  15.821   8.374 -0.3974  0.2163  0.1844
 1325ERGO    C218018  12.822  15.984   8.041  0.0388 -0.2074  0.0001
 1326ERGO   ROH18019   3.313  14.096   6.602  0.1074  0.1183  0.1019
 1326ERGO    R118020   3.381  14.032   6.869  0.2539  0.1577  0.0763
 1326ERGO    R218021   3.545  14.193   7.023  0.1282  0.3217  0.0518
 1326ERGO    R318022   3.335  14.185   7.197  0.1797  0.0724  0.1045
 1326ERGO    R418023   3.569  14.242   7.364  0.1613  0.2393  0.0607
 1326ERGO    R518024   3.425  14.081   7.393  0.3224  0.0980  0.0494
 1326ERGO    C118025   3.387  14.264   7.726  0.2290 -0.0427  0.1154
 1326ERGO    C218026   3.328  14.382   8.061  0.2061  0.2466  0.0457
 1327ERGO   ROH18027   7.232   4.126   6.684  0.0771 -0.0023 -0.1683
 1327ERGO    R118028   7.216   3.851   6.750  0.1630  0.0426  0.0509
 1327ERGO    R218029   7.265   3.757   7.005  0.0113  0.2797  0.1755
 1327ERGO    R318030   7.019   3.644   6.975  0.0880  0.1379  0.0713
 1327ERGO    R418031   7.126   3.525   7.221  0.0825  0.1281  0.0599
 1327ERGO    R518032   7.048   3.418   7.048  0.1994  0.1349  0.0082
 1327ERGO    C118033   6.815   3.285   7.319  0.1960 -0.0934 -0.1052
 1327ERGO    C218034   6.650   3.202   7.572 -0.1823  0.3880 -0.1121
 1328ERGO   ROH18035  13.636  17.839   9.661 -0.0021  0.0845  0.1117
 1328ERGO    R118036  13.698  17.743   9.402  0.2007  0.1733  0.1251
 1328ERGO    R218037  13.506  17.706   9.207  0.2357 -0.4170  0.1828
 1328ERGO    R318038  13.670  17.866   9.060 -0.2303  0.0075  0.0949
 1328ERGO    R418039  13.545  17.685   8.864  0.2671 -0.4595  0.1894
 1328ERGO    R518040  13.759  17.720   8.892  0.1868  0.1801  0.1567
 1328ERGO    C118041  13.722  17.823   8.527 -0.1520 -0.0857  0.1105
 1328ERGO    C218042  13.727  17.797   8.216  0.5571 -0.2391 -0.1781
 1329ERGO   ROH18043  13.880   6.699   6.218 -0.2844 -0.2238  0.1051
 1329ERGO    R118044  14.106   6.676   6.385 -0.1910 -0.1318 -0.0072
 1329ERGO    R218045  14.148   6.842   6.602 -0.0700 -0.0129 -0.1215
 1329ERGO    R318046  14.169   6.607   6.737  0.0047  0.0611 -0.0018
 1329ERGO    R418047  14.255   6.811   6.929 -0.2720  0.2129 -0.0311
 1329ERGO    R518048  14.366   6.632   6.871 -0.1029  0.2626  0.1244
 1329ERGO    C118049  14.337   6.573   7.247 -0.3196  0.4138  0.1338
 1329ERGO    C218050  14.396   6.542   7.550 -0.2056 -0.3464 -0.1603
 1330ERGO   ROH18051  14.151  16.004   6.285 -0.3968  0.1903 -0.0316
 1330ERGO    R118052  14.023  16.036   6.536 -0.3371  0.2966 -0.0146
 1330ERGO    R218053  14.074  15.871   6.752 -0.5067  0.2001 -0.0485
 1330ERGO    R318054  14.126  16.106   6.878 -0.2236  0.1220 -0.0108
 1330ERGO    R418055  14.104  15.911   7.094 -0.3994  0.0960 -0.0451
 1330ERGO    R518056  13.994  16.098   7.077 -0.1995  0.2246  0.0124
 1330ERGO    C118057  14.169  16.154   7.411 -0.0711 -0.0378 -0.0076
 1330ERGO    C218058  14.235  16.385   7.617  0.2381  0.3274 -0.0224
 1331ERGO   ROH18059   9.290  17.505   6.409  0.2527  0.2081 -0.0781
 1331ERGO    R118060   9.213  17.530   6.680  0.1707  0.1884 -0.1006
 1331ERGO    R218061   9.370  17.441   6.889  0.1158  0.1940 -0.0620
 1331ERGO    R318062   9.341  17.696   6.978  0.0659  0.1867 -0.0529
 1331ERGO    R418063   9.411  17.542   7.217  0.0306  0.1764 -0.0446
 1331ERGO    R518064   9.239  17.673   7.193  0.0182  0.1595 -0.0758
 1331ERGO    C118065   9.408  17.840   7.491 -0.0658  0.1594 -0.0259
 1331ERGO    C218066   9.694  17.928   7.631 -0.2035  0.1502  0.0131
 1332ERGO   ROH18067   3.896   4.934  10.234 -0.3021  0.5710  0.1005
 1332ERGO    R118068   3.802   5.074  10.007 -0.1297  0.4944 -0.0213
 1332ERGO    R218069   3.969   5.159   9.804  0.0067  0.2967  0.0015
 1332ERGO    R318070   3.796   5.021   9.647  0.0051  0.2951  0.0056
 1332ERGO    R418071   3.968   5.165   9.459  0.0562  0.2159 -0.0000
 1332ERGO    R518072   3.750   5.168   9.465  0.0596  0.2586 -0.0344
 1332ERGO    C118073   3.804   5.039   9.110  0.0836  0.1673  0.0028
 1332ERGO    C218074   3.914   5.085   8.823  0.4056 -0.1276 -0.0643
 1333ERGO   ROH18075   2.698   5.940   8.008  0.0809  0.1842  0.0362
 1333ERGO    R118076   2.972   5.909   8.070  0.0924  0.1022 -0.0533
 1333ERGO    R218077   3.063   5.727   8.256  0.0844  0.1754  0.0212
 1333ERGO    R318078   3.219   5.643   8.050 -0.0306 -0.0185  0.0099
 1333ERGO    R418079   3.381   5.595   8.290  0.1814  0.3892 -0.0398
 1333ERGO    R518080   3.441   5.707   8.113 -0.0130  0.1881 -0.2429
 1333ERGO    C118081   3.713   5.440   8.116  0.1298  0.3316 -0.0860
 1333ERGO    C218082   3.940   5.088   8.082  0.0189  0.3775 -0.1959
 1334ERGO   ROH18083  11.240   7.451   6.720  0.0317  0.1359 -0.0246
 1334ERGO    R118084  11.278   7.632   6.935  0.0843  0.1691 -0.0605
 1334ERGO    R218085  11.140   7.610   7.174 -0.0287  0.3417 -0.1039
 1334ERGO    R318086  11.390   7.610   7.281 -0.0677  0.1784 -0.0113
 1334ERGO    R418087  11.237   7.788   7.454 -0.0033  0.2932 -0.0825
 1334ERGO    R518088  11.424   7.835   7.355  0.0628  0.1570 -0.0147
 1334ERGO    C118089  11.528   7.892   7.717 -0.0251  0.1115  0.0168
 1334ERGO    C218090  11.828   7.882   7.826  0.1463  0.3092  0.2146
 1335ERGO   ROH18091  15.915  16.784   5.950  0.0203  0.0793  0.1408
 1335ERGO    R118092  15.955  16.624   6.180  0.0218  0.0725  0.1362
 1335ERGO    R218093  16.105  16.709   6.395 -0.0763  0.1151  0.1903
 1335ERGO    R318094  15.879  16.648   6.535 -0.0926  0.0049  0.1168
 1335ERGO    R418095  16.076  16.721   6.740 -0.1707  0.0149  0.1864
 1335ERGO    R518096  15.959  16.537   6.732 -0.1085 -0.0203  0.1078
 1335ERGO    C118097  15.848  16.672   7.071 -0.2408 -0.1468  0.1151
 1335ERGO    C218098  15.808  16.535   7.401 -0.0421 -0.0322 -0.0634
 1336ERGO   ROH18099  11.372   9.089   8.556 -0.0226  0.0203  0.0761
 1336ERGO    R118100  11.281   8.957   8.790  0.0038  0.0474  0.1017
 1336ERGO    R218101  11.446   8.907   9.006  0.0324  0.0601  0.0836
 1336ERGO    R318102  11.250   9.036   9.143  0.0580  0.0838  0.0980
 1336ERGO    R418103  11.452   8.971   9.346  0.1245  0.1836  0.0595
 1336ERGO    R518104  11.240   8.922   9.354  0.1349  0.1594  0.1418
 1336ERGO    C118105  11.272   9.130   9.672  0.2023  0.2777  0.0589
 1336ERGO    C218106  11.396   9.100   9.946  0.3749  0.2700  0.1059
 1337ERGO   ROH18107  13.111   7.583   6.420  0.0868  0.0613  0.0214
 1337ERGO    R118108  13.121   7.520   6.696  0.0839  0.1328  0.0383
 1337ERGO    R218109  13.256   7.299   6.794 -0.1099  0.0268  0.0751
 1337ERGO    R318110  13.380   7.484   6.950  0.1051 -0.0452 -0.0082
 1337ERGO    R418111  13.375   7.241   7.113 -0.1548  0.0271  0.0917
 1337ERGO    R518112  13.302   7.438   7.171  0.0665  0.1331  0.0155
 1337ERGO    C118113  13.561   7.381   7.445  0.0208 -0.0402  0.0232
 1337ERGO    C218114  13.873   7.469   7.600 -0.1880 -0.0223 -0.0932
 1338ERGO   ROH18115   4.837   2.512   6.271  0.2878 -0.0687  0.1828
 1338ERGO    R118116   4.876   2.383   6.520  0.1028 -0.1454  0.1738
 1338ERGO    R218117   4.949   2.520   6.749  0.1487 -0.2454  0.2210
 1338ERGO    R318118   4.728   2.401   6.852  0.0139 -0.0777  0.1310
 1338ERGO    R418119   4.919   2.408   7.074  0.0354 -0.4749  0.1336
 1338ERGO    R518120   4.815   2.233   6.999 -0.1707 -0.2978 -0.0056
 1338ERGO    C118121   4.695   2.231   7.361 -0.1572 -0.4511 -0.0018
 1338ERGO    C218122   4.611   2.283   7.592  0.1251  0.2862 -0.0620
 1339ERGO   ROH18123  17.748  17.890   6.373 -0.1340  0.0713 -0.1664
 1339ERGO    R118124  17.544  17.784   6.538 -0.1228  0.1388 -0.1092
 1339ERGO    R218125  17.597  17.654   6.776 -0.0981  0.1141 -0.1299
 1339ERGO    R318126  17.423  17.838   6.877 -0.0050  0.1714 -0.0716
 1339ERGO    R418127  17.564  17.731   7.111 -0.1148 -0.0377 -0.0959
 1339ERGO    R518128  17.348  17.741   7.083 -0.1056  0.1108 -0.1347
 1339ERGO    C118129  17.382  17.947   7.402 -0.0373 -0.0722 -0.0213
 1339ERGO    C218130  17.396  18.244   7.460  0.0213  0.1676  0.1185
 1340ERGO   ROH18131   7.323  14.909   6.544  0.2001 -0.1266 -0.1787
 1340ERGO    R118132   7.181  14.960   6.784  0.0937 -0.0698 -0.2530
 1340ERGO    R218133   6.961  14.811   6.861  0.2042 -0.2089 -0.1960
 1340ERGO    R318134   7.104  14.779   7.090  0.1798  0.0927 -0.1345
 1340ERGO    R418135   6.850  14.898   7.176  0.0588 -0.0577 -0.2873
 1340ERGO    R518136   7.051  14.972   7.221 -0.0161  0.1493 -0.2958
 1340ERGO    C118137   6.920  14.919   7.575 -0.0488  0.3133 -0.2827
 1340ERGO    C218138   6.839  14.914   7.910  0.0018  0.3263 -0.2185
 1341ERGO   ROH18139  17.078   6.004   6.165  0.0283 -0.1737  0.1902
 1341ERGO    R118140  17.113   6.038   6.444  0.0728  0.0153  0.1622
 1341ERGO    R218141  17.299   6.212   6.550  0.1014  0.0729  0.0141
 1341ERGO    R318142  17.084   6.312   6.682  0.1309  0.1820 -0.0186
 1341ERGO    R418143  17.301   6.316   6.879  0.0710 -0.0788  0.0633
 1341ERGO    R518144  17.105   6.224   6.904 -0.0136  0.0614 -0.0489
 1341ERGO    C118145  17.099   6.471   7.195  0.0811 -0.0648  0.0612
 1341ERGO    C218146  16.907   6.617   7.452  0.3215 -0.3955  0.2009
 1342ERGO   ROH18147  11.512  17.744   9.846 -0.0002 -0.3193 -0.0342
 1342ERGO    R118148  11.402  17.610   9.622 -0.0347 -0.1355 -0.1299
 1342ERGO    R218149  11.182  17.705   9.484  0.0197  0.0454 -0.0985
 1342ERGO    R318150  11.348  17.684   9.270  0.0363  0.1053 -0.0913
 1342ERGO    R418151  11.078  17.660   9.158  0.0554 -0.0051 -0.1027
 1342ERGO    R518152  11.243  17.520   9.130  0.1100  0.0614 -0.0921
 1342ERGO    C118153  11.173  17.613   8.767  0.0918  0.0219 -0.0984
 1342ERGO    C218154  11.081  17.566   8.539 -0.2390 -0.1939  0.0199
 1343ERGO   ROH18155  11.441  16.816   9.777  0.0709  0.1718 -0.0545
 1343ERGO    R118156  11.309  16.663   9.579  0.0681  0.0442  0.0462
 1343ERGO    R218157  11.144  16.776   9.389 -0.0746 -0.1004  0.0880
 1343ERGO    R318158  11.307  16.645   9.215 -0.0822 -0.0611  0.0500
 1343ERGO    R418159  11.102  16.770   9.046 -0.0968 -0.0141  0.0885
 1343ERGO    R518160  11.159  16.559   9.048 -0.0969 -0.0199  0.0366
 1343ERGO    C118161  11.232  16.644   8.683 -0.1170  0.0729  0.0533
 1343ERGO    C218162  11.212  16.672   8.308 -0.0105 -0.3557 -0.2128
 1344ERGO   ROH18163   3.308   4.157   9.881  0.4032 -0.0354  0.0721
 1344ERGO    R118164   3.411   4.094   9.625  0.0625 -0.2722 -0.0161
 1344ERGO    R218165   3.257   3.980   9.425 -0.3800  0.1054  0.0835
 1344ERGO    R318166   3.344   4.193   9.281  0.0298 -0.0777  0.0467
 1344ERGO    R418167   3.249   4.002   9.081 -0.3353  0.0726  0.0813
 1344ERGO    R518168   3.444   4.097   9.087 -0.1524 -0.2995  0.0632
 1344ERGO    C118169   3.325   4.215   8.744  0.0753 -0.1183  0.0454
 1344ERGO    C218170   3.459   4.211   8.381  0.1545 -0.2770  0.2962
 1345ERGO   ROH18171   8.478  10.286   6.230  0.0268 -0.1009  0.1365
 1345ERGO    R118172   8.446  10.249   6.509  0.0656  0.0691  0.1645
 1345ERGO    R218173   8.661  10.222   6.681  0.0886  0.1542  0.1482
 1345ERGO    R318174   8.540  10.428   6.812  0.1266  0.2432  0.0450
 1345ERGO    R418175   8.734  10.321   7.004 -0.1139  0.0931  0.2142
 1345ERGO    R518176   8.521  10.351   7.038 -0.1250  0.2514  0.0303
 1345ERGO    C118177   8.663  10.571   7.315 -0.1961  0.1409  0.1558
 1345ERGO    C218178   8.542  10.641   7.688  0.1019 -0.0519 -0.0948
 1346ERGO   ROH18179  16.194   2.142   6.497 -0.2687 -0.0615 -0.2030
 1346ERGO    R118180  16.041   2.077   6.726 -0.1320  0.0338 -0.0832
 1346ERGO    R218181  16.154   1.975   6.957 -0.0111 -0.0005 -0.1595
 1346ERGO    R318182  16.026   2.184   7.074  0.1767  0.0715 -0.0777
 1346ERGO    R418183  16.011   1.968   7.271 -0.3030 -0.1123 -0.2917
 1346ERGO    R518184  15.843   2.083   7.192 -0.0768  0.2029 -0.3383
 1346ERGO    C118185  15.807   2.160   7.564 -0.2967 -0.1098 -0.2917
 1346ERGO    C218186  15.656   2.117   7.831 -0.2304  0.4052  0.1931
 1347ERGO   ROH18187   9.849  15.486   6.243  0.0250 -0.1650 -0.0195
 1347ERGO    R118188   9.888  15.429   6.517  0.1707 -0.0922 -0.0246
 1347ERGO    R218189   9.757  15.222   6.647  0.1993 -0.0237  0.1110
 1347ERGO    R318190  10.010  15.149   6.714  0.2219 -0.0608 -0.0102
 1347ERGO    R418191   9.850  15.086   6.951  0.3376  0.0646  0.1093
 1347ERGO    R518192  10.030  15.208   6.945  0.3677  0.0205 -0.0402
 1347ERGO    C118193  10.141  14.939   7.191  0.4392  0.0809 -0.0055
 1347ERGO    C218194  10.289  14.691   7.318 -0.1027 -0.1518 -0.2923
 1348W        W18195   9.694  11.017   1.618  0.0370  0.1972 -0.0694
 1349W        W18196   8.710  17.139  13.083 -0.0409  0.1691  0.3960
 1350W        W18197  16.378   0.956  16.022  0.1158  0.1594 -0.3024
 1351W        W18198  18.066  14.580  12.366 -0.0581 -0.2251  0.0060
 1352W        W18199  15.890  14.946   4.372  0.3027 -0.1918  0.0537
 1353W        W18200  15.530   0.207   3.309  0.1240  0.2249  0.0221
 1354W        W18201   0.821  17.211   2.719  0.2180 -0.0422  0.0717
 1355W        W18202   5.818  14.596  13.847  0.1859 -0.2846  0.2042
 1356W        W18203   0.753  17.661   1.180  0.1783 -0.1164  0.2223
 1357W        W18204   8.665  13.880   3.760  0.1785  0.2934  0.0062
 1358W        W18205   2.741   3.033   3.076  0.1279  0.1302  0.0485
 1359W        W18206   2.625   0.670   4.864  0.1396  0.1597 -0.2529
 1360W        W18207  14.011   8.522   0.983  0.4187 -0.3707 -0.0345
 1361W        W18208  11.325  13.857   4.700  0.0706 -0.0397 -0.1457
 1362W        W18209   7.736   9.467   3.150  0.1039 -0.1357  0.3711
 1363W        W18210   0.574   4.944   3.695 -0.4514 -0.0925 -0.4229
 1364W        W18211   1.341   9.106   1.194  0.1235 -0.0655 -0.1734
 1365W        W18212  16.750   1.116  13.740 -0.0378  0.0122 -0.0994
 1366W        W18213   9.687   2.542   5.394  0.0950 -0.0565 -0.4003
 1367W        W18214  10.664   0.981   3.210  0.1426 -0.0751 -0.1971
 1368W        W18215   5.324   1.598   3.421 -0.3739  0.2447 -0.1105
 1369W        W18216  12.613   0.875   1.073 -0.2073 -0.0231  0.2093
 1370W        W18217   0.108   7.933  15.176  0.3535 -0.2344 -0.0198
 1371W        W18218   5.343  12.912   1.895  0.0352  0.0067 -0.0598
 1372W        W18219  15.161   5.146   5.087 -0.1978 -0.1337 -0.4420
 1373W        W18220   6.758  17.263  13.477 -0.0373  0.1182 -0.3933
 1374W        W18221  14.204   3.141  12.622  0.0890 -0.0161 -0.0434
 1375W        W18222   7.158  11.315   0.398  0.2526 -0.3190 -0.0532
 1376W        W18223  14.508   9.858  15.888  0.1286  0.0873  0.1884
 1377W        W18224   7.763  11.211   3.978  0.0191 -0.3016  0.2469
 1378W        W18225  10.972  16.379   3.315  0.0296  0.0324 -0.2585
 1379W        W18226  13.253   6.161  15.495 -0.2697  0.1068 -0.1251
 1380W        W18227   2.862  11.767  15.606 -0.0778  0.0063  0.0050
 1381W        W18228  13.005   5.974  12.819  0.0992  0.0822 -0.2710
 1382W        W18229   8.699   8.759   3.844  0.2077 -0.2252 -0.0140
 1383W        W18230  16.480   8.322   1.169  0.0141 -0.0602 -0.2718
 1384W        W18231   8.628  15.770  14.180 -0.1093 -0.0637  0.0800
 1385W        W18232   2.325   0.210   5.741 -0.0829 -0.1650 -0.1175
 1386W        W18233   5.768   2.323   1.375 -0.1312 -0.3784  0.1113
 1387W        W18234  10.399   5.079  12.237  0.2917 -0.2997  0.0224
 1388W        W18235   0.281   0.669   3.304  0.2730 -0.0096  0.2291
 1389W        W18236   0.383  16.200  16.011 -0.1560  0.0685 -0.1655
 1390W        W18237   8.550  12.398  10.601  0.0653  0.0241 -0.1951
 1391W        W18238   5.460   4.662   1.083 -0.1200 -0.0193 -0.0373
 1392W        W18239   3.395  13.800  14.244 -0.0954  0.0442 -0.6039
 1393W        W18240   3.423  15.702   2.463 -0.0333 -0.3563  0.1002
 1394W        W18241  10.290   1.701   4.243  0.0288 -0.0668  0.3957
 1395W        W18242  10.946  14.439  14.179  0.0512 -0.3914 -0.0509
 1396W        W18243   3.810   3.378   2.758 -0.4665  0.1359  0.1099
 1397W        W18244   3.455   7.732  12.518 -0.0210  0.1830  0.1387
 1398W        W18245   7.989  13.861   1.298  0.0676  0.2158  0.1499
 1399W        W18246  16.449  16.412   0.357 -0.1812  0.1538  0.0704
 1400W        W18247  16.033   1.668  14.618  0.1325  0.1063  0.2943
 1401W        W18248   1.230  12.053   4.762  0.1249  0.0325  0.3310
 1402W        W18249   7.349   8.323   1.621  0.0521 -0.1605 -0.0634
 1403W        W18250   5.410  10.679  14.856 -0.0191  0.4982 -0.0562
 1404W        W18251   9.156   9.638  12.605  0.0984  0.1227 -0.1386
 1405W        W18252   2.244  15.452  12.162  0.0378  0.3807  0.0697
 1406W        W18253  12.233   1.263   0.037  0.0096 -0.1718  0.1099
 1407W        W18254  15.253   1.979  12.990 -0.0788 -0.1515  0.0506
 1408W        W18255  11.221  13.226   1.021  0.1699 -0.0867  0.1694
 1409W        W18256  12.750  15.717   2.290 -0.1958  0.0104  0.0963
 1410W        W18257  15.899   1.629  11.884 -0.1790  0.0559  0.1566
 1411W        W18258   6.883  13.663   1.349 -0.1414 -0.0647 -0.0642
 1412W        W18259   8.485   5.984   1.726 -0.1640  0.0422 -0.1371
 1413W        W18260   2.338   5.765   0.656  0.3730  0.0868  0.1009
 1414W        W18261  14.214  14.766  15.311  0.1232  0.0672  0.1229
 1415W        W18262  17.043  15.292   1.105 -0.0729  0.0932  0.1231
 1416W        W18263  12.721   9.239   4.426 -0.1931 -0.2005  0.0038
 1417W        W18264  12.804   0.719   5.665  0.0815 -0.0788 -0.3088
 1418W        W18265   2.820  12.761  14.617 -0.2686 -0.0275 -0.0949
 1419W        W18266  15.950  12.019  13.475 -0.1413 -0.1416 -0.0181
 1420W        W18267   9.331  14.689  14.386 -0.2253  0.1410  0.2221
 1421W        W18268   8.897  10.435  16.318  0.0829  0.1490 -0.0844
 1422W        W18269  17.424  17.740  15.123  0.2652  0.1216  0.1196
 1423W        W18270  15.844  12.352   1.444 -0.1407  0.0704 -0.0993
 1424W        W18271   3.274   8.996   4.917  0.2527 -0.1439  0.0587
 1425W        W18272   1.388   7.375   4.387  0.1754 -0.2355  0.0143
 1426W        W18273   3.043   8.898   0.026 -0.2983 -0.0381  0.0444
 1427W        W18274  13.354   0.333   2.004  0.0944  0.0239  0.3118
 1428W        W18275   1.602  12.914   6.047  0.1416 -0.1279  0.0226
 1429W        W18276   9.738  13.993  16.277  0.0087 -0.1476  0.2132
 1430W        W18277  15.758  17.259  15.595  0.2621  0.2036 -0.0485
 1431W        W18278  15.061  13.184   2.858 -0.1321  0.1860 -0.1418
 1432W        W18279   0.191   6.512  15.957 -0.0129 -0.0840 -0.2233
 1433W        W18280  17.365   8.453  11.553 -0.1332 -0.0908 -0.1443
 1434W        W18281   1.937  16.009  14.649 -0.4902 -0.0259  0.0084
 1435W        W18282   3.976   4.871  11.537 -0.2021  0.0345  0.0615
 1436W        W18283   7.050   6.118   1.277  0.1528  0.1347 -0.0841
 1437W        W18284  12.553   0.989  11.414 -0.1013 -0.2332 -0.0945
 1438W        W18285  13.414  16.708  11.085  0.1538 -0.0633 -0.0215
 1439W        W18286   3.479  15.993  13.204  0.0763  0.2918  0.1107
 1440W        W18287   2.496   9.319   4.449  0.0958  0.0972 -0.3379
 1441W        W18288   8.454  14.855   0.907 -0.1524 -0.1574  0.0060
 1442W        W18289   8.384  14.243   4.128  0.2701  0.0638  0.0133
 1443W        W18290   4.014  12.968   0.758 -0.0744 -0.3779  0.0925
 1444W        W18291  13.275   8.815   5.185  0.0095 -0.0737 -0.0973
 1445W        W18292   4.092  14.203  14.882  0.1595 -0.1137  0.0427
 1446W        W18293  14.331   9.768  13.357 -0.2786  0.2560 -0.0652
 1447W        W18294  10.543   7.885  14.437 -0.0646 -0.0110  0.1260
 1448W        W18295  15.594  13.433  15.837 -0.0100  0.2271  0.2784
 1449W        W18296  11.899   2.594   2.269 -0.2687 -0.0883  0.1795
 1450W        W18297   1.315  12.027   5.282 -0.0433  0.1763  0.1624
 1451W        W18298   1.415   3.295  12.208 -0.2059 -0.1447 -0.0653
 1452W        W18299  11.823   2.498   1.679  0.0195  0.0303 -0.0648
 1453W        W18300   9.688  13.445  12.159  0.2363 -0.0892  0.1068
 1454W        W18301   7.390   7.252  13.826 -0.1415 -0.1921 -0.1115
 1455W        W18302  13.816   3.142   1.001  0.0073  0.2761 -0.0418
 1456W        W18303   3.873  14.677  12.345  0.1946 -0.0812 -0.1343
 1457W        W18304  17.760  11.674   3.001 -0.0293 -0.0861 -0.0530
 1458W        W18305   7.854   4.792   2.211  0.3130  0.1075  0.0508
 1459W        W18306  12.530  15.183   3.560  0.3195 -0.2025 -0.1342
 1460W        W18307   6.328   5.436   1.996 -0.1069  0.2728  0.0692
 1461W        W18308  11.955  13.858  12.868  0.1959  0.1882 -0.0909
 1462W        W18309  12.807   1.283   4.747 -0.3187 -0.0391 -0.1431
 1463W        W18310   0.244  14.442   3.919 -0.0655  0.0685  0.1242
 1464W        W18311  14.686   3.246   1.360 -0.0868  0.0554  0.1765
 1465W        W18312  12.968   8.160   2.384  0.1065 -0.0436 -0.1017
 1466W        W18313  10.469   7.242  13.534  0.1034 -0.0427  0.0596
 1467W        W18314   8.794  11.530  14.574  0.0200  0.1071 -0.1321
 1468W        W18315  13.734  16.920  11.404  0.1091 -0.2560 -0.1778
 1469W        W18316   1.666  15.242   2.054  0.0368 -0.0948  0.0050
 1470W        W18317   5.800  12.554  14.184  0.1319  0.1632 -0.0231
 1471W        W18318  16.991   5.556   1.013  0.0413 -0.1248  0.0212
 1472W        W18319   3.102   4.406  15.003 -0.0298 -0.2291 -0.0146
 1473W        W18320  13.027  10.883   1.758  0.0917 -0.2133  0.1609
 1474W        W18321   9.861   5.252   0.832 -0.4212  0.2011  0.0549
 1475W        W18322   6.076   2.064   2.914  0.1753  0.0360 -0.1471
 1476W        W18323  16.656   2.581   5.806  0.2481 -0.3163 -0.1133
 1477W        W18324   8.709  11.088  14.375  0.0305  0.1752 -0.0410
 1478W        W18325   5.547   7.783   0.801  0.2044  0.2295  0.0200
 1479W        W18326  14.666  12.728  15.572  0.2033  0.1724 -0.0155
 1480W        W18327   0.364  11.966   5.413  0.0269 -0.0012 -0.2693
 1481W        W18328   5.464   0.241  12.276 -0.0548  0.0441  0.1776
 1482W        W18329   7.077   1.557   4.072 -0.0225  0.0954  0.0466
 1483W        W18330   8.256  10.351   4.217 -0.0354 -0.3512 -0.0630
 1484W        W18331   1.500   7.942  15.653 -0.1504  0.0394  0.0992
 1485W        W18332   0.987  15.616  12.079  0.1255 -0.0504 -0.4149
 1486W        W18333  11.499   3.243  14.481  0.1022  0.2336  0.0053
 1487W        W18334  10.574   1.250   4.233  0.1887  0.0100  0.0176
 1488W        W18335   9.331   5.152  15.204 -0.1029  0.1054 -0.2318
 1489W        W18336   6.992  12.322  11.972  0.1250 -0.0883 -0.1663
 1490W        W18337   0.465   9.838  14.031  0.1863  0.1093  0.2763
 1491W        W18338   8.180   9.018  11.666  0.1559 -0.3276 -0.2205
 1492W        W18339  15.242   3.785   1.578  0.0669  0.0092 -0.1101
 1493W        W18340  15.847   1.109   5.772  0.0879 -0.1278  0.2347
 1494W        W18341  14.109   1.184  11.822  0.1093  0.1933 -0.1426
 1495W        W18342  10.174   9.920  16.173 -0.0936  0.1410 -0.2567
 1496W        W18343   4.496   5.173   3.591  0.1052 -0.1901 -0.1483
 1497W        W18344   7.375   2.054  16.246 -0.0159  0.0285  0.0087
 1498W        W18345   1.527  16.410   3.417 -0.1211  0.0229  0.2514
 1499W        W18346   2.255   5.103  13.774  0.0000 -0.1844 -0.1885
 1500W        W18347  17.639   4.919   1.405 -0.2632 -0.0496 -0.1014
 1501W        W18348   6.432  15.218  12.601  0.2722  0.0444  0.1193
 1502W        W18349   9.783  17.860  13.199  0.0392  0.0622 -0.0076
 1503W        W18350   9.930   9.072   1.908 -0.2316 -0.0818  0.0710
 1504W        W18351  11.516   7.471  13.160 -0.0580  0.0715 -0.0214
 1505W        W18352   1.598  11.923  13.545  0.3180  0.3368 -0.3864
 1506W        W18353   3.580  11.098  13.526  0.1024  0.3486  0.1282
 1507W        W18354   8.695  12.735   1.537 -0.2242  0.3095 -0.1960
 1508W        W18355  16.477  12.657  13.473  0.0112  0.2857 -0.1725
 1509W        W18356   1.191   6.525   2.077 -0.1263  0.2328  0.0230
 1510W        W18357   4.401   3.474  11.306 -0.1577  0.1145  0.0353
 1511W        W18358   4.506   2.075  13.020 -0.3487  0.1751  0.1713
 1512W        W18359  15.939   8.025   5.476  0.0525  0.1313  0.1174
 1513W        W18360  13.648  16.372  13.309  0.0126  0.1993  0.2494
 1514W        W18361   9.196  15.416   0.050  0.0357  0.1338 -0.2890
 1515W        W18362   8.521   2.947   4.275 -0.0482  0.0968 -0.0038
 1516W        W18363   6.712   7.890   2.169  0.1940 -0.2871  0.1604
 1517W        W18364  11.520   4.345  16.366  0.2794  0.1749 -0.1686
 1518W        W18365  11.223  12.168   4.871 -0.1773  0.0097 -0.2024
 1519W        W18366   5.418  18.021   3.320 -0.0150 -0.0635  0.0959
 1520W        W18367   6.506   8.267  15.772  0.2130 -0.0248 -0.2897
 1521W        W18368   3.739   7.022   0.966  0.2355 -0.0128 -0.0646
 1522W        W18369   4.770   2.831   4.291 -0.0361 -0.0466  0.0745
 1523W        W18370   2.322  13.240   4.927  0.1234  0.0777 -0.0746
 1524W        W18371   6.467   3.601   0.651  0.3335  0.4774 -0.0813
 1525W        W18372  13.093  16.548  11.535  0.1433  0.0003  0.0209
 1526W        W18373  16.718   2.132   0.101  0.0833  0.1447  0.3052
 1527W        W18374  16.453  15.653  13.293  0.0286  0.3709  0.2163
 1528W        W18375   1.759   8.897  10.702 -0.0807  0.2266 -0.1477
 1529W        W18376   3.544  17.655   0.943 -0.1828 -0.0883 -0.0492
 1530W        W18377   4.803  13.589  15.342  0.2081 -0.4483  0.1444
 1531W        W18378  14.873   2.349  16.180 -0.3333  0.0262 -0.4089
 1532W        W18379  12.892  12.125   4.817  0.0995 -0.2362 -0.0239
 1533W        W18380  15.383  12.126   5.311 -0.2348 -0.0455  0.0329
 1534W        W18381   6.566   0.033  11.763 -0.0118 -0.0175 -0.2494
 1535W        W18382   6.193   0.630   5.259  0.1323  0.1542 -0.1277
 1536W        W18383   9.542   4.397   2.886  0.3457  0.0092  0.2941
 1537W        W18384   0.382   2.329   3.063  0.1799  0.2237  0.0000
 1538W        W18385  13.278   0.216  12.612 -0.3168 -0.3383 -0.1682
 1539W        W18386   1.472  12.990   4.810 -0.1550 -0.0110 -0.2096
 1540W        W18387   9.993  17.061   2.797 -0.0747  0.0848 -0.1115
 1541W        W18388  10.416   9.845  15.394  0.0581  0.2062  0.1652
 1542W        W18389  17.606  17.445   5.000 -0.3050  0.1284 -0.1764
 1543W        W18390  14.427   5.798   2.107 -0.3157 -0.1295  0.1260
 1544W        W18391   7.007  17.259   4.622  0.2836  0.0238 -0.1160
 1545W        W18392  12.434  11.505   1.092 -0.2482  0.1160 -0.1425
 1546W        W18393   7.180   8.688  14.665  0.1192  0.1722  0.2994
 1547W        W18394   1.863   6.918  14.179 -0.1335  0.1135 -0.1139
 1548W        W18395  13.904  11.063  13.421 -0.0010 -0.0326  0.0449
 1549W        W18396   7.317   2.683   5.356 -0.0504  0.1033 -0.3405
 1550W        W18397  14.945   7.729  12.308 -0.1788  0.1718 -0.0931
 1551W        W18398   2.351   4.724   0.151 -0.0229 -0.5924  0.1441
 1552W        W18399   3.330   1.480  14.660  0.0728 -0.2845 -0.1049
 1553W        W18400  17.081   6.071   1.168  0.4634 -0.0129  0.0126
 1554W        W18401   8.507  11.700  12.918  0.1407 -0.2275  0.0644
 1555W        W18402  12.111   7.261   1.669 -0.3165 -0.0311  0.0935
 1556W        W18403  14.520  14.641  16.673  0.0885  0.2961  0.2838
 1557W        W18404   2.300   3.316  14.494 -0.0456 -0.0186 -0.2593
 1558W        W18405  16.124  10.204   4.512  0.0588 -0.1438 -0.2789
 1559W        W18406   7.742   1.703  14.155  0.0386 -0.0746 -0.3914
 1560W        W18407  15.806   2.068   0.271 -0.0728  0.1149 -0.1461
 1561W        W18408   1.441   3.030   2.605  0.1005 -0.0624  0.0369
 1562W        W18409   0.473  13.501  14.887 -0.2045  0.2519 -0.2506
 1563W        W18410  14.883   1.327   5.461 -0.0236  0.1509 -0.4099
 1564W        W18411  11.573  13.792   2.797  0.2776 -0.0282 -0.2015
 1565W        W18412  17.593   5.514   3.631  0.0842 -0.4377 -0.3029
 1566W        W18413  15.145  12.223  15.566  0.2703  0.2053 -0.1097
 1567W        W18414  15.433   5.681  13.035 -0.1870  0.0244 -0.1382
 1568W        W18415  10.082   9.109   4.600  0.2428  0.0626  0.2633
 1569W        W18416   2.872   4.213   4.358 -0.3962 -0.1284 -0.2530
 1570W        W18417   5.703  13.185   2.124  0.1519  0.1568 -0.3451
 1571W        W18418  10.976  13.613  15.838 -0.2410  0.1486  0.4584
 1572W        W18419   2.454  10.558   0.263 -0.1913 -0.0952 -0.0185
 1573W        W18420   4.307   7.434  12.070 -0.1711 -0.2084  0.1630
 1574W        W18421  13.995  14.551  16.638 -0.2100  0.1388  0.0554
 1575W        W18422   2.665   9.832   4.638 -0.0732 -0.1548  0.2276
 1576W        W18423  13.599   0.079   0.099 -0.1784 -0.0348 -0.1434
 1577W        W18424   8.871   7.667  14.418 -0.0080  0.2604  0.0464
 1578W        W18425   6.229  17.845  11.514 -0.1218 -0.3640  0.0287
 1579W        W18426  17.621  12.798   3.828 -0.5362  0.1093 -0.0267
 1580W        W18427   4.882   5.721  13.523 -0.1075 -0.1725  0.0393
 1581W        W18428   0.031   3.681   3.927 -0.0332 -0.0289  0.1073
 1582W        W18429   8.788   9.421  16.330  0.1166 -0.1590 -0.0777
 1583W        W18430  13.225   9.217   4.489 -0.0149 -0.1038  0.0454
 1584W        W18431  17.773  14.005   0.535  0.0329  0.0952  0.0473
 1585W        W18432  12.503   8.246   4.815 -0.2065  0.0438  0.0422
 1586W        W18433   2.593  11.001   6.511 -0.1601 -0.0115 -0.1196
 1587W        W18434  14.649   1.685  16.287 -0.1389  0.0823 -0.1703
 1588W        W18435   1.542  15.475  15.739 -0.2602  0.0243  0.1756
 1589W        W18436   2.862   2.484  13.022 -0.0996  0.0411  0.1539
 1590W        W18437  13.592   4.521   5.427 -0.0637 -0.1815 -0.2031
 1591W        W18438  13.842   2.355  14.122 -0.3297 -0.0276  0.0003
 1592W        W18439  16.097   4.989  13.495  0.3812 -0.1246 -0.1232
 1593W        W18440  10.954   8.761  11.590  0.0690  0.0654 -0.3127
 1594W        W18441  13.857   8.083  13.014 -0.2388  0.0883 -0.0183
 1595W        W18442  15.973   4.195  12.578  0.0930 -0.3340  0.2331
 1596W        W18443  17.840  14.843  15.364  0.2305  0.3317  0.1773
 1597W        W18444   4.182   9.026  12.065 -0.0048 -0.1017  0.1620
 1598W        W18445  17.716   0.640   0.941 -0.3192  0.3104  0.0698
 1599W        W18446   5.488  12.741  16.295  0.1971 -0.1170 -0.2643
 1600W        W18447  16.164   3.327   3.346  0.1011  0.0465 -0.5109
 1601W        W18448  12.935   3.223   3.954  0.1646 -0.1544  0.2893
 1602W        W18449   5.474   0.034   2.421 -0.0128 -0.0588  0.0649
 1603W        W18450  12.409   1.425  14.698 -0.2263  0.0343  0.1394
 1604W        W18451  15.362  15.596   2.146  0.1953 -0.1244 -0.0283
 1605W        W18452   3.271  15.120  15.642 -0.3213  0.0196  0.1469
 1606W        W18453  14.242  11.870  16.658 -0.0896 -0.0545 -0.1813
 1607W        W18454  15.494   2.986  13.333 -0.1999  0.1943  0.0312
 1608W        W18455   9.972   3.068  15.328  0.1098  0.2347  0.2281
 1609W        W18456  17.357  15.581  14.191  0.1231  0.0938  0.0430
 1610W        W18457  14.002  17.063   1.738 -0.5049  0.1116  0.1650
 1611W        W18458   5.555  17.869   5.224  0.3448  0.1692  0.1535
 1612W        W18459  15.778   0.097   4.401 -0.0380  0.0910  0.1281
 1613W        W18460   2.986  13.911   3.613 -0.1892 -0.3121  0.3007
 1614W        W18461   9.175   1.188   1.227  0.1657 -0.1166  0.2567
 1615W        W18462   5.566   1.956  13.181  0.1015 -0.0440  0.3134
 1616W        W18463   1.678   0.025  13.885 -0.1389  0.1537 -0.0129
 1617W        W18464   8.912   2.201  16.400  0.0222 -0.1024 -0.1026
 1618W        W18465   7.810   9.659   0.181  0.0097  0.0361  0.0064
 1619W        W18466  16.723   5.960   4.746 -0.3863 -0.0737 -0.0647
 1620W        W18467  11.312  11.377  15.960 -0.2145 -0.1051  0.0418
 1621W        W18468   0.013   7.533   1.925  0.1443  0.0155 -0.0638
 1622W        W18469   4.576  14.152   4.552 -0.2007 -0.0606  0.0734
 1623W        W18470   1.367   5.375   1.417  0.0160  0.0499 -0.0659
 1624W        W18471   1.338  17.642  12.312 -0.1206 -0.0161 -0.0958
 1625W        W18472   2.785  15.654  15.668  0.0859 -0.2778  0.0042
 1626W        W18473  11.154  13.611  16.301  0.2268 -0.0624 -0.1050
 1627W        W18474  13.537   6.746  13.992  0.0403  0.2826 -0.1457
 1628W        W18475   0.925   6.982  16.421  0.0904  0.0950  0.0104
 1629W        W18476  13.379   7.699  14.537 -0.1877 -0.2115 -0.2043
 1630W        W18477   4.499   3.197   0.125 -0.1856 -0.0304  0.1947
 1631W        W18478   4.898   0.203   1.200  0.1189  0.0891  0.1762
 1632W        W18479   2.543   7.771   1.162 -0.0594 -0.1305  0.0727
 1633W        W18480   7.087   7.307   6.275 -0.1713 -0.1785  0.0895
 1634W        W18481  10.405   9.975   0.913 -0.0428  0.0001 -0.0369
 1635W        W18482   7.584   8.412  16.316 -0.2829  0.0830  0.3187
 1636W        W18483  16.200  17.937   4.602 -0.0615  0.2194 -0.3020
 1637W        W18484   2.756   3.528  13.091  0.1575  0.2046 -0.1755
 1638W        W18485   0.436  14.753   3.108 -0.4125 -0.2832 -0.0048
 1639W        W18486   4.690  11.916   4.617 -0.3381  0.0142  0.0906
 1640W        W18487  16.399   0.685  14.583  0.0961 -0.0105 -0.1529
 1641W        W18488   8.749   4.686  11.592  0.0665  0.0818  0.1038
 1642W        W18489  12.251  13.491  14.558  0.1283 -0.2818 -0.0747
 1643W        W18490   2.387  13.929  15.796  0.2915 -0.1716  0.2185
 1644W        W18491  11.346   0.099   0.328  0.2108 -0.5447  0.0174
 1645W        W18492  15.464  13.205   0.408 -0.0336 -0.0233 -0.1751
 1646W        W18493   7.633   0.335   1.753  0.0934  0.2628 -0.1091
 1647W        W18494  10.184  14.144   4.163 -0.0420 -0.1580  0.0588
 1648W        W18495   0.927  11.799   1.911 -0.1595  0.2871  0.4061
 1649W        W18496   6.477   1.025  15.699  0.2557  0.1951  0.1160
 1650W        W18497  13.529  14.169   5.946  0.1275 -0.3729  0.2800
 1651W        W18498  15.113   5.946  15.441  0.1814 -0.1770 -0.0073
 1652W        W18499  12.702   2.516  13.506 -0.0987  0.2483 -0.2952
 1653W        W18500  16.383   8.264   4.018 -0.2543  0.0096  0.1082
 1654W        W18501   3.031   0.477  14.525  0.2842 -0.0137  0.1583
 1655W        W18502   4.022   1.147   1.759 -0.0756  0.2424 -0.1074
 1656W        W18503  14.770   3.789  13.776 -0.0155  0.2448 -0.0453
 1657W        W18504   2.428   1.990   1.787  0.0673  0.2513 -0.1615
 1658W        W18505   5.304   7.998  16.022  0.1042 -0.2922 -0.1095
 1659W        W18506  17.773  12.357  16.425 -0.0107 -0.1328 -0.1095
 1660W        W18507   9.931   2.114   5.557  0.0395  0.0036 -0.0081
 1661W        W18508   7.110   3.090   3.202  0.0962 -0.0111 -0.0399
 1662W        W18509  12.106   5.647   5.088  0.0040 -0.1389  0.0273
 1663W        W18510   3.970  15.356   2.124  0.1554  0.1459  0.0522
 1664W        W18511   6.903   8.889  15.525  0.2471 -0.0409 -0.4570
 1665W        W18512  15.664   9.345   0.772 -0.2791 -0.1803  0.2548
 1666W        W18513   2.136   1.083   4.626  0.2006  0.0392 -0.0274
 1667W        W18514  11.489  11.616   5.511 -0.2381 -0.0682  0.2264
 1668W        W18515  16.207  10.326  12.040  0.0998 -0.0980 -0.1238
 1669W        W18516  15.200  11.024  11.522 -0.0638 -0.1981  0.1939
 1670W        W18517   8.835   2.777   5.873 -0.3185 -0.0683  0.3157
 1671W        W18518   5.168  10.058   2.700 -0.2098  0.3912 -0.1113
 1672W        W18519   8.600  17.128   4.567  0.0335 -0.1550 -0.1284
 1673W        W18520   3.487  11.603   6.160  0.3071 -0.1414 -0.0529
 1674W        W18521   9.319   3.230   2.478  0.2967  0.0784 -0.0021
 1675W        W18522   7.010  16.054   4.001 -0.1872 -0.2429 -0.2087
 1676W        W18523  16.080   7.952   0.845  0.3760 -0.1737 -0.2691
 1677W        W18524  13.886   8.553  12.860 -0.3808 -0.1942 -0.0820
 1678W        W18525   5.681  12.171   6.467 -0.2559 -0.2702  0.1633
 1679W        W18526  16.382   2.220  14.078 -0.1703 -0.1324 -0.2067
 1680W        W18527   8.316  10.279  16.473  0.0639 -0.0741  0.0594
 1681W        W18528   6.073   3.657   5.001 -0.2860  0.3473  0.2104
 1682W        W18529  11.662   3.771  16.462 -0.0850  0.4877  0.1119
 1683W        W18530  11.988   9.777  16.528 -0.1484  0.2656  0.1943
 1684W        W18531  13.828   5.580   0.390  0.2346 -0.0728 -0.1497
 1685W        W18532   0.204   2.785   3.985  0.1974 -0.3110  0.1492
 1686W        W18533  13.834   9.885  12.414  0.1758  0.2513  0.0647
 1687W        W18534  14.857   2.741  11.278 -0.1016 -0.0668 -0.2751
 1688W        W18535   9.970  14.777  15.799  0.2281  0.0055  0.0210
 1689W        W18536   8.475  15.882  11.943 -0.2715  0.0140 -0.1284
 1690W        W18537   0.213  10.835   2.908  0.2701  0.3090 -0.1741
 1691W        W18538   9.247   9.517  14.226 -0.2692 -0.0436 -0.3578
 1692W        W18539  17.780  11.954   0.890 -0.2289  0.0792  0.1798
 1693W        W18540  14.821   4.888   2.956 -0.1649 -0.2489  0.0324
 1694W        W18541   2.257  17.311   5.487 -0.2414 -0.2113 -0.1267
 1695W        W18542   9.027   8.285  13.799 -0.5400 -0.1146  0.0599
 1696W        W18543  11.067  11.155  12.868  0.2242 -0.1926  0.1395
 1697W        W18544  14.727   9.486  13.431  0.3872 -0.0803 -0.0149
 1698W        W18545  13.188  17.988  14.837  0.0941 -0.0694 -0.1064
 1699W        W18546   7.149  15.812  14.303 -0.0920  0.0760  0.0924
 1700W        W18547   8.479  16.477  15.865 -0.0841 -0.3120 -0.1424
 1701W        W18548   2.139  14.173  15.380  0.0625  0.0669 -0.0542
 1702W        W18549  16.865   4.149   1.275 -0.0417 -0.1870  0.0561
 1703W        W18550  12.096   3.271  11.569 -0.1330  0.0956  0.1662
 1704W        W18551   9.148  16.031  15.692 -0.2823  0.2475  0.1169
 1705W        W18552  16.424  10.717  13.166  0.2601 -0.0306 -0.0648
 1706W        W18553   6.408  14.456  12.156  0.3588  0.1822 -0.3281
 1707W        W18554   3.913  12.526   0.597  0.0172  0.1302  0.0561
 1708W        W18555   9.435  17.087   2.931  0.2180 -0.1066 -0.0743
 1709W        W18556   9.337   3.470   4.461  0.0854 -0.2676 -0.2435
 1710W        W18557   5.849   4.961  11.159  0.3548  0.0642 -0.1972
 1711W        W18558  10.870   2.256   0.725  0.0082  0.0391  0.1326
 1712W        W18559  13.389  11.271   3.191  0.2396  0.2519  0.1217
 1713W        W18560  10.606   7.353   2.426  0.3924  0.0898 -0.0847
 1714W        W18561   6.314   5.735   4.241  0.0096 -0.1067 -0.2089
 1715W        W18562  12.650   6.539  12.784 -0.0592 -0.3206  0.0324
 1716W        W18563  15.624  10.718   4.670 -0.1259  0.1783  0.0347
 1717W        W18564  15.227   8.713  14.469  0.2167  0.0547  0.1249
 1718W        W18565   0.344   8.823  13.035  0.2114 -0.0454 -0.0255
 1719W        W18566   0.221  14.262   2.099 -0.1509 -0.0525 -0.3361
 1720W        W18567   3.271  14.634  13.234  0.1202  0.3885  0.0450
 1721W        W18568   0.596  16.341  16.452  0.5868  0.0286  0.1239
 1722W        W18569  10.732   1.273   2.573 -0.0702  0.0562 -0.0233
 1723W        W18570  13.051  10.066   5.018  0.0285 -0.0145  0.2353
 1724W        W18571  11.882   1.333  15.013  0.0574  0.0193  0.0469
 1725W        W18572   6.773   9.042   0.559  0.0053 -0.3495  0.0594
 1726W        W18573   7.309  15.157   1.918 -0.0295  0.1184 -0.2655
 1727W        W18574   6.368   2.289  12.780  0.0581 -0.0511 -0.1542
 1728W        W18575   3.962  12.677   3.991  0.0064  0.2190 -0.0368
 1729W        W18576   8.569  10.156  14.530  0.1377  0.2512  0.2384
 1730W        W18577  13.010  14.975  12.194 -0.2762  0.1725 -0.3507
 1731W        W18578   7.546   7.919   4.586 -0.1018 -0.0814  0.2806
 1732W        W18579   6.626  17.916   3.271 -0.2617 -0.0279  0.1580
 1733W        W18580   3.861  15.069   0.594  0.1311 -0.0059  0.2676
 1734W        W18581  10.547  12.313  12.635  0.0294 -0.0160 -0.1090
 1735W        W18582  10.973  11.305  11.964  0.0723  0.1172 -0.1400
 1736W        W18583   0.112   0.041   4.328  0.1170 -0.1539 -0.0091
 1737W        W18584  13.657   6.284  14.257  0.1731  0.0342 -0.1286
 1738W        W18585  13.951   7.752  13.369 -0.1297 -0.1200  0.2103
 1739W        W18586  12.624  12.960   4.921  0.0248 -0.4140  0.2090
 1740W        W18587   6.035  16.399   5.440  0.1338  0.1071 -0.1099
 1741W        W18588  12.922   8.525   4.729 -0.1482 -0.0737  0.1389
 1742W        W18589  11.238   4.039  13.393 -0.0043 -0.1484  0.2156
 1743W        W18590  15.323  12.731  14.935  0.0358  0.0527  0.0613
 1744W        W18591  13.754   3.441  15.111  0.3322 -0.1342  0.0014
 1745W        W18592   7.844  16.295  13.171 -0.1305  0.2335 -0.0299
 1746W        W18593  14.172   9.853  14.441  0.0792 -0.2133 -0.2376
 1747W        W18594  14.783   0.478  12.980 -0.0101 -0.0330 -0.1453
 1748W        W18595  14.235  12.202   3.330  0.2372 -0.0802 -0.1679
 1749W        W18596  16.956   3.519  14.028  0.0619 -0.1627 -0.0016
 1750W        W18597  17.566  17.308   3.261  0.0559 -0.0493 -0.1816
 1751W        W18598   1.029  16.150   4.785  0.0752  0.0335  0.0305
 1752W        W18599  17.766   2.223  15.646 -0.0330 -0.0855  0.1824
 1753W        W18600  10.105   0.754  15.217 -0.1084 -0.1105 -0.0317
 1754W        W18601   4.431   2.323   1.578 -0.0893  0.1357 -0.0832
 1755W        W18602   3.833   4.979   2.870 -0.1637  0.1547 -0.0687
 1756W        W18603   7.675  11.961  15.427 -0.1175 -0.2593  0.0917
 1757W        W18604   7.809   1.490   0.083 -0.0972  0.0506 -0.2945
 1758W        W18605   7.697   2.618  13.715 -0.2398 -0.1062  0.2516
 1759W        W18606  10.216   5.852  16.480 -0.0289  0.1483 -0.0931
 1760W        W18607  17.809  17.955   4.997  0.0745 -0.0931 -0.0949
 1761W        W18608  17.097   1.685   0.642 -0.1933 -0.2244  0.0917
 1762W        W18609   4.360  15.180   2.433  0.3270 -0.0125 -0.0031
 1763W        W18610  13.276   5.942   0.461 -0.0183 -0.1103 -0.2149
 1764W        W18611   0.773  10.230  16.646 -0.2874  0.0464  0.0677
 1765W        W18612   6.956   8.932  13.370  0.1141  0.1289  0.0701
 1766W        W18613   4.291  17.836  11.656  0.2580  0.0258 -0.1554
 1767W        W18614   3.202   4.583  12.279 -0.2617  0.0151 -0.1701
 1768W        W18615  16.415   1.574  15.380  0.0145 -0.3244 -0.2435
 1769W        W18616  12.442   0.355  16.464 -0.0181 -0.2464  0.0390
 1770W        W18617  14.462  11.435  15.558  0.1284 -0.1811  0.2544
 1771W        W18618   1.218  11.831  14.613  0.1457 -0.2778  0.0009
 1772W        W18619  11.731   7.487  13.893 -0.0205  0.1302 -0.1097
 1773W        W18620   4.529  14.670   4.803 -0.0064  0.1445  0.0061
 1774W        W18621   7.256   1.045  15.223 -0.0758  0.0970 -0.0889
 1775W        W18622   6.613   2.121   1.558 -0.1176 -0.3721  0.1950
 1776W        W18623   9.534  17.802  14.973  0.1763  0.1408 -0.1020
 1777W        W18624   7.780  15.134  15.396  0.3351  0.4467 -0.0714
 1778W        W18625  18.034   0.368   3.910  0.0744 -0.1551 -0.1279
 1779W        W18626   3.494   6.277   5.712  0.1708  0.2745  0.2415
 1780W        W18627   5.091   3.617  15.515  0.1055  0.2685  0.0115
 1781W        W18628  11.547   7.161  12.742  0.1206  0.1855 -0.0023
 1782W        W18629  12.736   8.437  11.951 -0.3133 -0.0365  0.2334
 1783W        W18630   0.038   9.090   2.193  0.1555 -0.1336 -0.2369
 1784W        W18631   5.233   4.832  12.046 -0.0879 -0.2548  0.3106
 1785W        W18632   0.709   9.071  14.655 -0.6474  0.0742 -0.1529
 1786W        W18633   2.428  15.970  14.825 -0.1408  0.1136 -0.1667
 1787W        W18634  17.838  17.310  14.227 -0.1197 -0.2072  0.2741
 1788W        W18635  18.003  14.806   4.691 -0.1967 -0.0269 -0.0713
 1789W        W18636   0.168   8.588  11.248 -0.0101  0.3005 -0.2742
 1790W        W18637  14.987   0.693  14.418 -0.0947  0.1015 -0.2458
 1791W        W18638  11.375   7.060  14.563 -0.0365  0.2254  0.0166
 1792W        W18639   9.236  15.918   5.147 -0.0330 -0.0453 -0.0141
 1793W        W18640   6.176  16.330  15.133 -0.1760 -0.0670 -0.0441
 1794W        W18641   9.017   0.985  15.088 -0.0992  0.1510  0.1991
 1795W        W18642   5.302  16.642   5.898 -0.0504 -0.0118  0.1712
 1796W        W18643  12.304  10.007   5.366  0.1332 -0.0569 -0.0491
 1797W        W18644  10.777  11.693  13.529  0.1280 -0.2085  0.3484
 1798W        W18645   0.235  13.218  16.066  0.1750  0.1624  0.2968
 1799W        W18646   7.709   1.376   4.467  0.0844 -0.0725 -0.2898
 1800W        W18647  17.596  15.993   0.656  0.1187  0.1926 -0.3614
 1801W        W18648   4.554   5.123  14.056  0.1696 -0.1242  0.2157
 1802W        W18649   9.146   6.383   0.305  0.1204 -0.1320 -0.0521
 1803W        W18650   4.120  16.617   5.224  0.2429 -0.0918  0.1580
 1804W        W18651   4.374   3.984  11.149  0.0801 -0.1179  0.0741
 1805W        W18652  16.191   3.598   1.685  0.0202 -0.1033  0.2578
 1806W        W18653   9.021   2.007  12.521 -0.0213 -0.2037 -0.0042
 1807W        W18654  12.900  15.871  11.659  0.0531  0.1461  0.1188
 1808W        W18655   5.468  16.925  15.840  0.0409 -0.1296 -0.0995
 1809W        W18656   7.402  17.107  12.860  0.0188  0.1135  0.0010
 1810W        W18657  13.448   5.270   3.757 -0.1530  0.1106 -0.0696
 1811W        W18658  12.713   0.004   0.041 -0.1567  0.1393  0.0524
 1812W        W18659   0.612   1.863  13.513 -0.0189 -0.0018  0.0019
 1813W        W18660  16.173   4.621   0.871 -0.0603 -0.1771 -0.4159
 1814W        W18661  10.360  12.194  11.825  0.1232 -0.0956  0.0938
 1815W        W18662  14.724  15.140   4.186 -0.2090  0.1618  0.0943
 1816W        W18663  15.979   2.938   3.053  0.4356  0.2869 -0.0866
 1817W        W18664   2.544   6.938   4.645 -0.2106 -0.2569 -0.1923
 1818W        W18665  16.148  16.393   1.884  0.1122 -0.1111  0.1196
 1819W        W18666   0.898   9.153   0.932  0.1952  0.1700  0.0345
 1820W        W18667   8.456   8.140  16.339 -0.1728  0.0395  0.1685
 1821W        W18668  13.081   1.975  12.907  0.0598  0.0425  0.0545
 1822W        W18669  10.101  16.156  14.914 -0.1865  0.1740 -0.2292
 1823W        W18670  15.354   0.256   4.136 -0.0135 -0.2362  0.0336
 1824W        W18671  10.303   6.755  11.565 -0.1457 -0.5815  0.0817
 1825W        W18672   1.588  11.072  16.670  0.4641 -0.0269 -0.1853
 1826W        W18673  11.117   4.809   4.149 -0.1953  0.1720 -0.0562
 1827W        W18674   9.143   1.480   0.307  0.0530 -0.3748 -0.1168
 1828W        W18675  14.424  17.531  11.013 -0.0878  0.1868  0.2288
 1829W        W18676   8.627  14.998   0.442 -0.2761 -0.0185  0.0144
 1830W        W18677   0.556   8.672  16.404  0.0192  0.0301 -0.3279
 1831W        W18678   1.856  18.057   2.538  0.1571 -0.2188 -0.1036
 1832W        W18679   3.568   7.492  14.121  0.0407 -0.0454  0.0432
 1833W        W18680   2.300  10.998  12.893 -0.0664 -0.1314 -0.0404
 1834W        W18681   3.961   0.558   0.209 -0.0081  0.0072  0.2512
 1835W        W18682  16.576  13.403   1.359  0.1681 -0.2126  0.1257
 1836W        W18683   5.549  10.975  11.763  0.3229  0.1679 -0.0171
 1837W        W18684   5.674   6.234  13.647  0.3593  0.1239 -0.0731
 1838W        W18685  11.696  17.038   1.982  0.1244 -0.2907 -0.0769
 1839W        W18686   9.865   0.693   4.097  0.1083  0.2281  0.0718
 1840W        W18687  11.138   5.584   5.503  0.2089  0.0948 -0.1337
 1841W        W18688  11.965   1.231  13.093  0.1529 -0.2182  0.1662
 1842W        W18689   1.792   6.505   3.482  0.0164 -0.2791  0.0639
 1843W        W18690   6.209  16.873   3.930  0.1470  0.1794 -0.2246
 1844W        W18691  12.144  14.360  13.999  0.0619  0.1739  0.2231
 1845W        W18692  14.610  17.399   1.085  0.1527  0.0307  0.4508
 1846W        W18693   9.094   3.406  15.564 -0.2144  0.0610 -0.2720
 1847W        W18694  14.232  10.897  15.429  0.1696 -0.0690  0.2841
 1848W        W18695  14.384  14.723  13.747  0.2118  0.1343  0.1883
 1849W        W18696  16.182   9.787  14.200  0.1437 -0.1818  0.0024
 1850W        W18697  10.275  16.959   1.284 -0.0689  0.0282  0.4030
 1851W        W18698   2.127  17.174   2.980 -0.1210 -0.2638 -0.2643
 1852W        W18699   9.229   2.758   5.387 -0.0806  0.1778 -0.1926
 1853W        W18700  10.272  11.659   5.190 -0.2193 -0.1995 -0.0821
 1854W        W18701   4.241  17.742  12.778 -0.1877  0.0400 -0.0049
 1855W        W18702   3.283  14.750  15.297  0.0315  0.2331  0.1899
 1856W        W18703   5.536  13.360   1.692  0.3179 -0.2190 -0.0519
 1857W        W18704  15.704   4.782  14.223  0.1219  0.0073  0.1885
 1858W        W18705   0.831   8.910   0.494 -0.0713  0.2274 -0.1658
 1859W        W18706  12.419   4.693  15.102 -0.0122  0.1854 -0.2262
 1860W        W18707  16.342   1.175   4.324  0.0043 -0.0068  0.1378
 1861W        W18708  11.937  15.807   4.586  0.0407  0.5614 -0.0514
 1862W        W18709   6.475  16.319  16.275  0.2665 -0.1564  0.0330
 1863W        W18710  14.958   6.593   5.884  0.1120  0.0153 -0.1264
 1864W        W18711   0.344   5.361  13.522 -0.0295 -0.2717  0.2639
 1865W        W18712   8.592   5.675   5.592  0.1544  0.0331 -0.0830
 1866W        W18713  13.728   1.401  13.358 -0.3555 -0.0720 -0.0498
 1867W        W18714   7.997   7.017  15.477  0.1195 -0.2131 -0.1904
 1868W        W18715  12.958   7.787   4.149  0.0907  0.1760 -0.2190
 1869W        W18716  12.934   7.517   4.585 -0.0231 -0.1774 -0.1479
 1870W        W18717   9.212  10.964  13.932 -0.0554 -0.0169 -0.3164
 1871W        W18718  10.931   2.551   1.299  0.0845  0.0510  0.2617
 1872W        W18719  10.074   3.480   1.806  0.1209  0.1681 -0.1356
 1873W        W18720  16.445   1.602   4.731  0.0952 -0.3092  0.2871
 1874W        W18721   5.078   9.602   3.144  0.1031  0.1523 -0.1388
 1875W        W18722   2.199  17.169   4.340  0.1287 -0.1029 -0.2417
 1876W        W18723   1.026   4.666   3.666  0.0986 -0.3458 -0.0736
 1877W        W18724  16.891  10.536  15.717 -0.2568  0.0363  0.2012
 1878W        W18725   7.954  10.071   2.251  0.2057  0.2186 -0.0966
 1879W        W18726   2.282   7.669   5.243 -0.2346 -0.0517 -0.1881
 1880W        W18727   4.047   8.680  15.508  0.1048 -0.0245 -0.0830
 1881W        W18728   5.819   5.807   1.607 -0.2837  0.1267 -0.2052
 1882W        W18729  17.390   7.922  15.738 -0.0429 -0.0369  0.0696
 1883W        W18730   3.994  11.398   2.808 -0.1894 -0.1046  0.1329
 1884W        W18731  13.413  15.855  14.546  0.1096  0.1364 -0.3444
 1885W        W18732  10.725  16.864   1.073  0.1660  0.2177  0.4678
 1886W        W18733  15.812  16.983   5.162 -0.1702  0.0427  0.1205
 1887W        W18734  14.112  12.845   3.542  0.3056  0.0616 -0.1133
 1888W        W18735   0.601   0.480  14.018  0.0459 -0.3201  0.1211
 1889W        W18736  13.998  17.191   3.798  0.1717 -0.1397 -0.0535
 1890W        W18737   9.509   5.605  16.074 -0.1383 -0.0170  0.0415
 1891W        W18738  10.863  11.925  12.707 -0.0091 -0.1130 -0.3500
 1892W        W18739  16.200  14.983   4.806 -0.0110 -0.0739 -0.2021
 1893W        W18740   4.820   6.021   1.569  0.0506 -0.0910  0.2389
 1894W        W18741  10.484  17.426   2.041 -0.4038 -0.1075 -0.0994
 1895W        W18742   5.557   9.602   1.798 -0.0231 -0.0541  0.1153
 1896W        W18743   2.466  10.608   1.298 -0.1109 -0.0038 -0.1601
 1897W        W18744   4.851  17.822   1.554  0.1271 -0.0128  0.1243
 1898W        W18745  17.106   6.256  12.948  0.1742  0.0424  0.0397
 1899W        W18746   4.688   6.637   1.022 -0.2569 -0.1341 -0.0542
 1900W        W18747  11.894  16.103   5.029 -0.1819 -0.1244 -0.3755
 1901W        W18748  16.875   1.333  15.314 -0.0342 -0.1982  0.0149
 1902W        W18749   9.026   2.144   1.224 -0.3086  0.0835  0.2171
 1903W        W18750   3.480   5.174  15.624 -0.2969  0.2164 -0.0009
 1904W        W18751   4.837  11.430   2.826  0.1214 -0.0570 -0.0688
 1905W        W18752   6.780   6.651   3.447 -0.0966  0.0576 -0.0535
 1906W        W18753   8.055   1.219  11.829  0.2265 -0.2499  0.0026
 1907W        W18754  12.997  14.751   5.002  0.0492  0.0703  0.0781
 1908W        W18755  12.843   5.448   1.820  0.2596  0.0532 -0.0691
 1909W        W18756   6.731   3.286  14.954 -0.1403 -0.1143 -0.1553
 1910W        W18757   5.431   9.189  15.312  0.1892  0.0676 -0.1527
 1911W        W18758  11.273  11.619  12.725  0.1358  0.1017  0.0066
 1912W        W18759  12.074   1.274   3.296  0.4409  0.1534 -0.0921
 1913W        W18760  11.093  16.648  14.785  0.1319 -0.6015 -0.3622
 1914W        W18761  17.916  11.862  12.701  0.1775  0.2081  0.0553
 1915W        W18762  11.944   2.252   4.612 -0.1247  0.2013 -0.3081
 1916W        W18763  12.820  14.058   4.146  0.0204  0.1650 -0.1965
 1917W        W18764  17.943  12.063   2.762  0.0509  0.0352  0.0596
 1918W        W18765   3.325  17.424  14.386  0.1118 -0.1677  0.3574
 1919W        W18766   3.211  16.797  12.419  0.2095  0.0413  0.4307
 1920W        W18767   2.592   6.055   5.695  0.0055  0.0760  0.1206
 1921W        W18768  15.284   9.349   2.898  0.0355  0.2266  0.3473
 1922W        W18769   9.570   2.429  14.823  0.2294  0.0480  0.1707
 1923W        W18770   6.354  14.978  16.276 -0.0151  0.0085  0.0437
 1924W        W18771  16.714   7.967  12.918  0.0377  0.0435 -0.1849
 1925W        W18772  17.931   0.635  12.485 -0.4625 -0.3322  0.1456
 1926W        W18773   3.721  15.894  15.829  0.2506 -0.2290  0.1417
 1927W        W18774   2.199   6.642   4.369 -0.3964  0.2640 -0.1411
 1928W        W18775  11.042   0.290  12.809 -0.1737 -0.2206  0.1095
 1929W        W18776  10.744  14.160   4.500 -0.0624  0.3967 -0.2090
 1930W        W18777   9.269   5.030  13.254  0.1047  0.1267  0.1631
 1931W        W18778   7.682   9.396   4.738 -0.2657 -0.0576 -0.0541
 1932W        W18779   5.557  13.912   2.517 -0.3513 -0.1847 -0.0000
 1933W        W18780   9.833   1.189  15.396 -0.2908  0.1533 -0.0831
 1934W        W18781   3.032  13.627  14.658  0.0688  0.0144  0.4295
 1935W        W18782   2.059   7.429  12.165 -0.1516 -0.0744  0.0158
 1936W        W18783   0.204   3.873   0.781 -0.2736 -0.1925  0.0465
 1937W        W18784  15.811  14.934   0.174 -0.2258 -0.0881 -0.2727
 1938W        W18785   3.053   5.831   0.236 -0.3266  0.0327  0.1525
 1939W        W18786  11.483  17.437  13.665 -0.2989  0.3402  0.2348
 1940W        W18787   5.808   2.292  15.083 -0.1567  0.3422 -0.0073
 1941W        W18788   2.373  16.408  12.211 -0.0083  0.0058 -0.2073
 1942W        W18789   6.833   6.898  14.297 -0.0061 -0.4245  0.0178
 1943W        W18790   8.975   5.503   2.312  0.0380 -0.0905  0.3818
 1944W        W18791  15.642  16.158  11.724  0.1444  0.0917  0.0457
 1945W        W18792  14.964  12.714   1.903  0.0261 -0.2772  0.1962
 1946W        W18793  17.006  12.578   0.330  0.0924  0.1531 -0.2569
 1947W        W18794   6.760   6.054   0.492 -0.0050 -0.0544  0.1731
 1948W        W18795   5.453   5.205   3.474 -0.3340 -0.0200 -0.1303
 1949W        W18796  13.794   2.305   1.069 -0.1560  0.0805 -0.2479
 1950W        W18797   7.658   1.872   5.660  0.0684 -0.1125 -0.0738
 1951W        W18798   7.219  17.614  16.055  0.0151  0.3292  0.3813
 1952W        W18799  10.981   0.129  13.321 -0.1169 -0.3205  0.2382
 1953W        W18800  10.002   1.680  15.041 -0.3019  0.1620  0.1696
 1954W        W18801   1.375   5.893   4.348  0.3332 -0.0731  0.0595
 1955W        W18802   3.602   2.641  15.655 -0.0741 -0.2109  0.1149
 1956W        W18803  14.131  11.354   0.076  0.3576  0.0060 -0.3304
 1957W        W18804   2.392  15.160   0.988 -0.1181  0.1884  0.2001
 1958W        W18805   3.068  12.777  15.098  0.0057  0.2155  0.2259
 1959W        W18806  15.739   2.633   4.514  0.3655 -0.1526  0.2238
 1960W        W18807  12.851  14.266  14.977 -0.1085  0.0057  0.2054
 1961W        W18808  16.261   5.501  14.257  0.1894  0.0930 -0.1190
 1962W        W18809  11.222  16.669   5.071  0.3343 -0.0687 -0.0918
 1963W        W18810   9.784  13.323   2.960 -0.0609  0.2994  0.5955
 1964W        W18811   1.846   5.012  15.774 -0.2479 -0.2551 -0.0190
 1965W        W18812  13.965  13.925   0.884  0.1998  0.2731  0.2227
 1966W        W18813  16.725  10.596   0.153  0.3339 -0.0198  0.0827
 1967W        W18814   4.331  12.747   1.399  0.0760  0.0284  0.1397
 1968W        W18815  10.413   3.927   2.225 -0.1580  0.2616 -0.3018
 1969W        W18816  12.059  12.286  13.655 -0.1114 -0.1974  0.3841
 1970W        W18817   1.156   3.435   0.282 -0.0300 -0.0602 -0.1872
 1971W        W18818  15.676  10.020  12.782  0.1477  0.0085 -0.2188
 1972W        W18819  17.830   0.509  14.245  0.1380 -0.1159 -0.1906
 1973W        W18820   8.678  13.159  13.138 -0.0517  0.1519 -0.0697
 1974W        W18821  15.416  11.754   1.835  0.0382  0.2102  0.0438
 1975W        W18822  13.906  13.776  13.841 -0.1218 -0.1170  0.1830
 1976W        W18823   1.991   2.099  12.933 -0.1291  0.1101 -0.2380
 1977W        W18824   7.697   7.526   4.023  0.0346 -0.0241  0.1363
 1978W        W18825  17.630   1.410  14.124 -0.2472 -0.4998  0.2527
 1979W        W18826  17.157   2.868  16.558 -0.4615 -0.1047 -0.0239
 1980W        W18827  15.339  12.623   2.235 -0.0732  0.0647  0.4205
 1981W        W18828   1.243   4.301  16.007 -0.2160 -0.2051 -0.1323
 1982W        W18829   9.534  17.269  11.986 -0.0085 -0.1347 -0.1159
 1983W        W18830  10.532   1.015   4.749 -0.2590 -0.0626 -0.2352
 1984W        W18831   0.244   3.365   0.705 -0.2043 -0.2456 -0.0913
 1985W        W18832  13.538  13.096   1.560 -0.3848  0.0508 -0.1644
 1986W        W18833   2.448   2.885  14.748  0.3382  0.1231 -0.0205
 1987W        W18834   5.488  17.837  14.472  0.0220 -0.2482  0.0174
 1988W        W18835   6.286   8.064  15.334  0.1093  0.1716 -0.1346
 1989W        W18836  17.566   3.531   0.311 -0.0487  0.2950 -0.1146
 1990W        W18837   1.310   3.356   4.338  0.0213  0.3407 -0.1380
 1991W        W18838  17.835   4.973  16.410 -0.2514  0.0845 -0.0241
 1992W        W18839  16.064   2.337   1.976  0.1052  0.0157 -0.2152
 1993W        W18840   0.764   7.275  12.261 -0.2662 -0.0303 -0.1917
 1994W        W18841   7.287   3.446  15.104  0.1529  0.1512  0.1826
 1995W        W18842   8.244   5.708  11.502  0.1180  0.0310 -0.0965
 1996W        W18843   1.992   4.960  13.388 -0.2480 -0.0536  0.3547
 1997W        W18844  12.191   5.140   4.235  0.1179  0.0520  0.0312
 1998W        W18845   9.586   0.138   3.288 -0.3597  0.4187  0.2656
 1999W        W18846   6.281  15.459  14.665  0.0090 -0.0432 -0.0352
 2000W        W18847   3.471   0.615  11.394 -0.1439  0.1988  0.1400
 2001W        W18848  14.847  13.312  15.362  0.4620  0.0779 -0.1249
 2002W        W18849   7.430   8.856   5.494  0.0365 -0.1100  0.0775
 2003W        W18850   2.318   0.177  14.669 -0.0361 -0.0497 -0.0496
 2004W        W18851   2.982   9.175  14.957 -0.1047  0.0959 -0.1073
 2005W        W18852   9.306  16.855   5.155  0.0700  0.1598  0.1564
 2006W        W18853  14.349  17.705  16.082 -0.1347 -0.1639  0.3116
 2007W        W18854  13.613   7.491   2.559  0.3337  0.2343 -0.0948
 2008W        W18855  12.951  14.814   3.537  0.1576 -0.1643 -0.0113
 2009W        W18856  13.223   7.534   0.531 -0.1891  0.3622 -0.2012
 2010W        W18857   9.886   9.972   1.581  0.3806 -0.0500  0.0681
 2011W        W18858  12.694  17.746  11.942  0.0842 -0.0187 -0.0341
 2012W        W18859   0.422  17.499  12.288 -0.4559  0.0195  0.1769
 2013W        W18860  13.909   6.429   1.905 -0.0303 -0.1600  0.3012
 2014W        W18861   5.594   3.456   0.499  0.1436  0.0760 -0.3857
 2015W        W18862  11.270   4.587  14.182  0.0213 -0.3207  0.2622
 2016W        W18863   3.561   8.740   0.738  0.1566 -0.0245 -0.0793
 2017W        W18864  14.462   0.930  12.957 -0.0652  0.3404 -0.0507
 2018W        W18865  15.964  13.331  11.407 -0.1424  0.2083 -0.0256
 2019W        W18866   9.247   3.040  11.931  0.1086  0.1080 -0.1200
 2020W        W18867   9.029   7.917  14.803 -0.1656 -0.1769 -0.2052
 2021W        W18868  11.202   6.445   1.298  0.1305  0.1029 -0.1982
 2022W        W18869   1.355   0.366   1.398  0.0339 -0.0481  0.0039
 2023W        W18870  17.147   5.328   2.296 -0.0930 -0.0809  0.3006
 2024W        W18871  16.768   6.235   2.381  0.0197  0.0666 -0.1190
 2025W        W18872  13.346   7.929  15.210  0.2695 -0.0070 -0.0670
 2026W        W18873   6.599   1.189   1.492 -0.0332 -0.0601 -0.1511
 2027W        W18874   5.411   1.111   2.856  0.0660  0.0769  0.0700
 2028W        W18875  12.500   2.744   5.660 -0.2412 -0.0890  0.1631
 2029W        W18876  15.137  10.080  15.136 -0.1024 -0.1880  0.2566
 2030W        W18877   8.137   9.351   6.395 -0.0954  0.1827 -0.1308
 2031W        W18878   9.947  17.610   3.626  0.1331 -0.2600 -0.4518
 2032W        W18879   3.103  17.489  16.489 -0.0806 -0.0365  0.2539
 2033W        W18880   8.852  17.330   4.124 -0.1129  0.0786  0.1682
 2034W        W18881   5.166   1.265   3.823  0.4012 -0.0774  0.2129
 2035W        W18882   7.491  16.636  13.131  0.1741 -0.1369  0.0025
 2036W        W18883   6.419   4.284  16.443  0.4656 -0.3001 -0.0520
 2037W        W18884   5.376  17.478   4.952  0.0453  0.3009  0.0766
 2038W        W18885  17.369  10.395   3.976  0.3988 -0.0049  0.1317
 2039W        W18886  15.037   3.250  14.779  0.0423  0.3167  0.1097
 2040W        W18887  13.505   9.211   0.893 -0.2453 -0.1325  0.0403
 2041W        W18888   9.814  11.028  12.946  0.0105  0.1679  0.0795
 2042W        W18889  12.940   8.181  15.780  0.3135 -0.1439  0.0256
 2043W        W18890   2.364  14.276  14.936 -0.0858  0.0249 -0.1968
 2044W        W18891   8.130  11.713  16.643  0.1532 -0.0886 -0.0107
 2045W        W18892   2.219   3.355   1.511 -0.0232  0.1896 -0.1558
 2046W        W18893  16.043   0.205   3.352  0.3243  0.1727  0.0090
 2047W        W18894  12.972   7.233  14.003  0.0463 -0.1827 -0.0033
 2048W        W18895   2.334   4.918   5.722 -0.1892  0.0459 -0.3743
 2049W        W18896  15.852  15.228   1.309  0.0479 -0.0058  0.0334
 2050W        W18897  12.719  16.214   0.582 -0.0757 -0.3344  0.3240
 2051W        W18898  10.387  14.236   3.679 -0.1005 -0.0311 -0.0456
 2052W        W18899  14.720  16.427   3.716  0.1063  0.2355 -0.0841
 2053W        W18900   6.161   9.738   0.655  0.3284 -0.2386  0.0171
 2054W        W18901   6.847   7.633   2.951 -0.1221  0.1023  0.1183
 2055W        W18902  15.367   4.512  12.614 -0.2196  0.3601 -0.1117
 2056W        W18903  17.620  16.376  15.566 -0.0658 -0.2331 -0.1181
 2057W        W18904  14.046   9.432   3.491 -0.0862  0.0620 -0.2360
 2058W        W18905   0.838   6.137   3.015 -0.0628 -0.2275 -0.1185
 2059W        W18906   3.409   0.825  12.300 -0.0684  0.1510 -0.3772
 2060W        W18907   8.147  12.019   3.382 -0.0024 -0.0407  0.0572
 2061W        W18908  14.513   2.566  16.604 -0.1629  0.4386 -0.0115
 2062W        W18909   1.404  10.250  16.108 -0.2520 -0.2043  0.1885
 2063W        W18910   5.967   8.332   1.572  0.0359  0.1478 -0.0390
 2064W        W18911   3.823   1.625   4.242 -0.2491 -0.0808  0.2701
 2065W        W18912   2.962  10.402   2.242 -0.3688  0.0233 -0.2085
 2066W        W18913  15.789   5.879  11.669  0.0830  0.1284 -0.3493
 2067W        W18914   4.958   8.957   4.672  0.1641  0.0356 -0.0778
 2068W        W18915   4.401  12.569  13.606  0.0387 -0.2155  0.3694
 2069W        W18916  17.083   4.950   0.795  0.0477  0.1046  0.1213
 2070W        W18917  12.864  10.535   3.285  0.0189  0.1785  0.2359
 2071W        W18918  17.218   8.942   0.669  0.1252 -0.4073  0.0432
 2072W        W18919  17.625  11.445   1.075 -0.4438 -0.3436 -0.0211
 2073W        W18920   3.608  17.905   5.222 -0.2205 -0.3804 -0.0003
 2074W        W18921  12.387   1.955   0.413 -0.0836 -0.0796 -0.0717
 2075W        W18922  14.198   5.012   2.469 -0.0220 -0.1977 -0.0041
 2076W        W18923  11.121  14.349  12.207 -0.0755 -0.0789  0.2540
 2077W        W18924   3.603  15.490   0.392  0.0673  0.1177 -0.1238
 2078W        W18925  10.317   6.610   2.682 -0.1920  0.1302  0.0296
 2079W        W18926   2.535  14.947  15.302 -0.2665  0.0832  0.0416
 2080W        W18927   8.472  10.693  16.219  0.0584  0.0435 -0.0668
 2081W        W18928  12.139   3.669  12.368  0.1619  0.0279  0.2170
 2082W        W18929  16.645  12.223   0.282  0.1279 -0.0222  0.1473
 2083W        W18930   6.947   8.959   3.544  0.0724 -0.0905  0.1722
 2084W        W18931   9.418   1.028   0.448  0.3006 -0.0574  0.0313
 2085W        W18932  11.358  14.408  13.883  0.0257  0.1368  0.1994
 2086W        W18933  11.594  11.041  14.221  0.0595 -0.3216 -0.0267
 2087W        W18934   2.481  15.957   4.769 -0.1193 -0.0685  0.0676
 2088W        W18935   1.421   8.833   4.770 -0.0133  0.1610  0.1499
 2089W        W18936  10.753  16.765  13.245 -0.2359 -0.1439 -0.0009
 2090W        W18937  10.229   0.487  12.004  0.0004  0.0143 -0.2289
 2091W        W18938   5.269   2.989  12.370 -0.0471  0.0919 -0.0318
 2092W        W18939  15.844   1.014  11.168 -0.2737  0.1744 -0.2613
 2093W        W18940   6.943  17.490   2.615  0.1527 -0.0085  0.0666
 2094W        W18941   7.337   6.693   0.027  0.0129 -0.0497  0.2257
 2095W        W18942   5.571  12.301   2.253  0.1929 -0.0047  0.1212
 2096W        W18943  16.456   4.339  14.511 -0.2315  0.2206 -0.1608
 2097W        W18944  17.508   5.293   1.146  0.0560 -0.2843  0.1749
 2098W        W18945  12.044   9.327   4.133  0.0613  0.3345  0.0258
 2099W        W18946  15.598  10.148   3.025  0.0266  0.0179 -0.1742
 2100W        W18947   2.388   4.855  15.100 -0.3875  0.1987  0.0481
 2101W        W18948  13.721   9.069  13.982 -0.1662  0.3820 -0.0141
 2102W        W18949  17.737   8.179   4.810 -0.1022 -0.1730 -0.0771
 2103W        W18950   5.563  12.632  12.548 -0.2122 -0.2514 -0.0583
 2104W        W18951   4.902  13.902   3.751 -0.2593  0.1042 -0.0089
 2105W        W18952   2.511  11.337   1.782  0.2622  0.0364  0.1383
 2106W        W18953  15.601  15.099   2.710  0.2722 -0.1135  0.2193
 2107W        W18954  17.332   4.424   5.584  0.0927 -0.0759 -0.1751
 2108W        W18955   9.668   9.018  14.296 -0.0756  0.1941  0.1244
 2109W        W18956   2.674   8.556  14.905 -0.0513 -0.0368 -0.2170
 2110W        W18957   8.426  10.263   5.166  0.0393  0.1211  0.2774
 2111W        W18958  13.267   9.730  15.921  0.3393 -0.2098  0.2295
 2112W        W18959   6.450  10.085   4.075 -0.0332 -0.3809  0.2573
 2113W        W18960   8.831  16.107   4.781  0.0827 -0.1985 -0.0947
 2114W        W18961  12.571   9.640  12.655  0.0014  0.3415 -0.0550
 2115W        W18962  13.687   5.000   0.661 -0.1355  0.1284 -0.2794
 2116W        W18963  13.334  11.064  15.083  0.3189 -0.0847  0.4610
 2117W        W18964   2.861   4.340   3.717 -0.2405 -0.3071  0.0969
 2118W        W18965   4.373  11.471   3.744  0.0617 -0.0472  0.1330
 2119W        W18966  17.887  11.502  13.625 -0.2628 -0.1343 -0.0788
 2120W        W18967  13.696  10.973   5.449  0.0449  0.0921  0.3985
 2121W        W18968  14.875   3.190  15.826 -0.1383  0.0640 -0.0636
 2122W        W18969  16.120  12.043  15.953  0.3386 -0.1761 -0.3909
 2123W        W18970  17.628   7.747   1.845 -0.0008  0.2784 -0.1416
 2124W        W18971   6.840  12.484  16.369  0.2402  0.2203 -0.0259
 2125W        W18972  16.097  12.872   0.330  0.1226  0.0610  0.1628
 2126W        W18973   2.249   0.340   4.964 -0.2681 -0.0599  0.3530
 2127W        W18974  10.947  15.995   4.723 -0.2448 -0.2575  0.2149
 2128W        W18975   8.373  16.096  16.171  0.1664 -0.1902  0.1063
 2129W        W18976  10.599   1.913   0.477 -0.2362  0.1827  0.1166
 2130W        W18977   9.447   9.128   3.941  0.2960 -0.0279  0.1748
 2131W        W18978  15.834  16.149  16.102 -0.2724  0.3173  0.1327
 2132W        W18979   7.951  14.049  14.843 -0.3333  0.3645 -0.0071
 2133W        W18980   4.973   6.123   0.152  0.1498  0.2626  0.1333
 2134W        W18981   2.234   6.577   3.537 -0.5269  0.3116 -0.0482
 2135W        W18982   2.641  16.768  14.641 -0.0668 -0.1019  0.2640
 2136W        W18983  12.275  10.264  16.383  0.1945  0.0162  0.0185
 2137W        W18984  11.547  10.115  12.739 -0.2069 -0.0246  0.0809
 2138W        W18985  12.309   0.693   2.002  0.1705  0.3352 -0.0752
 2139W        W18986   3.700  14.204   0.153  0.2118  0.2053 -0.0493
 2140W        W18987  16.726  11.878   3.248  0.1478  0.2128 -0.1095
 2141W        W18988  13.777  12.848  16.241 -0.0828 -0.0792  0.0283
 2142W        W18989  10.065  18.069   2.742 -0.3561  0.1315  0.0460
 2143W        W18990   8.922   6.307  13.220 -0.0050 -0.0949 -0.0379
 2144W        W18991   9.421  15.689  15.470 -0.2124 -0.0667 -0.2666
 2145W        W18992  16.365  10.229  14.413  0.1775 -0.0620  0.0298
 2146W        W18993   3.307   1.972   2.076 -0.1029  0.0388 -0.3813
 2147W        W18994  14.707  10.662   0.851 -0.1691  0.2108  0.4675
 2148W        W18995  11.493  14.515   4.162  0.0062  0.1701  0.3235
 2149W        W18996   4.267   6.830  14.314 -0.0631 -0.0334 -0.0190
 2150W        W18997   4.864  13.816  13.631 -0.4320 -0.0502  0.0019
 2151W        W18998   0.425   1.536  11.604 -0.0148 -0.1229 -0.2569
 2152W        W18999  14.499  15.955   0.512 -0.0462 -0.0183  0.2220
 2153W        W19000  12.437   7.408   4.270 -0.2397  0.0705 -0.1159
 2154W        W19001  15.005  15.507  13.957  0.4450 -0.2844  0.0376
 2155W        W19002  16.764   1.137   0.775 -0.4547 -0.2570 -0.1573
 2156W        W19003   3.349   4.825  15.327 -0.0228  0.2353  0.0624
 2157W        W19004   8.315  11.953  10.811 -0.0771 -0.1154 -0.1664
 2158W        W19005  15.831   5.402  13.178 -0.1198 -0.0151  0.0968
 2159W        W19006   4.002   0.304   2.427 -0.0371  0.2138 -0.0750
 2160W        W19007  11.675   6.773   4.161  0.1095 -0.0111 -0.0402
 2161W        W19008  11.788   6.262   3.413  0.1627 -0.2702 -0.3119
 2162W        W19009   1.895   9.997   5.233 -0.1183  0.0619  0.1223
 2163W        W19010  13.892  17.032  11.888  0.2923 -0.0827 -0.4489
 2164W        W19011   9.415  14.418   4.305  0.0564 -0.0742 -0.1221
 2165W        W19012  17.521  14.904   4.541 -0.0051 -0.3355  0.1593
 2166W        W19013   5.490   6.698  15.647  0.2356  0.1047 -0.2035
 2167W        W19014  15.566   6.938   2.904  0.0857  0.1498 -0.0409
 2168W        W19015  17.267  10.562   0.077  0.0430  0.3165 -0.0281
 2169W        W19016   7.259   9.031   4.495 -0.1355 -0.2318 -0.0065
 2170W        W19017   7.482   5.171  11.986  0.0808  0.0567 -0.0335
 2171W        W19018   9.933   8.502  15.500 -0.3540 -0.2133  0.2651
 2172W        W19019   9.706   0.846   0.074 -0.1163  0.0137 -0.0556
 2173W        W19020  14.566  12.316   0.992  0.1940  0.3672 -0.1539
 2174W        W19021   3.717   7.374  12.820 -0.0868  0.2134  0.1001
 2175W        W19022  14.915   3.307   5.396  0.2595 -0.0706 -0.2990
 2176W        W19023  10.647  17.261  13.316 -0.1127 -0.2203  0.0498
 2177W        W19024   1.924  17.979   3.550 -0.0679  0.0950 -0.3678
 2178W        W19025   8.929  17.055   0.290  0.0269 -0.2519 -0.0035
 2179W        W19026   8.600   3.536  13.631  0.2536 -0.0915 -0.0832
 2180W        W19027   9.043  16.048  15.132  0.2410  0.2061 -0.0456
 2181W        W19028  12.914  16.798  11.077  0.0056 -0.0751 -0.0475
 2182W        W19029   5.749   7.943   4.177 -0.2173  0.1405  0.1174
 2183W        W19030  11.240  10.487   0.634  0.0387  0.0807 -0.2080
 2184W        W19031   1.547   7.535  13.668  0.1695  0.1914 -0.3188
 2185W        W19032   8.029  16.359   3.121  0.2249  0.2265  0.0478
 2186W        W19033   1.093   7.648  12.340 -0.0998  0.1076  0.2870
 2187W        W19034   9.888  12.235   2.578  0.0841  0.0035  0.1075
 2188W        W19035  12.453  13.807   1.065  0.2593  0.2036 -0.0062
 2189W        W19036  11.858  15.516  15.408  0.0191  0.1148 -0.0963
 2190W        W19037   1.229   8.262   2.120 -0.1417  0.0769 -0.0197
 2191W        W19038   5.135  14.393   4.969  0.0598 -0.1341 -0.1608
 2192W        W19039   3.688   4.036   3.903  0.0158  0.0990  0.2395
 2193W        W19040  13.142  13.170   1.276  0.2059 -0.2322  0.0045
 2194W        W19041   0.588   4.708   0.296  0.0989  0.1039 -0.2248
 2195W        W19042   5.262   3.386   0.939  0.2966 -0.1491  0.0741
 2196W        W19043  15.219   9.701  13.721 -0.2567  0.0836 -0.0410
 2197W        W19044   6.255  15.131   2.734 -0.0914  0.1312  0.0355
 2198W        W19045  16.776   3.766  11.931  0.0961 -0.2063  0.0024
 2199W        W19046  10.284  12.189   3.387 -0.1203 -0.0235 -0.0807
 2200W        W19047   2.369  11.362   5.206  0.1821  0.1376  0.3401
 2201W        W19048   1.093  17.488  14.125  0.0260 -0.1266  0.1447
 2202W        W19049   6.882   7.040  11.704 -0.1316 -0.0628 -0.1795
 2203W        W19050   7.961  10.687   3.931 -0.1467 -0.1068 -0.0179
 2204W        W19051   5.695   7.168  15.425 -0.1097  0.1071 -0.0084
 2205W        W19052   0.972  10.542   2.363  0.0350  0.0265  0.0360
 2206W        W19053   1.903   2.029   4.518  0.1317 -0.2737  0.0402
 2207W        W19054   5.060   4.570  14.424 -0.1809  0.1688 -0.2048
 2208W        W19055  12.732  10.430   5.109  0.2892  0.3138  0.2097
 2209W        W19056  11.441   8.458   3.373  0.3581 -0.2762  0.1381
 2210W        W19057  17.509  12.587   5.136 -0.0267 -0.0945 -0.0729
 2211W        W19058   1.736   2.299  14.444 -0.1507  0.1060  0.3822
 2212W        W19059   2.779  12.303  12.324  0.1897 -0.2625 -0.0075
 2213W        W19060   0.086   0.381   2.975 -0.0940  0.0849  0.1122
 2214W        W19061   2.348   8.138  14.926 -0.0634 -0.0762 -0.0278
 2215W        W19062   0.839   7.524   0.554  0.0481  0.2452  0.0397
 2216W        W19063  11.076  12.289  16.083 -0.0641 -0.1692 -0.2275
 2217W        W19064  11.158   1.537  11.510 -0.1072 -0.3153  0.0049
 2218W        W19065   8.044  12.227   4.190  0.0767 -0.0993 -0.1720
 2219W        W19066  10.844   9.059  12.594 -0.0050  0.2226  0.0430
 2220W        W19067   6.074   1.728  10.886 -0.0934 -0.2174 -0.1626
 2221W        W19068  16.976  14.186   3.772 -0.3740  0.0669  0.1268
 2222W        W19069  16.535   1.435  11.147 -0.0145 -0.0456  0.0344
 2223W        W19070  16.622  12.016  12.933  0.0662 -0.2180 -0.2142
 2224W        W19071   3.694  10.209   4.027  0.0948 -0.0562 -0.0100
 2225W        W19072  13.804   9.495   5.418  0.1973  0.3977  0.2974
 2226W        W19073   4.467  16.791   2.673 -0.0534  0.0189 -0.0968
 2227W        W19074   1.875   7.792   5.502 -0.1068 -0.0371  0.1425
 2228W        W19075  14.794   3.139   3.206 -0.0072  0.1110  0.0254
 2229W        W19076  11.629  16.932   3.882 -0.4052 -0.0054  0.0668
 2230W        W19077  13.103   2.539   0.530 -0.1002  0.0665 -0.1549
 2231W        W19078   8.562  16.556   1.340 -0.0212 -0.1623 -0.0705
 2232W        W19079  11.873   1.597  16.413  0.2145 -0.0211 -0.1592
 2233W        W19080  13.069   9.814   1.347 -0.0998 -0.1347  0.2671
 2234W        W19081   5.603  12.627   3.376  0.0197 -0.0775 -0.1296
 2235W        W19082   1.674   0.821   1.399 -0.1075 -0.4603  0.5747
 2236W        W19083  14.012  13.681  12.326  0.2940 -0.1811  0.2281
 2237W        W19084  14.490  10.923  15.899  0.1188  0.0366  0.1881
 2238W        W19085   3.949   4.448   2.995  0.5187 -0.1490 -0.0178
 2239W        W19086  10.454  18.021   3.251  0.1467  0.2228  0.1464
 2240W        W19087   1.714  14.240   3.945 -0.1937  0.0156 -0.1097
 2241W        W19088  17.659  17.297  12.164 -0.1636  0.1223  0.1907
 2242W        W19089  16.857  14.457   2.775 -0.1214 -0.2941 -0.1794
 2243W        W19090  13.624   3.997  12.178 -0.1179 -0.0046 -0.4227
 2244W        W19091   2.953  13.442  15.133 -0.3795 -0.1656 -0.2679
 2245W        W19092   7.383   4.727  12.235 -0.5679 -0.1662 -0.0952
 2246W        W19093   8.306   1.675  11.741  0.2585  0.0814  0.1089
 2247W        W19094  13.139  16.940   1.916  0.2092 -0.0249 -0.3493
 2248W        W19095  13.940   3.628  14.535  0.1468  0.1355 -0.0094
 2249W        W19096  12.114   3.975   4.862 -0.2311 -0.2826 -0.1921
 2250W        W19097   7.214   2.733  14.486  0.0062 -0.1184  0.2265
 2251W        W19098  16.179  14.513  16.558 -0.1561 -0.1080 -0.1753
 2252W        W19099   8.003   9.249  15.950 -0.1662  0.0207  0.2235
 2253W        W19100  14.165   1.708   2.724 -0.2321  0.0952  0.1734
 2254W        W19101   0.240  10.824   3.917  0.0986 -0.0674  0.1196
 2255W        W19102   9.845   6.020   0.120  0.1173 -0.2879 -0.1991
 2256W        W19103  12.682   3.240  16.424 -0.2088  0.3522 -0.6110
 2257W        W19104   2.071   9.247  13.523  0.2252 -0.2343  0.1466
 2258W        W19105   0.772   1.429   6.347  0.0143 -0.0521  0.1096
 2259W        W19106  15.703   3.202   4.162  0.3287  0.0866 -0.0605
 2260W        W19107  12.589   1.335   3.122 -0.1476  0.2125  0.1806
 2261W        W19108   7.560   4.511   1.922 -0.1626 -0.2654  0.0926
 2262W        W19109   1.200   7.213  15.859  0.3258  0.1718  0.1348
 2263W        W19110   6.359   2.477   3.182  0.2969  0.1457 -0.0741
 2264W        W19111   2.535  11.318   0.095 -0.0618  0.1427 -0.1276
 2265W        W19112   5.952  17.491  11.733  0.1179 -0.2239  0.2428
 2266W        W19113   7.199   6.283  13.055  0.0213  0.2188  0.0806
 2267W        W19114   0.545   7.407   3.367 -0.0898  0.0787  0.0695
 2268W        W19115   0.881  13.740   3.795  0.1375 -0.2212  0.1131
 2269W        W19116  14.424  11.166  12.615 -0.2108 -0.1721 -0.0221
 2270W        W19117   9.685   3.824  13.111  0.4463 -0.3656 -0.0334
 2271W        W19118   2.973  16.738   4.783  0.0841 -0.0232 -0.0457
 2272W        W19119   6.555   1.781   4.867  0.1760 -0.2043  0.2040
 2273W        W19120  11.203   7.509  15.810  0.0854 -0.2143  0.0580
 2274W        W19121   3.827   8.743  13.929  0.0674 -0.1487 -0.1710
 2275W        W19122   9.714   2.342   3.745 -0.0006 -0.2132 -0.1729
 2276W        W19123  11.255  16.578  13.388 -0.0031 -0.1163 -0.1472
 2277W        W19124  10.438  14.930  11.584 -0.0117  0.0519  0.1095
 2278W        W19125   4.794  17.638   1.075 -0.1469 -0.1218  0.1355
 2279W        W19126  10.106  13.333  11.892  0.0364  0.1324 -0.3119
 2280W        W19127  13.518  10.967  10.838 -0.1121 -0.1352  0.0270
 2281W        W19128  16.844   8.081   4.718  0.3197 -0.0816 -0.1295
 2282W        W19129   9.659   8.840   4.382 -0.1551  0.0217  0.1317
 2283W        W19130   4.443  12.409   5.802  0.0427  0.1716 -0.0028
 2284W        W19131   9.814   2.160   6.059 -0.0727 -0.4930 -0.3180
 2285W        W19132  16.990   8.483  16.172 -0.1838  0.1345  0.2459
 2286W        W19133   8.383  12.801  16.337  0.0902  0.0215  0.0716
 2287W        W19134   8.182   7.991   2.828 -0.0670 -0.4604  0.2768
 2288W        W19135   7.257   7.762   2.486 -0.0108 -0.1722 -0.1369
 2289W        W19136   8.327   8.680  14.897 -0.2964  0.0272  0.3365
 2290W        W19137   0.246  11.022   0.875 -0.1131  0.0820 -0.1965
 2291W        W19138  14.359  16.413   2.294 -0.1265  0.0820 -0.0332
 2292W        W19139   3.604   0.640   1.031  0.2589 -0.0351  0.3278
 2293W        W19140   2.495  11.780  13.344  0.0230 -0.2083  0.0260
 2294W        W19141  15.751  15.725  13.096 -0.0682 -0.1253 -0.0046
 2295W        W19142   3.097  12.271   4.317  0.0105  0.3735  0.0809
 2296W        W19143  10.387  15.058  12.039 -0.1833  0.1713  0.1983
 2297W        W19144   9.912   0.349  11.112  0.4398 -0.0028 -0.0357
 2298W        W19145  12.366  17.586   3.691 -0.1245 -0.1528 -0.0824
 2299W        W19146  15.324  17.284   4.107 -0.3728 -0.0170 -0.2263
 2300W        W19147   9.529  12.808  13.405 -0.0601 -0.3019  0.2462
 2301W        W19148  10.116  14.759   3.044 -0.3386  0.0289  0.0462
 2302W        W19149   4.716  11.879   1.636  0.0421 -0.0615 -0.2165
 2303W        W19150   4.911   1.582  11.712 -0.1715 -0.0137  0.0890
 2304W        W19151  14.471   8.949   0.990  0.2019 -0.3600 -0.0016
 2305W        W19152  11.314  13.849   1.502  0.1500 -0.0096  0.0689
 2306W        W19153  12.637   7.072  14.707 -0.1513 -0.1320  0.2059
 2307W        W19154   1.455  11.165  16.188 -0.3768 -0.3341 -0.2423
 2308W        W19155   5.043   5.928   4.002  0.1157 -0.0700  0.1949
 2309W        W19156  15.286   1.244   1.715  0.3391  0.0068  0.1479
 2310W        W19157   6.372  17.280  16.126 -0.1447  0.0628 -0.1135
 2311W        W19158  11.706   6.959   0.934  0.0185  0.1378 -0.1440
 2312W        W19159  17.122  14.382   1.539  0.3089  0.1112 -0.0599
 2313W        W19160   9.533   4.681   3.886 -0.0191  0.1326  0.0484
 2314W        W19161  13.503   5.864  11.488 -0.0719 -0.1330  0.0457
 2315W        W19162   4.288   5.355  12.799 -0.0765 -0.2059 -0.0600
 2316W        W19163   2.041   7.692   1.236 -0.0789 -0.0963  0.1071
 2317W        W19164  14.978   9.255  14.402  0.1628  0.3026  0.0011
 2318W        W19165  11.274   3.742   2.807  0.2330  0.0616  0.0989
 2319W        W19166   4.354   9.606   5.091 -0.2814 -0.1848 -0.0587
 2320W        W19167  17.756   0.791  12.910 -0.2729  0.0238  0.1353
 2321W        W19168   6.117   9.585   2.425  0.0035 -0.0628  0.1772
 2322W        W19169   1.285   1.701   4.166 -0.2259  0.1457 -0.0048
 2323W        W19170  13.408   4.294   3.956  0.2331 -0.1937 -0.1789
 2324W        W19171   2.589  12.938   0.760  0.1004 -0.0794  0.1416
 2325W        W19172   6.045   3.015  13.791  0.0831  0.0593  0.0477
 2326W        W19173   8.963   5.049   2.562 -0.1835 -0.1333  0.0006
 2327W        W19174  13.713   1.367   4.787  0.1214 -0.1497  0.1207
 2328W        W19175   9.083  12.517   0.255  0.0717  0.0567  0.1224
 2329W        W19176  17.571   0.120   1.060 -0.2700  0.0675  0.0602
 2330W        W19177  16.083  11.268   1.849 -0.2232 -0.2384  0.0598
 2331W        W19178   2.173  13.497   0.440 -0.2923 -0.1905  0.2912
 2332W        W19179   5.911  10.783  16.364 -0.2210  0.3390 -0.0374
 2333W        W19180   3.501  13.721  13.056 -0.2095  0.0414  0.0155
 2334W        W19181   8.229  16.094   2.613 -0.0760  0.2179  0.0464
 2335W        W19182  17.714  12.598   2.538  0.4858  0.1376 -0.0672
 2336W        W19183   0.847  14.899   2.756  0.2423  0.0734 -0.1026
 2337W        W19184   4.121  13.308   2.670 -0.1482  0.2458  0.1806
 2338W        W19185   6.217   9.008  14.749 -0.0888 -0.1484  0.1098
 2339W        W19186   9.535  11.027  16.568  0.2386  0.0967 -0.3192
 2340W        W19187  17.825  17.139   5.423 -0.0178 -0.0434  0.1156
 2341W        W19188   5.569  15.170   4.604  0.1216 -0.0484 -0.0488
 2342W        W19189   1.098   6.282  11.810 -0.0663  0.3255 -0.0256
 2343W        W19190  17.900  17.557   5.956  0.1936 -0.0810  0.1090
 2344W        W19191  15.054   0.119  14.437  0.0289 -0.1637  0.0390
 2345W        W19192  14.896  14.077  15.672 -0.0640 -0.2129  0.0635
 2346W        W19193   5.043   1.311   0.604  0.0430 -0.0871  0.0433
 2347W        W19194   8.404  11.415  11.401  0.0767 -0.0069  0.0820
 2348W        W19195  12.950   4.001   3.622 -0.0932  0.0371 -0.2508
 2349W        W19196   5.631   2.425  11.015 -0.0881 -0.0688 -0.0110
 2350W        W19197   0.979   0.707   5.717 -0.2021 -0.1546 -0.0910
 2351W        W19198   6.353   5.695  11.641  0.0719  0.0082  0.0534
 2352W        W19199   4.561   3.504  14.748 -0.0195  0.1049  0.0639
 2353W        W19200   1.666  15.407  13.315  0.0426  0.0161 -0.1211
 2354W        W19201   6.335  18.020   3.665 -0.0808  0.3282  0.0908
 2355W        W19202  14.830   3.906   4.770 -0.0997 -0.1803  0.0865
 2356W        W19203  12.636   6.193  14.828 -0.0542 -0.1783 -0.1646
 2357W        W19204   5.809  13.052   4.140  0.0409 -0.1107 -0.0612
 2358W        W19205   7.977   7.589   4.460 -0.3163 -0.3115  0.0459
 2359W        W19206   6.208  12.114   6.266  0.0111 -0.3931  0.0239
 2360W        W19207  15.358  14.933   0.052 -0.0374  0.0674 -0.0916
 2361W        W19208  17.100  11.919   1.431 -0.2539  0.1170  0.0315
 2362W        W19209  16.791  16.027  13.419 -0.0390  0.1653 -0.1714
 2363W        W19210  15.235   6.727   1.538  0.0528 -0.0519 -0.0712
 2364W        W19211   1.381   3.728  16.146  0.0358 -0.0568  0.1180
 2365W        W19212   5.318  15.967   4.011  0.0987  0.2173  0.1574
 2366W        W19213   3.741  12.055  16.581  0.0908 -0.0069  0.0835
 2367W        W19214  16.612  13.371  11.956  0.0219 -0.1005  0.0807
 2368W        W19215  14.910  15.975  11.584  0.1626 -0.2529  0.0717
 2369W        W19216  17.213   6.690   1.124 -0.1705  0.1485 -0.2013
 2370W        W19217  16.490  12.489  14.131  0.0903 -0.3544 -0.1779
 2371W        W19218  11.425   9.818   4.913  0.1084 -0.1551 -0.2413
 2372W        W19219  14.031   6.084  14.551 -0.0747  0.0860 -0.0014
 2373W        W19220  14.252  11.157   5.433  0.2593  0.0590 -0.1136
 2374W        W19221   9.249   0.242   1.893 -0.0344 -0.2119  0.2695
 2375W        W19222   1.905   7.586   4.416 -0.2188  0.0372 -0.1123
 2376W        W19223   8.230   7.934   0.829 -0.2375 -0.0739  0.0024
 2377W        W19224  12.395   8.517   1.211 -0.2353 -0.0171  0.0446
 2378W        W19225  15.388   8.311  13.620  0.0397  0.0234  0.0567
 2379W        W19226   0.343  14.065  12.088 -0.2138 -0.3898  0.0518
 2380W        W19227  17.429  10.832  15.096 -0.0315  0.2509 -0.3572
 2381W        W19228   4.161  13.057   1.766  0.0289  0.0897  0.1458
 2382W        W19229   3.336  17.710  16.030 -0.0224  0.1154  0.1932
 2383W        W19230   0.083   2.424  15.386 -0.2896 -0.0570 -0.0607
 2384W        W19231  13.020   1.730   3.960  0.0122 -0.2500  0.2088
 2385W        W19232   4.431   8.226   2.067  0.2599  0.0799 -0.1972
 2386W        W19233   2.695   7.087  14.606 -0.2563 -0.1578  0.3264
 2387W        W19234   7.662   9.862  15.319 -0.2806  0.1268 -0.1566
 2388W        W19235  12.529  17.497   5.768 -0.0777 -0.0787  0.0873
 2389W        W19236  16.075  16.144   2.321 -0.3777 -0.1080 -0.1701
 2390W        W19237   2.149  11.186   5.844 -0.0248 -0.0656  0.2290
 2391W        W19238  10.540  13.428  16.174 -0.0796  0.0158  0.2044
 2392W        W19239   7.036   8.197   4.725 -0.1524  0.0821  0.0155
 2393W        W19240   4.165  15.556   5.186 -0.3531 -0.0368 -0.3385
 2394W        W19241  12.450   0.142  12.618 -0.1452 -0.0754 -0.0418
 2395W        W19242   4.844   8.712   6.001  0.5669 -0.0503 -0.0421
 2396W        W19243  10.102   8.514   3.577  0.2849  0.4762  0.2992
 2397W        W19244  12.938   8.535   2.072  0.2089  0.0911  0.0610
 2398W        W19245  14.194   7.296   4.486  0.0330  0.0053 -0.0401
 2399W        W19246   9.061   5.965  12.915  0.1167 -0.0661  0.0963
 2400W        W19247   4.339   1.825  12.180  0.2599 -0.1217  0.1324
 2401W        W19248   8.336   2.995   0.352  0.0888 -0.0182 -0.0746
 2402W        W19249   3.754   8.729  11.864 -0.2007 -0.4149  0.1989
 2403W        W19250   8.523   0.576   0.128  0.0412  0.1573  0.2745
 2404W        W19251  13.092  17.440  15.857 -0.0783 -0.3025  0.1037
 2405W        W19252   9.922  16.601  13.733 -0.4290 -0.0417  0.1516
 2406W        W19253   4.633  13.065  15.554 -0.3680 -0.0641  0.2127
 2407W        W19254   5.615   6.372  12.315 -0.0651  0.1734 -0.3863
 2408W        W19255   7.253   8.144  14.535  0.3188 -0.1632 -0.0189
 2409W        W19256   8.098  15.194  13.960  0.1315  0.1317  0.2387
 2410W        W19257   3.335  15.970  16.122  0.2072 -0.1139  0.0369
 2411W        W19258   9.498   8.967  12.122 -0.0611 -0.1797 -0.0352
 2412W        W19259  10.443   5.999  16.025  0.3317 -0.0286  0.0032
 2413W        W19260  13.937  17.918   1.317 -0.0470  0.1500 -0.0224
 2414W        W19261  16.211   3.906   5.560  0.0566 -0.2476  0.0600
 2415W        W19262   5.226  10.643   3.931 -0.2002  0.1845  0.0785
 2416W        W19263   2.670   8.863  15.920  0.2290 -0.1426  0.1997
 2417W        W19264   1.701  10.561   5.246 -0.1992  0.0580  0.0342
 2418W        W19265  11.370   0.741  15.750 -0.2494  0.1940  0.0369
 2419W        W19266  12.807  14.568  12.533 -0.0238  0.1039 -0.0099
 2420W        W19267   8.777  13.342  14.484 -0.2573 -0.1840 -0.0225
 2421W        W19268  12.973   0.596  13.769  0.4087  0.0033  0.0214
 2422W        W19269   4.796   0.164   2.892 -0.1241  0.0825 -0.1837
 2423W        W19270   3.273   1.639   5.222  0.2076 -0.0101  0.0382
 2424W        W19271   1.759  13.038  14.870 -0.1150 -0.0166 -0.1875
 2425W        W19272  16.598   0.153  14.616  0.2923 -0.0030 -0.1226
 2426W        W19273   9.583   6.830  12.860 -0.3511 -0.1677 -0.0903
 2427W        W19274   7.355  14.272   0.220  0.0725  0.0282 -0.0460
 2428W        W19275   7.217  16.771  16.241  0.1438  0.1159 -0.1146
 2429W        W19276   2.694  14.451   1.635 -0.2997  0.0672  0.1234
 2430W        W19277   8.140   2.024  14.096  0.1947 -0.1346 -0.1605
 2431W        W19278   8.306  18.069  13.304  0.0968 -0.0119 -0.0257
 2432W        W19279   4.240  14.179   0.130  0.1058  0.0767 -0.0018
 2433W        W19280  10.272  11.118  14.435 -0.0745 -0.1801  0.2230
 2434W        W19281   7.023   2.616   3.122  0.2048 -0.1883  0.2529
 2435W        W19282  14.287  13.261  13.253 -0.0801  0.1976 -0.1399
 2436W        W19283   9.711  16.008   2.250 -0.0597 -0.2021 -0.0694
 2437W        W19284  10.828   1.428   1.304  0.1685  0.3168 -0.0946
 2438W        W19285  13.882  15.670  15.628 -0.1571  0.1562 -0.3702
 2439W        W19286  12.923   4.560   2.289 -0.0313  0.4696  0.2011
 2440W        W19287   5.091   2.087  16.326 -0.1361 -0.0529 -0.2764
 2441W        W19288   8.873   8.489  12.753  0.2808 -0.0223  0.0086
 2442W        W19289   9.942   5.655  12.900 -0.0050  0.4711  0.0549
 2443W        W19290   2.383   2.676   3.180  0.0100  0.3063 -0.3121
 2444W        W19291   3.883   7.671   5.238 -0.3156  0.2710 -0.1119
 2445W        W19292  15.337  13.498   3.209  0.0552 -0.1787 -0.1925
 2446W        W19293  12.155  14.633  13.125 -0.1247  0.2979  0.0434
 2447W        W19294   6.334   3.097   1.084 -0.1338 -0.2248 -0.0065
 2448W        W19295   9.302   6.670  15.618 -0.0725  0.1072 -0.1923
 2449W        W19296   0.792   1.887   5.020 -0.0769 -0.0556 -0.0868
 2450W        W19297   2.073   8.280   2.609  0.1964  0.1454  0.3144
 2451W        W19298   2.811  14.540   2.602 -0.2863 -0.1664  0.1683
 2452W        W19299  16.746   5.145  16.369  0.1524  0.0727 -0.0453
 2453W        W19300   2.010   9.400   4.397 -0.0916  0.0137  0.0909
 2454W        W19301   7.044  13.114  15.640 -0.1520  0.0939 -0.1539
 2455W        W19302  12.264   0.464   1.184  0.0660 -0.0246 -0.0295
 2456W        W19303  10.161   5.612   5.480  0.0311 -0.3517  0.3276
 2457W        W19304  15.017   9.649  14.934 -0.1349  0.1498  0.1042
 2458W        W19305   3.226   4.045  13.670 -0.0318 -0.0124 -0.0461
 2459W        W19306   5.306   8.713   6.300  0.0473 -0.0301  0.2336
 2460W        W19307  17.088  11.224  15.782  0.1705  0.2190 -0.1369
 2461W        W19308  10.802   8.784   2.314 -0.1532 -0.1723  0.2833
 2462W        W19309  17.430   3.937   5.693 -0.0301 -0.3433  0.0664
 2463W        W19310  12.121  12.582  15.420  0.3142  0.2002 -0.1494
 2464W        W19311   4.156  12.814   5.780 -0.2379  0.0249  0.0407
 2465W        W19312  17.026  12.371   4.959  0.0593 -0.1095 -0.1864
 2466W        W19313  16.048   0.722  15.394  0.1283 -0.2253 -0.0759
 2467W        W19314   4.295  17.608  13.238  0.1920  0.1116  0.2661
 2468W        W19315  16.533  16.569   3.282 -0.0496 -0.2128  0.4950
 2469W        W19316   1.265   0.791   4.552 -0.1969  0.2282  0.0715
 2470W        W19317   2.625  14.698   0.946  0.1318 -0.0410 -0.0448
 2471W        W19318   0.584   2.291   1.747  0.1958  0.0136 -0.1203
 2472W        W19319   7.680  17.627   1.128 -0.0316  0.0727 -0.3642
 2473W        W19320  14.126   5.501  12.346 -0.0248  0.0774  0.0462
 2474W        W19321   0.890   7.280  12.779 -0.0873  0.0982 -0.1718
 2475W        W19322   7.584   6.139   4.909 -0.0317  0.2055  0.3580
 2476W        W19323  13.513  17.655  16.658  0.1511 -0.0042 -0.1965
 2477W        W19324   8.975   7.503   1.052  0.0752  0.0035 -0.0184
 2478W        W19325   1.704   5.605   3.631  0.1679 -0.2370 -0.1044
 2479W        W19326   6.883  17.130  16.235 -0.2304 -0.1455 -0.0391
 2480W        W19327   6.235   5.944   1.870 -0.0559 -0.0299 -0.0312
 2481W        W19328   3.421   4.526   3.670  0.1978  0.1244 -0.1233
 2482W        W19329  13.663   3.386  11.729 -0.2069 -0.0520  0.0031
 2483W        W19330  13.340  11.856  12.384 -0.0047  0.0165 -0.0812
 2484W        W19331   0.654  10.679  15.673 -0.0199 -0.1640  0.2185
 2485W        W19332  12.253   0.112  13.632 -0.0372 -0.1005 -0.0067
 2486W        W19333  11.662  15.252  13.546 -0.0477  0.1560 -0.0797
 2487W        W19334  15.080   9.010  13.950 -0.0268 -0.1318 -0.0955
 2488W        W19335  12.947  12.810  15.999  0.0012  0.0743  0.3631
 2489W        W19336   9.168  11.410  13.573  0.2180 -0.0690  0.0321
 2490W        W19337   3.594  17.018   1.014 -0.2030  0.5925  0.0312
 2491W        W19338  13.780   0.862  14.168  0.0989 -0.0402  0.1865
 2492W        W19339  12.756  11.366  14.937 -0.3538  0.2797 -0.2267
 2493W        W19340  17.690   4.245   2.431 -0.0063 -0.3272  0.0219
 2494W        W19341  15.984   5.732   5.273  0.2558 -0.2010  0.2518
 2495W        W19342   3.845  12.028   1.370  0.2522  0.0080 -0.1974
 2496W        W19343   8.403   0.914  12.157 -0.1415  0.0670  0.0476
 2497W        W19344   7.430  15.982   1.000 -0.2637 -0.1371  0.3942
 2498W        W19345   2.388   3.176  16.014  0.2862 -0.2096 -0.0828
 2499W        W19346  13.511   6.247   3.940  0.1050  0.3465  0.1339
 2500W        W19347   4.541   7.166   2.850 -0.1416 -0.2560 -0.0844
 2501W        W19348   8.598  15.277  13.350  0.0109 -0.0401  0.1573
 2502W        W19349   8.406  14.368  11.771 -0.4532  0.1212 -0.1366
 2503W        W19350  15.784  17.399   4.008  0.3116 -0.1592 -0.3168
 2504W        W19351   5.277   9.797  15.167  0.2648  0.1122  0.1161
 2505W        W19352  15.786   9.244   1.569  0.1250 -0.0542  0.5874
 2506W        W19353   6.116  14.334   5.137  0.1728  0.0562 -0.2276
 2507W        W19354  16.008   5.056  16.577  0.2205  0.1030 -0.1575
 2508W        W19355   2.019   2.545   5.094 -0.1557  0.1967  0.2310
 2509W        W19356  16.880  12.189  15.758  0.2604 -0.2085  0.0706
 2510W        W19357   3.861   3.885   1.431  0.0046 -0.4632 -0.0780
 2511W        W19358  11.908   2.736  13.854  0.0448 -0.1157  0.0685
 2512W        W19359  10.305  10.835  15.425 -0.0936 -0.3876  0.6917
 2513W        W19360   7.226  16.482   1.811 -0.0232  0.0166 -0.0124
 2514W        W19361  13.917  14.458   4.697  0.0160  0.0800 -0.0017
 2515W        W19362  11.919   3.382   0.076  0.0854 -0.0779  0.2965
 2516W        W19363   4.623  15.470   2.736 -0.1322 -0.3516  0.2100
 2517W        W19364   3.073   9.488  12.074 -0.1384  0.3075  0.0161
 2518W        W19365   3.861  12.924  16.006  0.0639  0.0174  0.1188
 2519W        W19366   1.568   9.033   0.723 -0.0924 -0.2437  0.3442
 2520W        W19367  17.166  12.642   4.549  0.1014  0.1921 -0.0985
 2521W        W19368  15.830   2.693   1.686 -0.1084  0.0341 -0.2391
 2522W        W19369   6.771  11.224  12.175  0.0523  0.2214 -0.0141
 2523W        W19370  11.803   9.879  13.251  0.3410 -0.0102 -0.2698
 2524W        W19371  11.976  10.806  15.421  0.0778  0.0284  0.0705
 2525W        W19372   2.905  11.907   1.347 -0.0855  0.0102 -0.1439
 2526W        W19373  10.693   0.483   2.175 -0.2458  0.4190  0.0350
 2527W        W19374  15.351  12.408  14.485 -0.2402  0.1763  0.2468
 2528W        W19375  15.936   5.295   3.005 -0.0830 -0.1669  0.0180
 2529W        W19376  14.908   0.220   2.551  0.0980 -0.3755  0.2377
 2530W        W19377   5.501   4.346   3.908  0.2290  0.0209  0.0414
 2531W        W19378  14.018   0.692  16.407 -0.0733  0.0441  0.2505
 2532W        W19379  16.813  15.421   2.490  0.1383 -0.0043 -0.1130
 2533W        W19380   5.695   7.217  16.038  0.4992  0.3457  0.1432
 2534W        W19381   6.529   8.879  13.050  0.0372 -0.2960  0.1448
 2535W        W19382   3.637   6.820   5.617  0.1277  0.1189  0.4599
 2536W        W19383  10.031   0.263  15.438 -0.3966 -0.0236 -0.4389
 2537W        W19384   1.699   1.006  14.498 -0.0538 -0.2347 -0.2239
 2538W        W19385  11.659  16.371  12.228 -0.3735  0.2367 -0.2646
 2539W        W19386  14.444   4.668   3.844  0.1812  0.4025 -0.0507
 2540W        W19387  12.382   7.545  15.265  0.0758 -0.1431  0.0798
 2541W        W19388  16.322  11.245  14.836  0.2805 -0.0584 -0.1214
 2542W        W19389   3.485   7.515  11.554 -0.0341 -0.0292  0.3240
 2543W        W19390   1.316   5.121  16.632 -0.2126 -0.0840 -0.0947
 2544W        W19391   5.494  17.179   4.532 -0.1936  0.0390  0.0528
 2545W        W19392  14.543   2.281  13.604  0.1702 -0.1657  0.0309
 2546W        W19393  11.488   9.551  13.701  0.1935 -0.0344  0.0679
 2547W        W19394   2.850   3.981  11.609 -0.2822 -0.1999  0.1473
 2548W        W19395  10.364   4.683   1.173  0.0976 -0.0602 -0.0597
 2549W        W19396  13.223  13.905   5.404  0.1619 -0.1104  0.0260
 2550W        W19397   6.367   2.927  14.881 -0.0772 -0.1745 -0.1511
 2551W        W19398   6.781  10.240   1.088  0.2701  0.1425  0.2902
 2552W        W19399   2.292   4.306   3.132 -0.0187  0.2119  0.1519
 2553W        W19400  13.844   1.805   4.501  0.1318 -0.0386 -0.2506
 2554W        W19401  15.400   0.948  16.211  0.3771  0.1945  0.2669
 2555W        W19402   2.235  12.171  12.384  0.2407  0.0150 -0.2574
 2556W        W19403  14.079  17.306  11.425 -0.3141  0.1472  0.2659
 2557W        W19404   8.898   0.229   0.916  0.1356  0.2540 -0.0822
 2558W        W19405   0.401   3.700   0.298  0.2270  0.2716 -0.0949
 2559W        W19406   7.683   4.403  15.890 -0.2151  0.0959  0.0626
 2560W        W19407   4.225   1.241  14.714  0.0128 -0.1495 -0.0076
 2561W        W19408   5.858   5.763   2.185 -0.0447  0.0415 -0.0924
 2562W        W19409   1.596   3.606  14.935  0.0238  0.1138  0.2316
 2563W        W19410   8.835  17.853   3.014  0.1198  0.0185  0.3985
 2564W        W19411  16.188  16.030  13.067  0.0099  0.3254  0.2669
 2565W        W19412  12.884   0.922   3.144  0.1438 -0.1946  0.0225
 2566W        W19413  14.478  10.888   1.243  0.0203  0.2044 -0.1010
 2567W        W19414   9.156  13.352   0.538  0.1058  0.2823 -0.1991
 2568W        W19415  16.255   7.637   5.334 -0.3331 -0.1380  0.0851
 2569W        W19416  10.896   1.524  14.175 -0.0307  0.2448  0.1193
 2570W        W19417   8.303  10.264  13.541 -0.3067 -0.0263 -0.0585
 2571W        W19418   5.697   9.802   0.439 -0.0296 -0.0578  0.0675
 2572W        W19419   4.060   2.207  14.656 -0.4918 -0.2375 -0.0341
 2573W        W19420  15.824  16.444  10.393 -0.0982  0.0534  0.1792
 2574W        W19421  14.486  17.192  15.379 -0.0665 -0.4640  0.2324
 2575W        W19422   6.899   9.827  13.956  0.1661  0.0110 -0.2091
 2576W        W19423   9.410   1.327   5.433  0.0190 -0.1003  0.0283
 2577W        W19424   0.448  13.409  14.243 -0.0434  0.0580 -0.3090
 2578W        W19425   1.131  15.580   3.115  0.1643  0.1716 -0.2024
 2579W        W19426  17.616   1.019   1.240  0.1484  0.1254  0.3441
 2580W        W19427  13.859   6.754  13.591 -0.1453  0.0624  0.1516
 2581W        W19428   1.876   9.722   3.271 -0.2349 -0.1636 -0.3344
 2582W        W19429  17.440  11.066   3.137  0.0843  0.1589  0.0215
 2583W        W19430  14.214   2.009   5.261 -0.0108 -0.1251  0.1878
 2584W        W19431   2.125  10.823  11.898 -0.0119  0.1577 -0.3050
 2585W        W19432   5.816   9.867   1.471 -0.2676  0.1462  0.1650
 2586W        W19433  12.099   5.792   1.959 -0.0127  0.0540  0.0131
 2587W        W19434  11.616   0.544  12.047  0.1584  0.0288  0.2800
 2588W        W19435   6.485  13.703  13.128 -0.5567 -0.0940  0.3640
 2589W        W19436  11.817  14.949   2.018 -0.0316 -0.2487 -0.0810
 2590W        W19437   7.471   1.533  12.117 -0.1145 -0.1625 -0.1531
 2591W        W19438  12.722   3.622   0.748 -0.4336 -0.0855  0.0243
 2592W        W19439  10.786  11.237  15.261  0.1125 -0.2154  0.0384
 2593W        W19440   8.560  10.702   5.349 -0.1020  0.0041 -0.1746
 2594W        W19441   0.382   2.362   5.585 -0.0630  0.1603 -0.0499
 2595W        W19442   2.751  15.358   4.644 -0.0345  0.1943 -0.1500
 2596W        W19443   6.955   1.393   6.064  0.1080 -0.0562 -0.0094
 2597W        W19444   7.879   0.744  11.574 -0.0353  0.0875 -0.1190
 2598W        W19445   2.805   6.446   3.796  0.1421 -0.0474  0.1353
 2599W        W19446  16.131  10.099   5.411 -0.0167 -0.1829 -0.2468
 2600W        W19447   2.534   1.509  10.904 -0.1331 -0.0443  0.2419
 2601W        W19448   9.641  15.949  12.145 -0.2323  0.0684  0.3009
 2602W        W19449   1.330   1.215  13.706 -0.1273 -0.0259  0.0111
 2603W        W19450   3.874  17.550   0.096 -0.1315 -0.2313 -0.0950
 2604W        W19451  15.789  10.862   5.136  0.0137 -0.0842 -0.2208
 2605W        W19452  14.009   8.931   0.176  0.0983 -0.1777  0.1470
 2606W        W19453   7.938  14.124  13.731  0.1771 -0.0334  0.3939
 2607W        W19454  14.033   5.494  14.124  0.0902 -0.1039  0.1296
 2608W        W19455  10.450  12.153  15.246  0.1110 -0.2074 -0.0720
 2609W        W19456  14.530   3.198  14.993 -0.1102  0.1784 -0.0947
 2610W        W19457  11.030   1.039  16.018  0.2138 -0.1122  0.3134
 2611W        W19458  17.829  17.712   5.440  0.0446  0.0681  0.0625
 2612W        W19459   5.995  17.191   4.721  0.0163  0.1852  0.1169
 2613W        W19460   9.292   3.172   3.391  0.1734 -0.0074  0.1564
 2614W        W19461  17.514  17.526   3.687  0.2694  0.2252 -0.1184
 2615W        W19462  16.815   0.539  16.020  0.2306  0.2166  0.1687
 2616W        W19463  17.695  14.582  12.052 -0.0934 -0.1977 -0.1693
 2617W        W19464  14.988  13.290   0.309 -0.1776  0.0520  0.2486
 2618W        W19465   1.048  12.720   2.800 -0.3290 -0.0442  0.0902
 2619W        W19466  17.778  14.472   2.796  0.0173 -0.1118 -0.3208
 2620W        W19467  13.472  16.448  16.664 -0.0622  0.1301  0.0928
 2621W        W19468   8.761  12.251   2.504 -0.2215  0.1506  0.1716
 2622W        W19469   6.183  15.037   2.151  0.1075 -0.0199  0.1189
 2623W        W19470   0.799   4.511   0.806 -0.3094 -0.0697 -0.0385
 2624W        W19471   9.839   7.048   0.303 -0.0490  0.1151 -0.0560
 2625W        W19472   3.620   0.298   1.434  0.1252 -0.0854 -0.1522
 2626W        W19473   1.467  11.392   0.349  0.2043 -0.0080  0.1546
 2627W        W19474  13.221  10.966   2.200 -0.3371  0.1768  0.1586
 2628W        W19475  13.515  10.763   3.866  0.0693  0.0212  0.0074
 2629W        W19476   0.333   0.259  15.894  0.2428  0.1802  0.2200
 2630W        W19477  10.159   9.958  10.467  0.1832  0.0368 -0.1098
 2631W        W19478   0.074   3.339  14.933 -0.0032 -0.1171 -0.1534
 2632W        W19479   9.490  12.536  14.500  0.1256  0.1508 -0.0602
 2633W        W19480   2.815  12.243   3.400  0.0337 -0.0997 -0.1318
 2634W        W19481  10.146  11.935  14.923 -0.2406  0.0460 -0.1653
 2635W        W19482   3.932  17.198   1.738 -0.1378  0.2846 -0.0362
 2636W        W19483   5.796   5.925   3.025  0.1552 -0.0701 -0.2598
 2637W        W19484   7.735  15.269   4.552 -0.1660 -0.2299  0.0690
 2638W        W19485  13.449   0.164  15.270 -0.0881 -0.1527  0.3376
 2639W        W19486  16.774   9.794   1.466  0.2479  0.2439 -0.2451
 2640W        W19487   2.063  10.478  13.898  0.0163 -0.1053  0.3123
 2641W        W19488  17.229  15.971  15.371 -0.3410 -0.0074  0.0543
 2642W        W19489   2.235  11.796   5.390 -0.0842  0.2714 -0.4002
 2643W        W19490   8.295  15.009   2.363 -0.1260 -0.0840  0.5064
 2644W        W19491  17.979   7.989   3.012 -0.1954  0.0533 -0.0772
 2645W        W19492   2.115  17.655  12.086 -0.0211  0.3900 -0.3267
 2646W        W19493   5.982   2.908   2.481  0.2406 -0.0994 -0.0160
 2647W        W19494  11.014   0.317  15.376 -0.0063  0.2688 -0.2089
 2648W        W19495   2.155  10.680   5.677  0.2762  0.0176 -0.1804
 2649W        W19496  10.849  15.575  14.812  0.1489  0.1134 -0.1740
 2650W        W19497   2.589   9.303   5.572 -0.0287  0.0963 -0.1120
 2651W        W19498   6.920  17.369   2.083 -0.0326 -0.1100 -0.0860
 2652W        W19499   3.417  15.995   5.556  0.2104  0.1275 -0.2426
 2653W        W19500  16.674   6.429   5.461 -0.0846 -0.1460  0.1190
 2654W        W19501   8.686   6.988   0.684  0.1819 -0.2569  0.1747
 2655W        W19502  14.854  11.442  14.303 -0.2146 -0.0365 -0.2802
 2656W        W19503  11.782  17.921  11.673 -0.3708  0.1251  0.0609
 2657W        W19504  12.359  15.904   1.883 -0.3454 -0.2211 -0.0352
 2658W        W19505  14.593  12.737  14.411 -0.3685 -0.2557 -0.0882
 2659W        W19506  14.905  16.134  14.580 -0.2044 -0.0986 -0.1750
 2660W        W19507   7.514   0.458  11.961  0.3263 -0.0689  0.0215
 2661W        W19508  12.699   8.223  13.574  0.1340 -0.0801 -0.2026
 2662W        W19509  15.986  10.403  15.707  0.0891 -0.0282 -0.2899
 2663W        W19510   0.731  11.027  15.181 -0.2511 -0.0093  0.1622
 2664W        W19511   1.263   2.242   5.369 -0.1783 -0.2048 -0.1645
 2665W        W19512  17.996  16.848   3.684  0.1485 -0.1012 -0.2040
 2666W        W19513   7.097   8.057   5.413  0.1792  0.0281  0.2495
 2667W        W19514   6.332  14.455  14.952  0.0082  0.0695 -0.0068
 2668W        W19515   0.993   3.096  14.027 -0.0542 -0.0664  0.2494
 2669W        W19516   8.218   6.656   2.618  0.0673 -0.1106  0.1355
 2670W        W19517  15.275   0.147  15.296 -0.0171  0.2905 -0.0014
 2671W        W19518   2.340   1.546   3.980  0.1521  0.4433 -0.0156
 2672W        W19519   9.882   0.242   4.488 -0.1534  0.1417  0.1162
 2673W        W19520  13.684  18.068  14.411  0.0160  0.0100  0.0813
 2674W        W19521  12.058   6.623   4.463  0.1133  0.0107  0.0339
 2675W        W19522   5.628   1.458  16.237  0.0842 -0.1589 -0.0206
 2676W        W19523   3.240   1.289  12.441 -0.2905 -0.2621 -0.1820
 2677W        W19524  10.844   2.087   2.223  0.0540 -0.0071 -0.0452
 2678W        W19525   0.293   2.571  13.434 -0.0857 -0.3240 -0.0783
 2679W        W19526  16.951   7.211  15.820 -0.1870 -0.2557 -0.1107
 2680W        W19527   2.886  14.126  15.795  0.2614 -0.2944 -0.0849
 2681W        W19528   1.923  12.916  14.338 -0.1916 -0.1068  0.2907
 2682W        W19529  16.022   6.930  11.877  0.0025 -0.2025 -0.0285
 2683W        W19530   1.619   4.965   1.301  0.2401  0.0299 -0.2568
 2684W        W19531   6.715   5.679  12.464  0.2231 -0.0771  0.0713
 2685W        W19532   6.616   9.314  13.365  0.1488  0.1617 -0.1257
 2686W        W19533  13.509   2.552  16.261 -0.0726  0.0316  0.0252
 2687W        W19534   1.156  15.495   3.586  0.1432  0.0014  0.0452
 2688W        W19535   4.188   7.241   0.805 -0.0831 -0.0366  0.0988
 2689W        W19536   4.697  17.638   3.692  0.1856 -0.0397  0.1719
 2690W        W19537   1.958   7.691  15.157 -0.1095 -0.3064  0.4038
 2691W        W19538   4.910  14.360  13.853  0.0580  0.0413  0.0304
 2692W        W19539   8.924   2.551  12.789  0.1438 -0.0794  0.2218
 2693W        W19540   6.646   8.195   5.054 -0.1239 -0.0558  0.2949
 2694W        W19541  16.403  12.143  13.351  0.0709  0.1322 -0.1734
 2695W        W19542  13.104   4.014  16.114 -0.0460 -0.1595 -0.0500
 2696W        W19543  15.135  16.442   0.536 -0.1460  0.1544  0.0884
 2697W        W19544   1.837   8.005   0.001 -0.1121 -0.0177 -0.2680
 2698W        W19545  16.156   0.514  12.593 -0.1983 -0.0435  0.1610
 2699W        W19546  10.695  14.471   4.886 -0.1642 -0.0926 -0.0278
 2700W        W19547  13.497   8.433  13.222  0.1706  0.0408  0.3837
 2701W        W19548   4.703   1.207  15.400 -0.1771  0.0610  0.3550
 2702W        W19549  11.206   5.329   4.956  0.1489 -0.2192  0.1080
 2703W        W19550   0.834  15.282   0.044 -0.0193  0.3796 -0.4294
 2704W        W19551  16.448  14.294   3.214 -0.0622 -0.1237  0.2215
 2705W        W19552  14.702   7.928   1.020  0.0068  0.0076 -0.0025
 2706W        W19553   2.277   4.833  11.662  0.1406  0.1627  0.0016
 2707W        W19554  15.465  14.558   4.401  0.1140  0.0281 -0.4041
 2708W        W19555  13.541  14.644   5.123  0.1146 -0.3553 -0.0423
 2709W        W19556   4.720   1.604   0.331  0.1170 -0.1183  0.0796
 2710W        W19557   5.277   3.852   2.189  0.2798  0.2825  0.0367
 2711W        W19558   2.782   2.446   3.538 -0.0352 -0.2557 -0.0978
 2712W        W19559  15.314  11.359  12.515  0.0885 -0.0605  0.0497
 2713W        W19560   3.360   2.678   0.434  0.0170  0.0415  0.1891
 2714W        W19561  12.934   4.173  13.778  0.1104 -0.0252 -0.0080
 2715W        W19562   8.273  11.829   5.496  0.0096  0.1638 -0.0344
 2716W        W19563   8.084  15.194  12.114  0.0944  0.0677  0.4832
 2717W        W19564  17.206   6.617   4.777 -0.1322  0.2220 -0.2963
 2718W        W19565   9.021  12.989   1.981  0.1870  0.0191 -0.1865
 2719W        W19566   2.008   1.371   5.800 -0.0476 -0.2205 -0.0688
 2720W        W19567   8.863   4.742   5.694  0.2551  0.0202  0.0374
 2721W        W19568   7.802   1.421   1.478  0.4285  0.1305  0.2900
 2722W        W19569  10.429   8.751  12.406 -0.1597  0.0416 -0.2089
 2723W        W19570   3.304   1.406  15.521 -0.0622 -0.0340 -0.0047
 2724W        W19571  12.770   0.317  16.041  0.0274  0.0014 -0.0408
 2725W        W19572   4.308   6.933  13.752 -0.0593  0.2454 -0.1200
 2726W        W19573  16.525   3.905   5.104  0.0919 -0.1284 -0.1084
 2727W        W19574   6.847  15.529  14.682 -0.4716 -0.0067  0.1338
 2728W        W19575   4.113  11.139   0.030 -0.3426  0.5637 -0.2583
 2729W        W19576   5.065  11.057   0.087 -0.1001  0.1353 -0.1767
 2730W        W19577   5.695  14.101   0.726 -0.0747 -0.1471  0.1544
 2731W        W19578   6.862   7.605   5.325 -0.1027 -0.0306  0.3142
 2732W        W19579  17.473  11.705   4.489  0.0940  0.1709 -0.2458
 2733W        W19580   9.671  14.464  13.782  0.5729 -0.1462  0.2438
 2734W        W19581   1.644   4.541   2.523 -0.1427  0.1109  0.0909
 2735W        W19582   2.836   0.947  12.426 -0.0441  0.0800 -0.2223
 2736W        W19583   6.135   1.539  11.370  0.0275  0.0895 -0.3147
 2737W        W19584  10.629   5.536  12.185 -0.5871  0.1307  0.2420
 2738W        W19585  12.184   5.844   0.506  0.1141  0.1355 -0.0231
 2739W        W19586  15.025   4.316  13.054 -0.2966 -0.1451  0.1289
 2740W        W19587   5.142   6.789   5.541  0.0855  0.0232  0.3569
 2741W        W19588  15.959  15.599   2.758 -0.1039 -0.0505 -0.2053
 2742W        W19589  17.967  14.125   3.134 -0.0528  0.0058 -0.3101
 2743W        W19590  17.355  17.517   2.376  0.0505  0.0873 -0.0650
 2744W        W19591   0.147   1.117  11.618 -0.1086 -0.0233  0.2644
 2745W        W19592  13.519   5.796  12.960  0.1812 -0.2213  0.1784
 2746W        W19593   7.004   4.698  16.508 -0.2795  0.0767  0.1663
 2747W        W19594  16.670   6.367  13.255  0.1547  0.1498  0.0659
 2748W        W19595   3.333  11.088  11.648 -0.1495 -0.4270  0.3941
 2749W        W19596  14.553  12.172   3.880 -0.2021  0.3333  0.1590
 2750W        W19597  17.815   2.227   5.096  0.0159  0.2718  0.2192
 2751W        W19598   3.419  16.694  11.911 -0.0248  0.0988  0.0574
 2752W        W19599  10.518   0.208  12.922  0.3032 -0.0096 -0.2192
 2753W        W19600   0.988  12.660  12.767 -0.1733  0.2467 -0.1199
 2754W        W19601   9.157   9.616  15.473  0.1217 -0.0612 -0.0264
 2755W        W19602   9.544  12.292   4.902 -0.2649 -0.4397 -0.3028
 2756W        W19603  10.217   4.958   0.021 -0.1942 -0.0637  0.4362
 2757W        W19604   0.353   3.407   1.434 -0.0539  0.0523 -0.0834
 2758W        W19605  11.527  17.108   5.254 -0.0797  0.0882 -0.0750
 2759W        W19606  14.282  15.731   5.832  0.3144  0.1146 -0.1313
 2760W        W19607  11.473  10.217  14.850 -0.1223 -0.1519 -0.0491
 2761W        W19608  13.236  16.917   0.154 -0.0319 -0.0795 -0.0277
 2762W        W19609  13.865  11.381   3.258  0.2107 -0.0178 -0.0017
 2763W        W19610  10.362   6.943  13.118  0.0708 -0.1205  0.2881
 2764W        W19611  13.958   4.937   1.651 -0.1491  0.1510 -0.0669
 2765W        W19612   1.601   9.718  12.887 -0.1810  0.1701 -0.0424
 2766W        W19613   6.985  11.264  15.753  0.1056  0.4209  0.1400
 2767W        W19614  17.853  13.039  13.766  0.2998  0.1573 -0.1720
 2768W        W19615   8.313   5.924  16.173  0.1586  0.0594 -0.0336
 2769W        W19616   0.680  17.549   5.551 -0.0063 -0.0167  0.1310
 2770W        W19617   0.082  15.796   0.098 -0.1528 -0.1106  0.1660
 2771W        W19618   2.350   0.521  12.417 -0.0743 -0.1192  0.1099
 2772W        W19619   3.661   1.723  15.362 -0.2225  0.0020  0.0765
 2773W        W19620   2.456  10.211  14.041 -0.2068  0.2613 -0.0807
 2774W        W19621  16.458  11.129  15.314  0.0639  0.1937 -0.1702
 2775W        W19622   1.542  13.368   3.304 -0.0187 -0.0146 -0.2605
 2776W        W19623  11.361  17.846   3.582 -0.0351  0.0419 -0.0624
 2777W        W19624  16.198   0.306  14.215 -0.0090 -0.1759 -0.0305
 2778W        W19625  12.182  10.598   4.389  0.1264  0.0784 -0.2005
 2779W        W19626  10.566  12.455   4.260 -0.0052 -0.0079 -0.0603
 2780W        W19627  15.202  13.621   1.891  0.0374 -0.0716  0.0747
 2781W        W19628   4.617   6.313  16.391 -0.2098  0.0139  0.1186
 2782W        W19629  10.208  12.661  15.798  0.2377  0.0442  0.1077
 2783W        W19630   6.803   9.350   1.103  0.0901 -0.0941 -0.1709
 2784W        W19631  11.573  17.330  13.033 -0.1127 -0.0152 -0.1556
 2785W        W19632   4.809   1.136  12.619  0.1327 -0.0422  0.0431
 2786W        W19633  15.050  10.970  13.243 -0.1392 -0.0062 -0.1283
 2787W        W19634  16.917   5.710  15.068  0.1452  0.1784  0.0026
 2788W        W19635   8.777   8.246   2.603  0.0227  0.0729 -0.0593
 2789W        W19636   0.964   3.696  13.273 -0.3949  0.1544 -0.2906
 2790W        W19637  10.463  16.385  15.770  0.2235 -0.0898  0.0326
 2791W        W19638  15.426  14.844   3.064  0.3805  0.1378  0.1707
 2792W        W19639  16.667  11.408   1.589 -0.2591  0.0689 -0.0163
 2793W        W19640   6.635   1.666  15.093  0.2707 -0.1012  0.2042
 2794W        W19641   8.795  17.079  12.349  0.2077  0.2542 -0.1354
 2795W        W19642  10.025   3.173   4.705  0.2183 -0.1063  0.1107
 2796W        W19643   5.037   5.035  15.321  0.0712 -0.2041  0.2343
 2797W        W19644  13.690  13.985  11.458 -0.2092 -0.1044 -0.3269
 2798W        W19645   3.915   9.019   1.032 -0.1248  0.3790 -0.0257
 2799W        W19646   7.603  17.228  13.485  0.0726 -0.3168  0.1827
 2800W        W19647   7.745   3.569   1.866  0.4627  0.1205 -0.1639
 2801W        W19648  11.232  11.432  14.946 -0.1288 -0.1399  0.2695
 2802W        W19649   1.289  10.056  13.109  0.2306  0.0327  0.2264
 2803W        W19650  12.113   7.419   4.666  0.3506 -0.1074  0.1862
 2804W        W19651  13.471   1.657  12.337  0.2384  0.2471  0.1746
 2805W        W19652   9.732  10.117   5.149 -0.0021  0.1956  0.0764
 2806W        W19653  13.702   1.898   2.892 -0.1562 -0.0267 -0.1938
 2807W        W19654   6.157  13.777   0.627 -0.0697  0.0212  0.2226
 2808W        W19655   5.929   7.321  11.325  0.1671 -0.1820  0.1031
 2809W        W19656   0.772   6.711   5.354  0.1869 -0.1096 -0.2681
 2810W        W19657   8.465   7.624   4.222 -0.2618 -0.1682 -0.0805
 2811W        W19658  15.876   4.391   2.920 -0.0372 -0.1836 -0.1693
 2812W        W19659  17.156  14.188  15.126 -0.3214  0.0519  0.1877
 2813W        W19660   0.356   7.561   0.301 -0.0834  0.0088  0.1412
 2814W        W19661   5.262  10.695   4.515  0.1442 -0.0705  0.1127
 2815W        W19662   4.264  12.361   3.700  0.0899 -0.0972  0.1557
 2816W        W19663   8.329  12.322  11.567 -0.0823  0.2258  0.0834
 2817W        W19664   2.960   6.279   5.429  0.3180  0.0666  0.0801
 2818W        W19665   0.057  15.885   4.827 -0.2937  0.1775  0.1586
 2819W        W19666   3.468   9.756   4.144 -0.1388  0.0409  0.0031
 2820W        W19667   2.278   0.958   5.090 -0.0857 -0.1995  0.3090
 2821W        W19668  14.655  12.915  11.463 -0.1809 -0.2023 -0.2890
 2822W        W19669  17.158   5.677   4.465  0.1049  0.2054  0.1311
 2823W        W19670   2.439  11.246  12.424 -0.1325 -0.2450 -0.1699
 2824W        W19671   2.691   2.224   0.968  0.0047  0.5281 -0.1095
 2825W        W19672  15.607  10.895  12.525 -0.1553 -0.1486  0.0195
 2826W        W19673  11.688  14.222   1.560  0.0847 -0.2303  0.2722
 2827W        W19674   2.618   3.271   5.075 -0.3659  0.2868  0.3478
 2828W        W19675  17.528  10.604   1.020 -0.0719 -0.0917 -0.0396
 2829W        W19676   8.202   2.752   0.810 -0.2041  0.1881  0.3123
 2830W        W19677   8.642  12.514  12.414  0.1448  0.1083  0.1560
 2831W        W19678  15.693   0.742   3.818  0.2363  0.1050 -0.2736
 2832W        W19679  13.836   2.765   4.653  0.0008 -0.1035  0.2316
 2833W        W19680   9.155   4.608  13.571  0.1297  0.2067  0.3602
 2834W        W19681   5.151   4.402  16.170  0.3392 -0.2662 -0.1665
 2835W        W19682   5.770   9.549  15.326 -0.0458 -0.1946  0.4937
 2836W        W19683  12.187   6.297  12.141 -0.0060  0.1541 -0.2649
 2837W        W19684   6.085   6.527  15.385  0.1889 -0.2227  0.1653
 2838W        W19685  12.764   7.616  16.451 -0.2021 -0.0214 -0.1526
 2839W        W19686   2.111  15.382   3.801  0.0325  0.0527 -0.1250
 2840W        W19687  14.156   1.855  14.173 -0.1342 -0.0457  0.0608
 2841W        W19688   3.226   5.154   2.186  0.2472  0.0462  0.0215
 2842W        W19689   4.494  13.681  16.503  0.1446 -0.1286 -0.0653
 2843W        W19690  12.063  13.392   4.744 -0.0074 -0.0936 -0.0960
 2844W        W19691   1.150   0.601   2.517  0.1838  0.2608 -0.0811
 2845W        W19692   9.162   1.125  14.641  0.2116 -0.2219 -0.1463
 2846W        W19693   0.142   2.472   2.651 -0.0343  0.0962 -0.0865
 2847W        W19694  16.239   7.164   5.418 -0.1207 -0.0929 -0.1314
 2848W        W19695  12.413  11.500  14.625 -0.3422 -0.1198  0.0686
 2849W        W19696  15.145  13.400  16.103  0.3186 -0.0676 -0.1610
 2850W        W19697   2.714   8.332  11.892  0.1460  0.0459  0.4246
 2851W        W19698   5.987   9.866   1.935 -0.1363  0.2144 -0.0820
 2852W        W19699   2.553  15.857  12.822  0.1872  0.3387  0.2467
 2853W        W19700  15.411  17.271   3.632  0.1969  0.0781  0.1755
 2854W        W19701   5.615   6.758  16.169 -0.0980 -0.0060  0.1925
 2855W        W19702   2.360  12.068   4.048  0.0131 -0.0361 -0.1830
 2856W        W19703   1.768   4.515   1.567  0.2209  0.0348  0.2355
 2857W        W19704   3.610   5.931   4.369 -0.2107  0.1579  0.0107
 2858W        W19705   7.813   3.351   0.269 -0.0369  0.0144  0.1855
 2859W        W19706   8.094   4.021   2.782  0.1067 -0.0591 -0.1946
 2860W        W19707  11.498  10.061   0.527 -0.1119 -0.1837 -0.0370
 2861W        W19708   9.478   5.185  12.816  0.2553  0.3051 -0.1373
 2862W        W19709  10.551   5.615   1.102 -0.3097  0.0599 -0.0402
 2863W        W19710   8.504   6.113   3.795 -0.4558  0.0574  0.0540
 2864W        W19711  12.364  14.437  15.071 -0.2970  0.0897  0.2374
 2865W        W19712  13.899  11.009   4.058 -0.1463  0.1082  0.2519
 2866W        W19713   9.990  10.526   3.979 -0.1382  0.3143  0.0969
 2867W        W19714   8.199   2.597   0.021 -0.0682 -0.0730 -0.1235
 2868W        W19715   8.832  15.246  15.768 -0.0189 -0.1247  0.0590
 2869W        W19716  10.313   1.235   1.007 -0.0764 -0.0604  0.1817
 2870W        W19717  14.633   1.146  12.042 -0.1232  0.1641  0.2040
 2871W        W19718   9.857   8.449   0.081 -0.1740  0.0804  0.0796
 2872W        W19719   4.497   3.987  14.728 -0.5169  0.0431  0.2817
 2873W        W19720  13.017  13.436  11.838  0.3056 -0.0917  0.0839
 2874W        W19721   3.487  13.096   3.921  0.2237  0.1192 -0.1247
 2875W        W19722  17.915  15.121   4.307  0.2225 -0.0687 -0.0440
 2876W        W19723   0.618   7.554   4.834 -0.2259 -0.2998 -0.0202
 2877W        W19724   0.876   8.941  13.722  0.1764 -0.2851  0.1186
 2878W        W19725  11.834  16.542   0.804 -0.1112  0.1460 -0.2808
 2879W        W19726   6.846   7.758   1.295 -0.1013  0.1187  0.4330
 2880W        W19727   5.087   7.506   0.594 -0.0710 -0.1044 -0.1760
 2881W        W19728   8.876  14.373   3.537  0.0619  0.1900  0.1335
 2882W        W19729  13.560  16.058  15.458 -0.0016 -0.0350 -0.0481
 2883W        W19730  13.550  17.489   2.174 -0.0057  0.2495 -0.1332
 2884W        W19731  15.830   3.319  15.840 -0.1703 -0.1123  0.2810
 2885W        W19732   0.080   5.323   4.387  0.2703  0.0055  0.0445
 2886W        W19733  12.474  16.036  12.025  0.1432 -0.1094 -0.0538
 2887W        W19734   3.915  10.332   4.926  0.0221  0.1720  0.1703
 2888W        W19735   9.045   4.610   5.271  0.0366 -0.2304 -0.0844
 2889W        W19736   1.556   1.270   0.175  0.1799 -0.1635 -0.0338
 2890W        W19737   8.205   1.384   4.211 -0.0676  0.1681  0.0726
 2891W        W19738   0.823   1.042   2.589  0.0452  0.4896  0.0191
 2892W        W19739  10.357  12.865   5.122  0.1833  0.0291 -0.2524
 2893W        W19740   5.800   1.294   2.254  0.2320  0.3340  0.3369
 2894W        W19741   8.803   9.755   3.954 -0.1179 -0.0389 -0.1259
 2895W        W19742  12.302   3.962   0.592 -0.2029 -0.4295  0.1292
 2896W        W19743   9.844  13.955  12.063  0.0889  0.0110 -0.4115
 2897W        W19744   9.858  10.606  13.264  0.1872 -0.0873  0.1647
 2898W        W19745   2.632   8.920  12.725 -0.0417  0.0854 -0.0052
 2899W        W19746  14.799   3.185  12.629 -0.1031  0.2214  0.1177
 2900W        W19747   8.477   8.309   0.106  0.2097  0.3284  0.1263
 2901W        W19748  15.891  17.722  15.033  0.1081  0.0413  0.1605
 2902W        W19749   4.280  14.425   1.974  0.1192 -0.1714 -0.0367
 2903W        W19750   7.883  13.750  14.410 -0.0995  0.0161 -0.2319
 2904W        W19751   6.862  14.482  12.840  0.1945  0.2688  0.0111
 2905W        W19752   6.481   8.725   3.678 -0.3339 -0.0190  0.1322
 2906W        W19753  11.783  14.346  15.968 -0.0944  0.1699  0.0276
 2907W        W19754  14.401   3.106   2.890 -0.0627  0.2009 -0.4838
 2908W        W19755  14.971   6.297   2.707 -0.0387 -0.3313  0.1606
 2909W        W19756   3.535  11.567  15.824 -0.1088 -0.1094  0.1113
 2910W        W19757   4.809   8.581  13.462 -0.2080  0.1215  0.1124
 2911W        W19758   6.045  16.266   2.770 -0.2866 -0.3508 -0.0139
 2912W        W19759   5.516   3.856   0.731  0.0844 -0.0385 -0.1888
 2913W        W19760  12.201   7.455  14.747  0.1929 -0.0853  0.1535
 2914W        W19761  11.620  14.314   4.818  0.1093 -0.2778 -0.1306
 2915W        W19762   5.230  17.855  12.537  0.0485  0.0984 -0.0216
 2916W        W19763  11.120  13.021   3.203  0.0372 -0.1469 -0.1998
 2917W        W19764  11.525   7.205  13.554  0.1343  0.1573 -0.0034
 2918W        W19765  17.749  13.128   4.271  0.0283 -0.2456 -0.2304
 2919W        W19766   8.235  10.600  15.340  0.0982  0.0631 -0.3164
 2920W        W19767  16.194   6.411   5.004 -0.0776 -0.0528 -0.1677
 2921W        W19768  14.411  17.440  13.823 -0.1312 -0.0102  0.2414
 2922W        W19769  10.762  16.658   2.095 -0.1564 -0.0461  0.0715
 2923W        W19770   9.671   1.714  16.488  0.0229 -0.3463  0.3198
 2924W        W19771  16.135   8.422   3.158  0.0632  0.1931 -0.1999
 2925W        W19772  13.644   7.890  16.040  0.0664 -0.1894 -0.2334
 2926W        W19773   9.350   8.515   5.260 -0.2321 -0.0145 -0.3499
 2927W        W19774  17.586   0.535  14.715 -0.1191 -0.1630  0.0844
 2928W        W19775  10.810  11.522  15.744  0.2782 -0.0062 -0.0214
 2929W        W19776  13.338  11.886  13.434 -0.0304  0.4201  0.0683
 2930W        W19777  14.925   8.493   0.791 -0.1128  0.0738  0.0191
 2931W        W19778   2.903   7.132   3.284 -0.2845 -0.0855  0.0401
 2932W        W19779  15.142  17.248  14.739  0.0836 -0.0492  0.0861
 2933W        W19780   0.040   4.837   4.538 -0.0933  0.0338 -0.1163
 2934W        W19781   6.747  17.693  16.253  0.1510 -0.1148 -0.4523
 2935W        W19782  11.244  10.639  12.156  0.1667  0.0144  0.0971
 2936W        W19783  17.676  10.739   5.637 -0.4035 -0.2322  0.1281
 2937W        W19784   6.848  18.032   2.274  0.0784  0.1441 -0.0087
 2938W        W19785   3.307  11.036   3.957 -0.1860 -0.0442 -0.1492
 2939W        W19786  15.189   0.048  16.122  0.0076 -0.1705  0.1238
 2940W        W19787   9.538   5.545  13.507 -0.0595  0.1049 -0.1313
 2941W        W19788   2.946   2.914   0.271  0.0085  0.0447  0.1570
 2942W        W19789  12.593   9.931   4.989  0.0264  0.0954 -0.2425
 2943W        W19790   6.350   0.933   0.119  0.0743 -0.1314 -0.0916
 2944W        W19791  17.515   3.150  15.439 -0.3570 -0.0272  0.1598
 2945W        W19792  11.334  10.873   4.702 -0.0772 -0.2538 -0.0785
 2946W        W19793  14.184   1.138   4.967  0.0337  0.2148 -0.2066
 2947W        W19794   3.796   5.278  12.806  0.2482 -0.2215 -0.3623
 2948W        W19795  16.114   0.257   2.023  0.1311 -0.0222 -0.2617
 2949W        W19796   8.014  18.015  16.473 -0.2762 -0.0777  0.0476
 2950W        W19797  13.386  14.821   3.965  0.0163 -0.1334 -0.1440
 2951W        W19798   2.993  10.313  14.005  0.1587 -0.0757 -0.0647
 2952W        W19799  14.331  15.540  14.376  0.0138  0.2881  0.0189
 2953W        W19800   5.552  14.845  12.942  0.2397  0.1105  0.1812
 2954W        W19801   5.454  12.865   3.801  0.2632 -0.2011 -0.2595
 2955W        W19802  14.633  16.487   0.097 -0.1417  0.1901  0.1374
 2956W        W19803  14.692   7.096  16.051  0.1975  0.0500 -0.0847
 2957W        W19804   6.373  15.385   0.608 -0.3357  0.0820  0.4042
 2958W        W19805  16.773   1.303   3.313 -0.0416  0.0882  0.1453
 2959W        W19806   4.400   1.434  15.684 -0.1217 -0.1062 -0.1338
 2960W        W19807   3.527   0.407   0.528  0.1052 -0.2780 -0.1113
 2961W        W19808   8.990   5.259   1.722  0.0026 -0.2165 -0.1526
 2962W        W19809   1.839  13.502  16.191  0.0521  0.2889 -0.3189
 2963W        W19810   4.806   9.971   0.588 -0.2904 -0.2140  0.0229
 2964W        W19811   3.856   4.515   4.593  0.1967 -0.1289 -0.1568
 2965W        W19812   6.146   5.915   3.825 -0.2739  0.0446 -0.0352
 2966W        W19813   7.256  16.534  14.875 -0.3181 -0.4242  0.1239
 2967W        W19814   6.371   3.481   3.081 -0.0494  0.1048 -0.0882
 2968W        W19815   0.622   7.137  13.664  0.1014  0.3740 -0.1745
 2969W        W19816   7.347  14.573  16.043 -0.2030 -0.3842  0.3587
 2970W        W19817  12.479  15.856  14.210  0.0028  0.0720 -0.0279
 2971W        W19818   5.670   1.311  16.689 -0.0372  0.1361 -0.0991
 2972W        W19819   2.012   4.831  12.055 -0.1922 -0.0439 -0.3629
 2973W        W19820   6.441  14.602  14.471  0.2129  0.2016 -0.3838
 2974W        W19821   4.933   3.405   3.493  0.2950  0.3069  0.2211
 2975W        W19822  13.851   6.617   0.457  0.3340  0.3070  0.3346
 2976W        W19823   8.466  17.285   2.861  0.1302 -0.1982  0.1252
 2977W        W19824   6.248   5.796   4.736  0.1079  0.2251  0.1508
 2978W        W19825   4.669  11.378   3.347 -0.1715 -0.1392  0.0203
 2979W        W19826   3.191   2.651   3.274 -0.4326 -0.1281  0.1812
 2980W        W19827   1.088   5.098   5.076  0.1018 -0.1953  0.1166
 2981W        W19828  15.778  12.441   2.785  0.1579  0.6138 -0.2017
 2982W        W19829   2.982  17.982   0.945 -0.1003 -0.0443 -0.3550
 2983W        W19830  13.198   5.744  16.346 -0.2202  0.2601 -0.1408
 2984W        W19831   7.188  13.715   3.123  0.0633 -0.2164  0.1480
 2985W        W19832   6.143  17.503  13.377 -0.2850 -0.0324  0.1684
 2986W        W19833  15.549  10.099  13.541 -0.0387  0.1286  0.0761
 2987W        W19834  13.901   8.654   3.302  0.0196  0.4019 -0.1295
 2988W        W19835   2.705   5.464   5.273 -0.2406 -0.1582 -0.2025
 2989W        W19836  15.369   8.967   1.940 -0.2091  0.2490  0.3507
 2990W        W19837   8.706  12.486  16.620  0.0982 -0.0207  0.1808
 2991W        W19838  15.408   6.199   3.125 -0.2387  0.0794 -0.2990
 2992W        W19839   9.480   3.385  13.773 -0.1815  0.0687  0.0636
 2993W        W19840  12.013  11.315  14.743 -0.2880  0.1463 -0.2438
 2994W        W19841   7.521  12.427  15.243 -0.1772 -0.0679  0.2364
 2995W        W19842  16.603   3.588   5.469 -0.3010  0.1296  0.1057
 2996W        W19843   0.634   1.370   0.790  0.0462 -0.5056  0.0344
 2997W        W19844  10.782   7.670  13.654 -0.0493  0.0554 -0.1023
 2998W        W19845  17.129  17.549   4.430 -0.1549 -0.2770 -0.0039
 2999W        W19846   4.645   5.690   1.282  0.1148  0.0136  0.2281
 3000W        W19847   0.720  15.322  12.918 -0.0128 -0.0789 -0.1835
 3001W        W19848  13.538   4.956   3.322  0.1175 -0.0805  0.2028
 3002W        W19849   9.605  10.363   3.056 -0.0261 -0.0625  0.0024
 3003W        W19850   0.733  16.337  13.718 -0.1904  0.0950  0.2215
 3004W        W19851   8.919   5.157   0.760 -0.0874 -0.2422  0.0384
 3005W        W19852  11.274   5.488   2.609  0.1249 -0.2395 -0.0372
 3006W        W19853   7.533   3.412  12.162  0.2394 -0.1379  0.0171
 3007W        W19854  10.628  15.306  16.216  0.2059  0.4025  0.2101
 3008W        W19855  12.714   4.549  16.419 -0.2763  0.2728  0.1457
 3009W        W19856  17.849   0.933   3.327 -0.1093  0.1242 -0.0602
 3010W        W19857   4.177  11.221   1.835 -0.0011 -0.0695  0.2717
 3011W        W19858  13.372   0.378  14.834 -0.0617 -0.0881  0.1999
 3012W        W19859  14.147   9.952  16.673  0.1256 -0.0613 -0.3110
 3013W        W19860  15.889   4.585   3.565 -0.1601 -0.1781 -0.1480
 3014W        W19861   0.280   2.319  12.315  0.3498  0.3630 -0.0681
 3015W        W19862   3.515  13.851   3.442 -0.0010 -0.1181 -0.1527
 3016W        W19863   5.586   5.278  15.477  0.0822 -0.1474 -0.2719
 3017W        W19864  10.166  13.032  14.437 -0.0490 -0.1408 -0.1308
 3018W        W19865   9.717  15.060  11.512  0.0212 -0.0741  0.0549
 3019W        W19866   9.634  17.712  10.516  0.3004 -0.3894  0.3753
 3020W        W19867  11.441   4.254  12.398  0.0856  0.0595  0.1380
 3021W        W19868   5.848  12.721   4.626 -0.0873 -0.1052 -0.2235
 3022W        W19869   5.176  12.660  12.097 -0.0513 -0.1693  0.0736
 3023W        W19870   7.347  10.778  11.840  0.2608  0.0556 -0.4204
 3024W        W19871  15.890   7.745  16.028 -0.0865 -0.0574  0.2301
 3025W        W19872  13.747   6.741   3.880  0.1400 -0.2527 -0.1615
 3026W        W19873   6.106   6.579  16.223  0.2973  0.3743 -0.1125
 3027W        W19874  14.570  14.620   4.000 -0.1200 -0.0419 -0.1406
 3028W        W19875   9.992   9.233  15.851  0.0854 -0.0748  0.0928
 3029W        W19876   7.832   5.327   0.208  0.0576 -0.2732 -0.1272
 3030W        W19877  16.148   2.501  15.399 -0.1531 -0.0153  0.3591
 3031W        W19878   3.125   1.868  11.403 -0.1685  0.2055  0.1070
 3032W        W19879   0.572   1.444   2.675  0.1672  0.0442 -0.1746
 3033W        W19880  11.134  10.867  14.136 -0.3267 -0.0529  0.0497
 3034W        W19881  15.545   9.515   1.908 -0.0256 -0.2076 -0.2219
 3035W        W19882  14.484   0.497  16.547 -0.0649  0.1218 -0.0217
 3036W        W19883  17.138  11.722  12.576  0.1171  0.1011 -0.0823
 3037W        W19884   5.737  13.151  14.374 -0.1078 -0.0512 -0.1784
 3038W        W19885   8.545  16.841   3.816  0.1942 -0.0318  0.0540
 3039W        W19886  15.824   3.769   0.518 -0.0038 -0.1139  0.1321
 3040W        W19887  15.570  15.371   4.326 -0.0620  0.0517 -0.2121
 3041W        W19888  14.873  14.058   2.485 -0.3190  0.5117 -0.0003
 3042W        W19889   4.754  11.149   3.801  0.2954  0.0663 -0.1423
 3043W        W19890   0.122   4.010  16.549  0.0946 -0.3311 -0.1336
 3044W        W19891   8.776  15.676   0.258 -0.0824 -0.2603  0.0286
 3045W        W19892  15.913   7.692  14.937  0.2774  0.3736 -0.4001
 3046W        W19893  15.652  17.058   4.377  0.1014 -0.1108  0.1454
 3047W        W19894  17.012   3.659   5.057 -0.1857 -0.2879 -0.0140
 3048W        W19895   6.218  12.778  14.075  0.1686 -0.3032 -0.0088
 3049W        W19896  10.588  16.393   4.936  0.0269 -0.2174  0.0917
 3050W        W19897   4.480   4.137  15.275  0.2502 -0.0965 -0.0278
 3051W        W19898   7.425  15.007  13.976 -0.1326  0.2062 -0.0491
 3052W        W19899   9.599  15.929  15.010  0.0716  0.1915  0.1933
 3053W        W19900  17.618   5.843  12.926  0.0406 -0.1446  0.1588
 3054W        W19901  11.052   2.938   3.279  0.0602 -0.1664 -0.0314
 3055W        W19902   1.666  15.653   3.623  0.0512 -0.1491  0.0426
 3056W        W19903  12.541  17.808   1.665 -0.3409  0.1883 -0.1970
 3057W        W19904   5.033   4.771  14.897 -0.1250  0.1121 -0.0253
 3058W        W19905  11.302   9.373   4.765  0.0410 -0.2293 -0.0574
 3059W        W19906   8.296   4.906   4.775  0.1096 -0.1832 -0.2016
 3060W        W19907   7.545   1.958   2.142 -0.0765 -0.1724 -0.2223
 3061W        W19908   1.455  14.045  15.760 -0.1653  0.1572  0.2360
 3062W        W19909   7.136   1.646  12.509 -0.0232 -0.1387 -0.0134
 3063W        W19910   8.275   4.473  14.039  0.0592 -0.0797  0.1677
 3064W        W19911   8.072   3.216   4.048 -0.1810 -0.0062  0.1958
 3065W        W19912   3.933   2.403  13.826 -0.1389  0.0191 -0.1820
 3066W        W19913   8.044   2.132   5.964  0.0023  0.1814 -0.1513
 3067W        W19914  14.425   1.344   2.314  0.0311  0.4226  0.0897
 3068W        W19915   0.303   9.334  13.033 -0.0048  0.2555  0.0315
 3069W        W19916   5.817   3.730  14.972  0.0378 -0.2693  0.4301
 3070W        W19917   4.841  10.403   4.959  0.2243 -0.1663 -0.3214
 3071W        W19918  12.431   3.313  12.665 -0.1407 -0.1756  0.2104
 3072W        W19919   6.423  13.947   2.035 -0.0413 -0.2381 -0.0816
 3073W        W19920   5.948  13.696  13.374 -0.2085 -0.1675  0.0080
 3074W        W19921   2.311  14.295   5.647  0.1504  0.0986 -0.2413
 3075W        W19922   5.891  13.141   2.575 -0.0808 -0.0443 -0.2504
 3076W        W19923   7.245   8.666   2.373 -0.6038 -0.0026 -0.3039
 3077W        W19924   7.969  16.960   1.151  0.1147  0.1136  0.0210
 3078W        W19925  12.981  16.620   1.406  0.2025  0.1664 -0.0360
 3079W        W19926  17.097   3.041   1.874  0.3070 -0.1915 -0.3963
 3080W        W19927   6.101   9.905   5.306 -0.0267 -0.1145 -0.0172
 3081W        W19928  14.915  17.194  11.889  0.3852 -0.0575  0.1724
 3082W        W19929  16.643  10.317  13.485 -0.2075 -0.1563 -0.4185
 3083W        W19930  12.450  10.067  13.896  0.5258 -0.1822  0.0691
 3084W        W19931   9.571   3.828  16.405 -0.1284 -0.1852  0.0556
 3085W        W19932   2.552  17.464   0.373  0.2121  0.1677  0.3157
 3086W        W19933   9.719  13.834  13.848  0.1441  0.0923 -0.1848
 3087W        W19934  13.128   0.402   4.398 -0.2157  0.1027  0.2096
 3088W        W19935  12.634  12.223   3.887  0.1617  0.2710  0.4373
 3089W        W19936  14.740   1.258   1.197  0.1827  0.0453  0.2990
 3090W        W19937  15.001  15.589  15.379 -0.3620  0.1197  0.2594
 3091W        W19938   1.218  16.298   2.912  0.2586 -0.2559  0.1253
 3092W        W19939  17.998  10.116  14.588  0.1255  0.0069 -0.0315
 3093W        W19940   9.600  10.408   2.557  0.0402  0.2686 -0.0591
 3094W        W19941   7.337   0.484  15.236 -0.0151  0.1436 -0.0936
 3095W        W19942   3.886  11.935  15.562  0.0236  0.0927  0.1487
 3096W        W19943   8.359  16.492   0.844  0.2076 -0.0181 -0.1219
 3097W        W19944   7.358   1.874   0.817 -0.1975 -0.1458  0.2611
 3098W        W19945   7.058   9.369  13.581  0.4405  0.1809 -0.2254
 3099W        W19946  10.036   2.190   4.133 -0.0300 -0.0345  0.3805
 3100W        W19947  15.069  12.965  14.605 -0.3223 -0.1645 -0.1066
 3101W        W19948  11.929  12.001   6.142  0.0961 -0.0308  0.2660
 3102W        W19949   5.721   4.788   3.700  0.3208  0.1541  0.1324
 3103W        W19950   5.980  12.572   6.361 -0.0416 -0.0980 -0.0398
 3104W        W19951   1.213   1.504  16.652  0.1587 -0.0860 -0.3350
 3105W        W19952  16.266  11.023  16.122  0.0673 -0.1509  0.1406
 3106W        W19953   7.139   8.939   1.199  0.1177  0.0532 -0.0497
 3107W        W19954  17.305  13.010   2.878 -0.0495 -0.0235 -0.1116
 3108W        W19955  10.916   5.440  12.937  0.0116 -0.1217  0.0298
 3109W        W19956  11.074   7.186  12.603  0.1944  0.3721  0.2009
 3110W        W19957  14.879   5.257  16.679 -0.2267 -0.2256  0.4037
 3111W        W19958  15.400   4.074   4.808 -0.0020 -0.0982  0.1002
 3112W        W19959   6.108   1.629   5.074 -0.2638 -0.0685 -0.0880
 3113W        W19960   0.201  15.062   6.156 -0.0888  0.0975  0.0190
 3114W        W19961   3.004   0.761   0.182  0.0307 -0.0107 -0.2204
 3115W        W19962  10.166   6.279   0.712  0.0126 -0.2383  0.1989
 3116W        W19963   0.099   1.835  16.270  0.2453 -0.1935 -0.3661
 3117W        W19964   6.365   0.058   2.239 -0.0721  0.1518 -0.0105
 3118W        W19965   2.900   4.099  15.895  0.1749  0.3380 -0.1357
 3119W        W19966  10.536   5.699  14.493  0.2807  0.1547  0.1548
 3120W        W19967   2.556  15.687   3.663 -0.1219  0.1873 -0.2100
 3121W        W19968  15.647  10.797   0.108  0.0123  0.0690 -0.3106
 3122W        W19969   7.867  16.291   4.244  0.0265  0.2444  0.0909
 3123W        W19970  15.220   8.573   2.305  0.1766 -0.0023  0.0033
 3124W        W19971   9.912  17.631   5.063 -0.3435 -0.3515  0.1849
 3125W        W19972   3.306  15.260   4.783  0.3374  0.1596 -0.2220
 3126W        W19973  11.874   5.643  14.265 -0.3721 -0.1877 -0.4918
 3127W        W19974  14.842  13.410   3.462 -0.0070  0.1685  0.3992
 3128W        W19975   3.560   3.085   4.470  0.0343 -0.5108  0.1197
 3129W        W19976  10.647  16.866  14.687  0.0840  0.1956  0.2016
 3130W        W19977   4.363  10.793   5.904 -0.1551  0.0016 -0.2498
 3131W        W19978   7.818  14.495  12.500  0.1028 -0.1494  0.0793
 3132W        W19979  13.162   8.496  14.750 -0.3601  0.3452  0.1069
 3133W        W19980  15.285   5.385  14.849 -0.1009 -0.2112 -0.2678
 3134W        W19981  18.043   4.189   1.088 -0.3152  0.1202  0.0957
 3135W        W19982   9.956  11.486  14.717 -0.2962  0.1969  0.1421
 3136W        W19983   9.494   8.255  14.009  0.0449  0.0265 -0.0770
 3137W        W19984   6.635   8.150   0.954 -0.0859 -0.1640 -0.2441
 3138W        W19985  11.015   5.165   2.901 -0.4349 -0.1587  0.0086
 3139W        W19986   4.847   2.842  15.903  0.0282 -0.0964 -0.0493
 3140W        W19987  16.672   0.042  16.338  0.0058 -0.1510 -0.1041
 3141W        W19988   6.185  12.394  13.171  0.3090  0.2631 -0.4345
 3142W        W19989   8.538   4.999   2.940 -0.1549 -0.0662  0.1536
 3143W        W19990  11.959  10.592   2.819  0.1232  0.1311  0.0003
 3144W        W19991   6.250   4.000   2.307  0.0945  0.0989 -0.0557
 3145W        W19992   6.201  10.767   4.924  0.0788 -0.3141 -0.4471
 3146W        W19993  10.526  12.844   3.427 -0.1973 -0.2282  0.2101
 3147W        W19994   9.203   0.222   3.799 -0.1339  0.3552  0.1039
 3148W        W19995  12.255   6.290   1.927 -0.1671  0.0659  0.0455
 3149W        W19996   6.825   5.670   4.646 -0.0067 -0.0345  0.2060
 3150W        W19997   4.611  10.585   3.018  0.1476  0.0178 -0.1938
 3151W        W19998   7.615   2.940  15.945 -0.2265  0.2791 -0.1443
 3152W        W19999   4.169   1.752  14.888  0.1895  0.0716 -0.1395
 3153W        W20000  13.166   6.947  14.882  0.0863  0.2032 -0.1766
 3154W        W20001  12.316  16.731  14.915  0.1626 -0.1152  0.3062
 3155W        W20002  17.118   8.919  15.023  0.1696 -0.3640 -0.0811
 3156W        W20003  12.598  14.934  15.753 -0.1088 -0.2528 -0.0380
 3157W        W20004   7.014   5.045  15.113  0.2558 -0.0544  0.2460
 3158W        W20005   6.315   6.505  14.924 -0.4263  0.2799  0.1232
 3159W        W20006  13.866  16.916   3.080  0.1368  0.0369 -0.1884
 3160W        W20007   0.870   9.715   0.687  0.4750  0.0798  0.1657
 3161W        W20008   6.291   1.930   1.110 -0.3794 -0.2873  0.0466
 3162W        W20009  10.647  11.210   2.521 -0.3682  0.3161  0.1278
 3163W        W20010  17.077   0.442  15.622  0.0409 -0.0351 -0.1887
 3164W        W20011   2.910  14.982  14.809  0.0303 -0.1469  0.0099
 3165W        W20012   9.012  15.259   0.471 -0.1904  0.0041 -0.0953
 3166W        W20013   8.256  13.121  15.336 -0.3415  0.0846  0.0838
 3167W        W20014  16.315  12.082  14.991  0.1526 -0.1523  0.2357
 3168W        W20015  12.409   5.084  16.678 -0.0418  0.0040 -0.2108
 3169W        W20016   0.712   1.075  12.396  0.0236 -0.2099  0.0663
 3170W        W20017  12.549   3.104  11.182  0.0245 -0.1436  0.0586
 3171W        W20018  10.284  11.436   0.211  0.1573 -0.1473 -0.2786
 3172W        W20019  10.336   1.631   3.746  0.1876  0.0378  0.0041
 3173W        W20020   1.005   3.451  16.083  0.1952  0.0262 -0.1156
 3174W        W20021   8.612  12.463   0.528 -0.1008  0.2126  0.0443
 3175W        W20022   4.736   1.154  14.790 -0.2658  0.4300 -0.2837
 3176W        W20023  11.980  10.312  13.935 -0.0097 -0.2948  0.0846
 3177W        W20024   8.589   1.419   1.968 -0.2672  0.0010 -0.0090
 3178W        W20025   8.820   3.699  15.888 -0.0381 -0.3862  0.0418
 3179W        W20026   8.710   9.959  13.244 -0.1717 -0.0945 -0.0740
 3180W        W20027  13.634  15.742  12.457 -0.1910 -0.0379  0.0334
 3181W        W20028  15.238   9.292  11.565 -0.0712 -0.0951 -0.0497
 3182W        W20029   8.456  17.353  12.559  0.3552 -0.0098  0.0673
 3183W        W20030   8.013  14.883   2.985  0.1500 -0.0409  0.0120
 3184W        W20031  12.477   7.228   1.275 -0.2830 -0.0024 -0.1254
 3185W        W20032   6.562   9.246   2.388 -0.2517 -0.2278  0.0019
 3186W        W20033   5.612  16.731  10.442 -0.2592  0.2824  0.5420
 3187W        W20034  17.040  10.212   2.891 -0.1797  0.2412  0.2092
 3188W        W20035   5.502   2.677  15.191  0.0000 -0.2340  0.0500
 3189W        W20036   4.346  16.023   5.053 -0.2294 -0.3006 -0.0387
 3190W        W20037   8.529  15.710  15.132  0.2441  0.1080  0.0755
 3191W        W20038   2.940   8.715  13.926  0.2673  0.0465  0.0223
 3192W        W20039  12.437  14.712   3.683 -0.0177  0.1116  0.1580
 3193W        W20040  11.374   4.698   1.632 -0.2533 -0.2326  0.1218
 3194W        W20041   3.816  12.769   3.467 -0.1020  0.2352  0.1298
 3195W        W20042   1.283   6.548  14.073 -0.0958  0.0092 -0.2052
 3196W        W20043   5.070  17.436  12.201  0.2499  0.0717  0.0684
 3197W        W20044  14.903  16.991  15.731  0.5260 -0.4851  0.0781
 3198W        W20045   4.824   2.975  12.608 -0.0373 -0.2700  0.1457
 3199W        W20046  13.787  13.555   0.589 -0.0059 -0.2038  0.1002
 3200W        W20047   9.967   9.352   0.215 -0.0973  0.1476 -0.0732
 3201W        W20048  12.979  12.966  11.771  0.0445 -0.1710  0.0855
 3202W        W20049  13.909  11.457   0.509  0.0766  0.0805 -0.3454
 3203W        W20050   2.275  17.832   2.080 -0.0085 -0.0837 -0.1224
 3204W        W20051   3.454   9.014   1.420  0.0524  0.3873 -0.0276
 3205W        W20052   4.410  16.274  12.458  0.1726  0.1061  0.0579
 3206W        W20053  17.191  12.623   2.541 -0.2991 -0.0385 -0.0347
 3207W        W20054   7.275   4.873   4.833 -0.1795  0.0326  0.1768
 3208W        W20055   4.041  15.290   1.631 -0.0918  0.0508  0.0981
 3209W        W20056  10.322   2.580  15.500  0.0342 -0.1013  0.2489
 3210W        W20057   3.905  13.758  13.408  0.1625  0.0743  0.3906
 3211W        W20058  14.409   1.963  12.975  0.1453  0.2680  0.0997
 3212W        W20059   2.707   4.573  15.679 -0.1635  0.2795  0.0430
 3213W        W20060   2.442  11.918   3.535 -0.1479  0.2109 -0.1280
 3214W        W20061  10.145  16.285   2.291  0.1054  0.1387  0.0766
 3215W        W20062   8.815   3.078  12.519  0.2115 -0.0129  0.1045
 3216W        W20063   4.956  14.045  15.166 -0.3794  0.1442 -0.1307
 3217W        W20064  17.906  14.855  12.839 -0.1667 -0.2470 -0.0383
 3218W        W20065  13.350   7.978   2.712 -0.0244  0.0108 -0.1766
 3219W        W20066   4.485   2.853   2.518 -0.0852  0.0268  0.1565
 3220W        W20067   3.721  17.123   0.362 -0.0555 -0.0632  0.0434
 3221W        W20068   3.996   7.879  16.478 -0.3386  0.1133 -0.0119
 3222W        W20069  13.613   4.397  11.800 -0.2701  0.1801  0.1244
 3223W        W20070  12.176   4.789  11.850  0.1653 -0.1532 -0.2913
 3224W        W20071  10.610  10.215  12.912 -0.1602 -0.2845 -0.1398
 3225W        W20072   5.549  11.123   4.493  0.0386  0.2059  0.0069
 3226W        W20073   6.144  13.969  15.080 -0.4210  0.3137  0.0949
 3227W        W20074   2.800  11.136   3.843  0.2341  0.0328  0.0393
 3228W        W20075   9.212   2.514  11.767 -0.0955 -0.0836 -0.1736
 3229W        W20076   7.283  11.019   1.636 -0.1600 -0.2914  0.3136
 3230W        W20077   5.446  16.347  15.595  0.1190 -0.0092  0.0255
 3231W        W20078  13.154  15.537  15.931  0.2035 -0.2627 -0.0561
 3232W        W20079   3.133   3.317  11.399 -0.0236 -0.1894  0.2408
 3233W        W20080  15.719   8.434  13.275  0.1235 -0.0833 -0.4198
 3234W        W20081   0.488   2.133  15.519  0.2033 -0.4385 -0.1300
 3235W        W20082  10.753   5.317   0.364 -0.0375 -0.0487 -0.0015
 3236W        W20083   1.222  15.968   1.808 -0.2841  0.0874  0.2028
 3237W        W20084  16.069   9.972   4.073 -0.1834  0.0362  0.1214
 3238W        W20085   7.915  17.288  12.509 -0.2154 -0.2114 -0.0165
 3239W        W20086   4.674   9.919  12.932  0.0236  0.1786 -0.0474
 3240W        W20087  12.622  11.266  12.019  0.0896  0.0380  0.1590
 3241W        W20088   5.421   8.293  15.080 -0.2867 -0.1308  0.0203
 3242W        W20089  15.016   2.675  12.610  0.0627  0.1294 -0.0153
 3243W        W20090  17.112  17.626  15.643  0.1711  0.4648  0.1715
 3244W        W20091  11.278   7.628  13.758  0.1679 -0.2436 -0.0351
 3245W        W20092  13.885   9.681   3.927  0.0180  0.2095 -0.2214
 3246W        W20093   2.960  14.714  15.615 -0.0550 -0.5199  0.1100
 3247W        W20094   8.982   8.910  12.075 -0.0423 -0.0707 -0.1701
 3248W        W20095   7.824   8.753   2.477 -0.2826 -0.0738 -0.0121
 3249W        W20096   0.180   9.414   5.653 -0.0077 -0.1672 -0.3381
 3250W        W20097   5.502  16.129   5.786  0.0287 -0.1021 -0.0064
 3251W        W20098   7.947  12.788   1.774 -0.3115 -0.1445  0.0807
 3252W        W20099   0.593   4.578  15.308  0.1885 -0.0697  0.1778
 3253W        W20100  11.072  11.174  11.474  0.1528  0.0253 -0.3625
 3254W        W20101   1.929   5.979   5.688 -0.3375  0.3160 -0.0692
 3255W        W20102   8.297   7.790   5.175  0.2410 -0.2672 -0.0060
 3256W        W20103   0.619  15.650   1.266  0.2009 -0.1953 -0.0623
 3257W        W20104   6.374  13.406   4.893  0.1089  0.0104  0.1513
 3258W        W20105  10.254  16.663   0.441 -0.0592 -0.3856  0.0527
 3259W        W20106   3.296   2.079   2.764  0.1276 -0.2023 -0.0883
 3260W        W20107  16.875   3.251  16.342  0.1625  0.0144 -0.3153
 3261W        W20108  10.551  11.188  11.517 -0.2968 -0.1275 -0.0159
 3262W        W20109   9.001   9.853  11.995 -0.5332  0.1044  0.1740
 3263W        W20110   0.468  16.646  15.092 -0.1254  0.0612 -0.0406
 3264W        W20111   4.517   0.760   5.148  0.1247 -0.1271  0.1319
 3265W        W20112  15.186   7.125   4.717  0.0671  0.0101 -0.0805
 3266W        W20113  12.049  10.783  14.878 -0.0477 -0.4696  0.0010
 3267W        W20114   8.798   0.444  15.692  0.1200 -0.1213 -0.0313
 3268W        W20115   6.029  12.011   5.516 -0.3238 -0.0221  0.0577
 3269W        W20116  13.136  14.808  11.164 -0.2019 -0.0396  0.5376
 3270W        W20117  15.307   5.577   0.200  0.3976 -0.1269  0.2924
 3271W        W20118   3.339   9.991  15.845 -0.2253  0.0468 -0.1343
 3272W        W20119   0.580  14.378   4.412 -0.0356 -0.1892 -0.2366
 3273W        W20120   1.647  17.064   5.117  0.0861 -0.1894 -0.2451
 3274W        W20121   3.766   8.234   0.882 -0.2726 -0.2910 -0.1674
 3275W        W20122  16.080   8.390  14.188  0.0668 -0.1490  0.2876
 3276W        W20123  12.909  12.934   2.775 -0.1838 -0.1325  0.0145
 3277W        W20124  17.671   8.880  12.913 -0.1467 -0.2082  0.2443
 3278W        W20125  15.379  14.161  15.827 -0.2416 -0.0083  0.1446
 3279W        W20126  17.419  17.121  14.585  0.0980  0.1658  0.1187
 3280W        W20127  11.561  16.480  14.923 -0.5396  0.2916  0.0687
 3281W        W20128   5.039  11.621   5.589 -0.2030  0.0944  0.0120
 3282W        W20129   1.079   1.228   0.913 -0.0228  0.1711  0.0661
 3283W        W20130   4.371   8.028  14.882  0.0656 -0.0238 -0.0870
 3284W        W20131   9.043   9.480  14.960 -0.0505 -0.1109 -0.0182
 3285W        W20132  14.080  14.166  15.341 -0.1677  0.3006 -0.1912
 3286W        W20133   9.503  13.391   2.092  0.3488  0.1869 -0.0238
 3287W        W20134  12.604  14.161  11.032  0.0891  0.1838  0.0808
 3288W        W20135  17.776   5.404   2.859 -0.0648 -0.0287 -0.0555
 3289W        W20136   9.646  14.922  13.522 -0.1404  0.0827 -0.0459
 3290W        W20137   3.450  12.739  12.976  0.0331  0.1241 -0.2729
 3291W        W20138  15.252   9.693  15.434 -0.2045  0.1730 -0.0077
 3292W        W20139   1.115  17.428   2.131 -0.0995 -0.0209 -0.1588
 3293W        W20140  14.804   1.770   2.336 -0.0896 -0.2817 -0.0003
 3294W        W20141  10.800   0.671  14.517 -0.0841 -0.1075  0.0247
 3295W        W20142  14.127  14.371   4.273  0.1071 -0.2236 -0.0834
 3296W        W20143   7.555  11.112  15.146  0.0474 -0.1740 -0.0416
 3297W        W20144   2.581  16.949   2.793 -0.1146 -0.1048 -0.1430
 3298W        W20145  11.261   2.988  16.167  0.3626 -0.2335 -0.1197
 3299W        W20146   4.303  17.170  12.663  0.3760 -0.1251  0.3224
 3300W        W20147   2.333   7.351   5.639  0.2167  0.0283  0.1170
 3301W        W20148   4.512  14.628  12.309  0.1714 -0.0918  0.2650
 3302W        W20149   6.534   3.303  12.247  0.2409  0.0978  0.1593
 3303W        W20150   9.987  13.730   5.760  0.4214  0.3152 -0.2212
 3304W        W20151  15.079   8.473  13.944  0.0432  0.1055 -0.0617
 3305W        W20152  11.623   1.368  11.473  0.2735 -0.1479  0.0689
 3306W        W20153  17.422  17.712  14.114  0.4132 -0.0298  0.0160
 3307W        W20154   2.649  10.011   1.912  0.0526 -0.0341  0.1165
 3308W        W20155   6.854   4.250  16.675 -0.0620  0.0507 -0.0826
 3309W        W20156   6.415  13.962  12.310 -0.3166 -0.0136 -0.0097
 3310W        W20157   3.587   2.690   4.737  0.5063 -0.2634  0.0816
 3311W        W20158  11.119  14.078  11.689 -0.3345 -0.0115 -0.1418
 3312W        W20159  13.267  15.427  14.392 -0.3053 -0.0344  0.0198
 3313W        W20160   3.020   9.542   2.730  0.2641 -0.0805 -0.0427
 3314W        W20161  14.689  11.971   3.456  0.3171 -0.0124  0.0488
 3315W        W20162   0.655  17.118   3.221  0.2769  0.0497 -0.0112
 3316W        W20163   2.829  12.848   2.520 -0.0855  0.2129 -0.4268
 3317W        W20164   3.719   2.521   5.292  0.1577 -0.0902 -0.1832
 3318W        W20165  10.722  13.234   4.992 -0.1779 -0.3143  0.1184
 3319W        W20166  14.072   8.246   4.142  0.1507  0.3834 -0.1562
 3320W        W20167   0.503  14.978  16.508  0.0264 -0.1035 -0.1287
 3321W        W20168   3.658   6.102   1.044  0.0571  0.2905  0.0510
 3322W        W20169   5.410  17.481   3.030 -0.0871  0.0082  0.2537
 3323W        W20170   0.577   0.266   3.216 -0.1886 -0.0264 -0.1093
 3324W        W20171   1.846   3.255   4.589 -0.0197 -0.2232  0.1426
 3325W        W20172   3.302  13.079  15.992 -0.2004 -0.1532 -0.3439
 3326W        W20173  15.219   6.232   1.299 -0.2084  0.2413  0.0020
 3327W        W20174   5.061   1.848   0.679  0.2001  0.0494 -0.0331
 3328W        W20175  14.861  11.038  11.881 -0.1866 -0.1260 -0.2622
 3329W        W20176   9.965  12.558   5.215 -0.0155  0.0118  0.1961
 3330W        W20177   1.551  13.542  15.773 -0.2814  0.1380  0.2561
 3331W        W20178  16.158   4.578  16.570 -0.1348 -0.1428 -0.1710
 3332W        W20179   6.316   4.060   2.818  0.1154  0.1765  0.2324
 3333W        W20180   9.282  15.175  14.660  0.0922 -0.0726  0.1095
 3334W        W20181   6.344   4.543  13.109 -0.1289  0.0439  0.0211
 3335W        W20182  16.711   4.414   5.049 -0.0096 -0.1157 -0.0487
 3336W        W20183   2.374  11.190   3.594 -0.0334 -0.1047  0.1933
 3337W        W20184   2.721  16.667   1.506  0.1483 -0.0578  0.0473
 3338W        W20185   9.994   6.443  16.433  0.1222  0.1305  0.0187
 3339W        W20186  13.427  12.973  15.274  0.1661  0.1944  0.1828
 3340W        W20187  13.166   5.470   1.085  0.0052 -0.1308  0.2359
 3341W        W20188   6.197  17.097   5.148  0.0021 -0.0320  0.0084
 3342W        W20189   9.232   7.391   4.870  0.2110  0.0485  0.0671
 3343W        W20190  12.904   7.286   3.215 -0.1257 -0.1604  0.0215
 3344W        W20191  11.086  15.005   2.518 -0.1504 -0.0801 -0.3577
 3345W        W20192  11.818  15.991  12.543 -0.0295  0.0025  0.2055
 3346W        W20193  13.156  13.647  12.743  0.0932  0.0111  0.1349
 3347W        W20194  15.739  10.540   0.574  0.2669 -0.1114 -0.2087
 3348W        W20195  10.196  15.348  11.543 -0.3267 -0.2731 -0.0033
 3349W        W20196  14.432  16.537   1.220  0.4036 -0.0664 -0.3030
 3350W        W20197   8.353  12.164   0.211  0.0987 -0.3605  0.1305
 3351W        W20198   3.834  15.386  13.838  0.1454  0.0705  0.1372
 3352W        W20199   6.398  12.178   5.756  0.0319 -0.4962 -0.2729
 3353W        W20200  15.187   7.144   5.312 -0.2285  0.1027  0.0572
 3354W        W20201   2.059   7.694   1.766  0.1120 -0.1800  0.1667
 3355W        W20202  12.865   7.229  12.950  0.0155  0.0279  0.1463
 3356W        W20203  11.423  11.086  16.347 -0.3271 -0.0135  0.2336
 3357W        W20204   3.347  10.676  11.950 -0.0034 -0.0079  0.0799
 3358W        W20205   7.941   9.810   4.553  0.0087  0.0907  0.0675
 3359W        W20206  14.577  16.036   5.065  0.1696  0.0475 -0.1971
 3360W        W20207  10.997  15.126  12.834 -0.1294  0.3553  0.3905
 3361W        W20208  16.824  13.098   3.253 -0.1206  0.2174 -0.2465
 3362W        W20209  11.725   6.912  11.757  0.0469  0.1084 -0.0998
 3363W        W20210   8.540  15.127   2.887 -0.0803  0.1800 -0.0251
 3364W        W20211  13.416  17.812  15.632 -0.1187 -0.0209  0.2739
 3365W        W20212  11.055  12.026   3.161  0.0250 -0.0041  0.1010
 3366W        W20213   0.270   0.918  12.366 -0.3356  0.0230 -0.0582
 3367W        W20214  13.250  13.645   0.543 -0.1272  0.2747 -0.1786
 3368W        W20215   3.351  15.609  15.688  0.2877  0.1633  0.0606
 3369W        W20216   6.212  13.405  14.159 -0.2102 -0.1445 -0.0908
 3370W        W20217  16.876   4.019   1.780  0.0594  0.0435 -0.4035
 3371W        W20218   7.752   5.687   4.656 -0.2295  0.0381 -0.0983
 3372W        W20219  10.477   0.635  10.573 -0.1116  0.1887 -0.0593
 3373W        W20220  13.367   3.287  15.759  0.1022  0.0369  0.0779
 3374W        W20221   5.049   3.148  16.602 -0.0609 -0.2838  0.2655
 3375W        W20222   5.185   4.408   4.786 -0.0008  0.0691 -0.3284
 3376W        W20223   0.500   6.257   5.369  0.0383 -0.2984 -0.1281
 3377W        W20224  10.994  16.194   2.344 -0.0678  0.4823 -0.0590
 3378W        W20225   8.117  15.414   2.594 -0.2663  0.0156  0.2272
 3379W        W20226  15.648   7.012  13.954  0.0236 -0.0050 -0.1980
 3380W        W20227   6.861  11.908  12.994 -0.1357 -0.0504 -0.3499
 3381W        W20228   6.577   9.191   1.589 -0.1357 -0.2167 -0.2521
 3382W        W20229  14.436   2.115   2.693  0.1250  0.0741 -0.0477
 3383W        W20230  13.198  14.975   2.013  0.1172  0.1377 -0.0624
 3384W        W20231  12.709  12.997   1.202  0.1493 -0.0310  0.1837
 3385W        W20232  16.640  12.578   2.532 -0.3089  0.1182  0.1881
 3386W        W20233  11.724  16.297   1.311  0.0569 -0.0709  0.1307
 3387W        W20234   6.646   8.850   1.066  0.0374 -0.3985 -0.1200
 3388W        W20235   7.708   4.111   5.773 -0.1785  0.0926  0.1666
 3389W        W20236   5.139   3.427  15.001  0.1293 -0.1415 -0.1320
 3390W        W20237  17.298   7.663   4.693 -0.1702  0.0145 -0.0346
 3391W        W20238  11.223  13.152   4.036 -0.1168  0.2024 -0.0716
 3392W        W20239   9.849   7.381   4.565 -0.0424 -0.0428  0.3257
 3393W        W20240   1.876  12.659   4.905  0.0196 -0.1787 -0.2510
 3394W        W20241  11.075   0.946  16.537 -0.1320 -0.0284 -0.0021
 3395W        W20242   2.710  14.788   3.864  0.3981  0.2957 -0.1645
 3396W        W20243  10.615   4.344   1.939  0.0646  0.2934  0.1011
 3397W        W20244   7.165   4.263  13.210 -0.0854  0.0037 -0.1510
 3398W        W20245  13.090  10.718  16.563 -0.2332 -0.2046  0.1431
 3399W        W20246  11.928  12.003  15.487 -0.0390 -0.0078 -0.0449
 3400W        W20247  17.822  11.256   0.512 -0.0263  0.2053  0.1205
 3401W        W20248  17.617  11.914   1.369 -0.1146 -0.4856  0.0216
 3402W        W20249  11.665  16.292  14.366  0.0018 -0.0175  0.0324
 3403W        W20250   6.514  11.664   4.914  0.0487 -0.1756  0.0514
 3404W        W20251   1.295   9.505   0.817  0.1890 -0.1348 -0.0064
 3405W        W20252   5.744  10.093   5.860 -0.3494 -0.0336 -0.1180
 3406W        W20253  13.503   8.864  11.217 -0.2575 -0.1430  0.0681
 3407W        W20254   8.431  17.013  13.502  0.0837  0.0225  0.1327
 3408W        W20255   7.045  12.289   0.583 -0.0758  0.1950  0.1306
 3409W        W20256  11.693  17.757   3.139  0.0513 -0.1718  0.2317
 3410W        W20257   1.492  10.110   6.145 -0.3271  0.1310  0.0343
 3411W        W20258   6.690  17.508  13.924 -0.0005  0.2632  0.3341
 3412W        W20259   7.772  15.253  14.796 -0.1319 -0.4179 -0.2060
 3413W        W20260  10.220   5.399   3.040 -0.1801  0.0804 -0.1332
 3414W        W20261  14.676  11.857  11.938 -0.1577 -0.1816  0.0586
 3415W        W20262  14.472   2.473   1.812  0.0554 -0.1032 -0.0262
 3416W        W20263   6.088   9.563  16.023 -0.3016 -0.2635 -0.0021
 3417W        W20264   0.591  16.584  12.965 -0.2314  0.1916 -0.1499
 3418W        W20265  12.485  10.940  15.688 -0.0621 -0.1623  0.0205
 3419W        W20266   1.228   8.317  15.901  0.2661  0.1771  0.0111
 3420W        W20267  12.844  12.002   3.462 -0.0222  0.1969  0.0830
 3421W        W20268   4.419  12.471  13.133 -0.2541 -0.0636  0.3236
 3422W        W20269   0.431   1.379   1.692 -0.2224  0.1418  0.0393
 3423W        W20270  10.413   8.854   4.848 -0.2444 -0.1510 -0.0084
 3424W        W20271   5.007  16.485  12.480 -0.1616 -0.3625 -0.1521
 3425W        W20272  17.280  16.654  15.945  0.1723 -0.0006  0.0148
 3426W        W20273   9.226   0.412  11.832 -0.1158  0.1447  0.3082
 3427W        W20274   2.998   1.607   0.379  0.0313 -0.3442  0.3288
 3428W        W20275   1.618   3.151   0.125 -0.1682 -0.0134 -0.1126
 3429W        W20276   8.780  17.818   0.995 -0.2803 -0.4824  0.2800
 3430W        W20277   3.830  13.937  12.375  0.3316  0.0795 -0.1725
 3431W        W20278  10.602  11.500  13.010 -0.0275  0.1351  0.0096
 3432W        W20279   4.223  16.674  13.475  0.2184 -0.0756  0.1500
 3433W        W20280   9.360  16.433  16.133 -0.1029 -0.1556  0.0789
 3434W        W20281  13.689   3.631  13.275 -0.0457  0.1062 -0.2400
 3435W        W20282  17.980   4.147  14.898 -0.0836 -0.2879  0.1204
 3436W        W20283   8.434   9.164   5.165  0.0666  0.0039  0.2350
 3437W        W20284  13.876  11.868  13.303  0.2449  0.2369  0.2247
 3438W        W20285   1.769  10.556   2.857  0.1523  0.2412  0.3132
 3439W        W20286   6.454  10.360   5.322  0.0282  0.3058 -0.0710
 3440W        W20287  14.273  17.881  13.459 -0.2817 -0.3816  0.2541
 3441W        W20288   3.096  14.149  14.428 -0.3798  0.0088 -0.0819
 3442W        W20289   9.287   5.576   5.491  0.0244  0.0500  0.2469
 3443W        W20290  12.357   6.883   2.832  0.3437 -0.1555 -0.2517
 3444W        W20291  12.644   7.758   2.297 -0.0019  0.1141 -0.0761
 3445W        W20292   5.283  15.757  12.687  0.2543  0.0058  0.1913
 3446W        W20293  10.058  13.167   1.279 -0.0149  0.0687 -0.2599
 3447W        W20294  14.980   1.167  16.408  0.0263  0.2975  0.0283
 3448W        W20295  10.084   4.274   0.939 -0.1886 -0.1198  0.1955
 3449W        W20296  16.299   4.384   0.388 -0.0847 -0.1196  0.1285
 3450W        W20297  16.329   0.468  16.177  0.1846  0.2083 -0.0258
 3451W        W20298   7.621   0.198  16.444 -0.5395 -0.1915  0.1378
 3452W        W20299  10.613   9.290   4.580 -0.3051  0.0375 -0.3779
 3453W        W20300  13.642  16.145  14.921 -0.0810 -0.1053 -0.2620
 3454W        W20301   2.560   1.639   0.100 -0.0254 -0.4240  0.3089
 3455W        W20302  13.007   7.343  14.508 -0.2832  0.0196 -0.0215
 3456W        W20303   2.914  12.455  11.716  0.0928  0.4521 -0.0752
 3457W        W20304  13.223   7.727  15.700 -0.1355  0.0449 -0.0507
 3458W        W20305  15.923   4.564   1.430 -0.1405  0.3011 -0.0967
 3459W        W20306   2.292   0.199   0.412 -0.0680  0.1759  0.3185
 3460W        W20307   1.136  13.227   5.346  0.0713 -0.0856 -0.4104
 3461W        W20308  14.486  12.560   1.926 -0.1031  0.2184 -0.0903
 3462W        W20309   2.777  14.444  13.226  0.2090 -0.1729 -0.1007
 3463W        W20310  16.867  10.576   3.211 -0.0330  0.1320  0.2819
 3464W        W20311  14.558   8.403   1.190 -0.2647  0.3545 -0.2408
 3465W        W20312  16.513  17.769   5.092 -0.0264 -0.1372 -0.1211
 3466W        W20313  16.142  16.976  15.782  0.0229 -0.1246  0.4191
 3467W        W20314   2.439   0.727   2.593  0.0608 -0.0982  0.1360
 3468W        W20315   7.865  14.722   5.713  0.3560 -0.0261  0.0192
 3469W        W20316   3.408   5.546  12.553 -0.2188 -0.2290  0.0217
 3470W        W20317   0.550  17.477   6.033 -0.2045  0.2309  0.2099
 3471W        W20318   6.588   0.217  13.518  0.1445 -0.1230 -0.0179
 3472W        W20319   9.607  15.536  13.363  0.0677 -0.1246 -0.0725
 3473W        W20320   4.447   5.340   4.098  0.1525  0.0015  0.0807
 3474W        W20321   9.719   4.790  11.181  0.1301 -0.0942  0.0577
 3475W        W20322  11.929  15.591  13.853 -0.0180  0.2806 -0.1863
 3476W        W20323  11.721  14.487   3.071  0.0275  0.1847 -0.2133
 3477W        W20324  13.916   8.651  13.800 -0.0002 -0.2923  0.2169
 3478W        W20325   1.338  16.973   1.759  0.1113 -0.1707  0.0694
 3479W        W20326   1.107  17.524   0.237 -0.2099  0.0102  0.2250
 3480W        W20327   6.555   7.538   4.908  0.2659 -0.1540  0.1089
 3481W        W20328   0.210   2.542  14.411 -0.1582 -0.0570  0.1465
 3482W        W20329  11.264   6.342  12.221 -0.0354  0.1511  0.1932
 3483W        W20330  10.725  12.983   2.373 -0.1564 -0.1804  0.4094
 3484W        W20331  12.192   6.056   4.026 -0.0182  0.2409  0.1019
 3485W        W20332  17.098   0.507   3.673 -0.0874 -0.2310  0.1333
 3486W        W20333  17.856   9.869   3.374  0.2324 -0.0272 -0.2650
 3487W        W20334  16.930  10.387  16.426  0.0088 -0.2116 -0.0944
 3488W        W20335  17.812   8.189   1.959  0.1140 -0.0923  0.2088
 3489W        W20336  11.004  11.725  14.547  0.0764  0.1325  0.2293
 3490W        W20337   4.155   4.792   1.576  0.1015 -0.1331  0.1708
 3491W        W20338   4.666  15.871   3.090 -0.2091  0.0122  0.2443
 3492W        W20339   1.515   3.456   6.006 -0.2761 -0.0887 -0.0038
 3493W        W20340  17.427   0.481  13.744 -0.0073  0.4071  0.0059
 3494W        W20341  13.118   3.298   0.970 -0.0605  0.1326 -0.2192
 3495W        W20342   8.690  14.386   0.136  0.0487 -0.0607 -0.1459
 3496W        W20343  17.759   7.709  15.410  0.0036 -0.1194 -0.1712
 3497W        W20344  11.277  15.858   0.067  0.1487 -0.1214  0.0864
 3498W        W20345   6.762   8.697  12.202  0.2429 -0.2182 -0.2152
 3499W        W20346  16.985   6.976   2.980 -0.2940 -0.1658 -0.2181
 3500W        W20347   7.776  15.857  11.405 -0.0895  0.1900 -0.0637
 3501W        W20348   0.527   1.670   3.142 -0.1944 -0.0176  0.1946
 3502W        W20349   4.881  11.531  13.949  0.3158  0.1563  0.1680
 3503W        W20350   1.068  11.391  15.928 -0.0300 -0.1256 -0.0084
 3504W        W20351  15.619   9.336   5.367 -0.1111  0.1042 -0.4016
 3505W        W20352   9.634  10.603   0.414  0.1440 -0.2661  0.0833
 3506W        W20353  15.010  13.605   6.322 -0.1418 -0.1958 -0.0670
 3507W        W20354   6.181   8.114   2.940  0.1751 -0.1469 -0.5768
 3508W        W20355   8.706   6.364   2.534 -0.1515 -0.2035 -0.0481
 3509W        W20356   1.000   6.646   3.920  0.1774  0.1326 -0.0885
 3510W        W20357   1.119   5.901   5.700 -0.1488 -0.3801 -0.0405
 3511W        W20358  10.374  15.670   1.590  0.0157 -0.4679  0.0716
 3512W        W20359   9.927   3.913   1.568  0.2527 -0.2432 -0.1635
 3513W        W20360  10.634   8.095  13.417 -0.1088  0.3934  0.2509
 3514W        W20361   5.013  15.040  12.261  0.0700 -0.1617 -0.2766
 3515W        W20362   0.522  15.610   0.290  0.2973 -0.0167  0.2203
 3516W        W20363  17.372   8.938   5.836  0.1728 -0.1724  0.0418
 3517W        W20364   7.978  11.497  14.949 -0.0539  0.0458 -0.1438
 3518W        W20365  10.349   3.105   1.679 -0.1242  0.1506  0.0896
 3519W        W20366  16.321   9.056  12.548  0.0851  0.2650 -0.1093
 3520W        W20367   5.793   7.700   5.235  0.1555  0.0658  0.0902
 3521W        W20368   8.176   6.691   0.518 -0.0361 -0.3772  0.2726
 3522W        W20369   9.634  16.445  12.810 -0.0494 -0.1333 -0.4109
 3523W        W20370  16.902  16.812  15.155 -0.0718 -0.0871  0.2873
 3524W        W20371   9.950   3.053  13.800  0.1138 -0.1517  0.0881
 3525W        W20372   5.827   1.854  15.301 -0.2525 -0.2643 -0.1021
 3526W        W20373  10.072   1.419  16.449  0.1708  0.3837 -0.2378
 3527W        W20374   8.740   0.229   2.720 -0.0146  0.0143 -0.0747
 3528W        W20375  10.341   3.730  14.948  0.1413  0.1755 -0.2518
 3529W        W20376   2.364  15.958  12.013  0.1077 -0.1652  0.2046
 3530W        W20377  10.756  12.004  11.425 -0.0282 -0.0075  0.1234
 3531W        W20378  16.995  16.039  11.970  0.1207  0.0762  0.0663
 3532W        W20379  10.323   7.103   4.460 -0.3272 -0.1420  0.1954
 3533W        W20380   8.327   7.080  16.198 -0.3330  0.0236  0.0647
 3534W        W20381   7.958   1.379  15.898 -0.0017  0.1560  0.2036
 3535W        W20382   1.234   7.078   5.331 -0.4110 -0.0381 -0.1148
 3536W        W20383  11.086  13.983   2.475 -0.0163  0.5131 -0.3685
 3537W        W20384   1.214   0.540  16.404 -0.0229  0.2304  0.1010
 3538W        W20385  17.110   4.644  12.227  0.2672 -0.0142 -0.0124
 3539W        W20386   2.650   6.665  12.555 -0.2286 -0.2610  0.1767
 3540W        W20387   5.687   2.137   4.995 -0.1063  0.2723  0.2460
 3541W        W20388  15.232   1.309  13.878 -0.0070  0.1375  0.0339
 3542W        W20389   6.304  17.105  15.686 -0.0895  0.1329 -0.2208
 3543W        W20390   2.353  17.918  13.076 -0.3333 -0.0341 -0.2961
 3544W        W20391  15.503  12.590  16.458  0.4289 -0.1289  0.0576
 3545W        W20392  17.829   6.649   1.185 -0.0379 -0.0219  0.2005
 3546W        W20393   5.844   5.433   3.019 -0.0490  0.1452 -0.2893
 3547W        W20394  10.346  16.602   1.865  0.1034  0.2008 -0.2047
 3548W        W20395  12.508   4.926  12.219  0.1324 -0.0288 -0.0111
 3549W        W20396   3.881   9.035  13.538 -0.3946  0.3625  0.0549
 3550W        W20397   2.164  13.953  13.614  0.3720  0.3487  0.2444
 3551W        W20398   4.235  17.554  16.062  0.1448  0.0877  0.1264
 3552W        W20399   2.443  16.146   0.032 -0.2117 -0.0096 -0.2588
 3553W        W20400  11.186  10.433  13.656 -0.3615  0.0896  0.1248
 3554W        W20401   7.899  17.305   0.366 -0.1323  0.3181 -0.0627
 3555W        W20402   8.726   9.737  15.781  0.2892 -0.1001  0.0585
 3556W        W20403   0.950  15.361   2.660 -0.2955  0.0314  0.1579
 3557W        W20404  16.721   6.962   4.172  0.0159  0.1083  0.0134
 3558W        W20405  11.615   8.014  12.664  0.0816  0.2616  0.0078
 3559W        W20406   0.859  10.043   1.678  0.1197 -0.0496 -0.1967
 3560W        W20407   9.285   9.494   2.123 -0.1603 -0.0111  0.1898
 3561W        W20408   6.064  16.901  15.060  0.3519  0.1780 -0.1084
 3562W        W20409  12.910   8.280   4.163  0.1071  0.0619 -0.1976
 3563W        W20410   5.811   2.633  13.463 -0.0191  0.1323 -0.2724
 3564W        W20411  16.763   8.471  11.589 -0.0730 -0.1047 -0.0906
 3565W        W20412   8.817   8.010   4.390  0.2542  0.3311  0.0485
 3566W        W20413  16.667   3.030   1.281 -0.1869 -0.0032 -0.4010
 3567W        W20414   4.357   4.979  16.080  0.0052 -0.3223 -0.4031
 3568W        W20415  14.740  13.336  10.684 -0.0402 -0.0671  0.0952
 3569W        W20416  13.900   0.619   0.770  0.4194 -0.2042 -0.2265
 3570W        W20417   5.409  10.799   0.457 -0.1238 -0.0277  0.0566
 3571W        W20418  16.048   3.432   4.624  0.0025 -0.2261 -0.0348
 3572W        W20419  13.574  11.762   5.766 -0.2006  0.0036 -0.0745
 3573W        W20420   2.565  11.088   1.166 -0.1723  0.1170 -0.2435
 3574W        W20421  14.089   9.197  13.653  0.1220  0.1671  0.1354
 3575W        W20422   4.786   7.609   0.146  0.0198 -0.0258  0.3168
 3576W        W20423  15.845   1.596  16.585 -0.3544  0.1651  0.0714
 3577W        W20424   3.152  13.803  12.636  0.0887  0.1449 -0.0597
 3578W        W20425   9.300  17.651   3.243  0.2529 -0.1819  0.2527
 3579W        W20426   7.924  17.001   2.306 -0.1462 -0.1118 -0.2383
 3580W        W20427  17.072  17.869  12.589  0.2892 -0.1391  0.0396
 3581W        W20428  13.219  15.128   4.357 -0.2353  0.2245  0.0038
 3582W        W20429   3.960   0.529  13.266  0.0589 -0.2245 -0.3749
 3583W        W20430   7.831   8.091  14.187  0.0238  0.0590 -0.2249
 3584W        W20431  13.491  12.813  14.008 -0.0269  0.1360 -0.0673
 3585W        W20432   2.538   3.658  15.205  0.0137  0.1183  0.1332
 3586W        W20433   1.703  13.682   0.335 -0.0376  0.0145  0.0466
 3587W        W20434   4.730  16.910  11.314  0.0144 -0.1589 -0.1458
 3588W        W20435   0.953   8.745   4.581 -0.0833  0.2929  0.1500
 3589W        W20436  16.756  10.793  13.549  0.0232  0.1632  0.2272
 3590W        W20437  11.710  16.010  14.949  0.2598 -0.1903  0.2428
 3591W        W20438   5.784  11.590  13.910 -0.0943 -0.0125 -0.2226
 3592W        W20439   8.720  16.155  12.319 -0.1050  0.0248  0.0426
 3593W        W20440  14.289   0.715  12.003 -0.0982  0.0734 -0.0243
 3594W        W20441  10.487  12.465  14.878  0.2921  0.2987 -0.0661
 3595W        W20442  17.244   3.133   1.247  0.1976 -0.1045  0.3126
 3596W        W20443  11.981  11.940  16.342 -0.0515  0.0608 -0.2104
 3597W        W20444  14.555   9.093  13.734  0.0474  0.0253  0.0824
 3598W        W20445   5.201   9.709  12.368 -0.0858 -0.1927 -0.1560
 3599W        W20446   1.148   7.180  15.346 -0.1699  0.3087 -0.0146
 3600W        W20447   1.962  17.528   3.360 -0.0099 -0.0767  0.0494
 3601W        W20448  10.433  10.324   1.718  0.0419  0.3059 -0.0515
 3602W        W20449  16.375   9.853   0.551  0.0256  0.1704 -0.0186
 3603W        W20450  14.489   4.001  15.360 -0.2387 -0.1760  0.3068
 3604W        W20451   4.560  17.233   1.104  0.0912 -0.1569  0.2404
 3605W        W20452  13.508  16.660  10.606  0.1130  0.2270 -0.2086
 3606W        W20453   2.153   0.994  13.713 -0.0021 -0.1364 -0.3187
 3607W        W20454  13.923   7.086   0.701  0.3574  0.3479 -0.1243
 3608W        W20455   9.644  16.807  11.906  0.0250  0.2982  0.0317
 3609W        W20456  12.018   5.214   2.789 -0.2512  0.1542 -0.0717
 3610W        W20457   4.804   3.580   0.255 -0.0980  0.1440  0.0118
 3611W        W20458   8.538   1.026   0.594 -0.1974  0.1268 -0.0125
 3612W        W20459   3.454   9.057   0.234  0.0178  0.1944 -0.2415
 3613W        W20460  13.418  17.128  12.035  0.0380  0.0766  0.2328
 3614W        W20461   8.408   9.743   3.619 -0.0316 -0.0598 -0.4078
 3615W        W20462   3.621  16.070  11.583  0.1232 -0.0095  0.3571
 3616W        W20463  16.616   9.047   4.643 -0.0018  0.0996  0.1791
 3617W        W20464  16.161   2.760  16.338  0.1102 -0.1428 -0.0902
 3618W        W20465   2.396   0.349  13.061  0.1464  0.1927  0.0218
 3619W        W20466  16.766   4.675   1.045 -0.1265 -0.2257 -0.0883
 3620W        W20467   2.644   2.800  13.574  0.1728 -0.1216  0.2127
 3621W        W20468  10.790   3.851  15.831 -0.0135 -0.2073 -0.2195
 3622W        W20469  12.106   0.679  13.700  0.0467 -0.1020  0.1455
 3623W        W20470   0.679   7.978  15.125 -0.3424 -0.1612 -0.0356
 3624W        W20471   8.859   6.798  15.697 -0.1451 -0.4145  0.5199
 3625W        W20472   6.276  15.779  12.339 -0.4361 -0.0285  0.0981
 3626W        W20473   3.861  17.473   3.408 -0.1484 -0.1877  0.0638
 3627W        W20474  15.825   0.109  16.362 -0.0427  0.0475 -0.1990
 3628W        W20475   0.477  16.498   1.579 -0.0851 -0.2200  0.0132
 3629W        W20476  17.476   2.362   3.235 -0.0490 -0.0827 -0.2199
 3630W        W20477   5.641  10.153  12.966  0.0074  0.1081  0.2345
 3631W        W20478   6.924   6.788   3.877  0.2918  0.2012 -0.2390
 3632W        W20479   6.316  16.382  14.353 -0.0042  0.0855  0.3563
 3633W        W20480  14.192  11.120   6.296 -0.1504 -0.1233 -0.2220
 3634W        W20481   0.426   2.307  13.950  0.0379  0.3562 -0.1679
 3635W        W20482  12.579  11.617   0.195  0.2365 -0.0881  0.2799
 3636W        W20483   0.154   8.512  12.703  0.1228  0.1567 -0.2137
 3637W        W20484   6.662   2.303   2.345 -0.0686  0.1203 -0.0579
 3638W        W20485  11.914  14.960   2.819 -0.1448  0.2361  0.1573
 3639W        W20486   4.264  15.659   1.299  0.2224 -0.0141  0.1145
 3640W        W20487   4.882   6.800  12.176 -0.2939 -0.1561 -0.1111
 3641W        W20488  13.836  12.470   0.545 -0.1843  0.1614  0.2502
 3642W        W20489  16.615  16.362  15.137 -0.0463 -0.1186  0.0598
 3643W        W20490  12.390   1.319  15.181 -0.1020 -0.0083  0.0835
 3644W        W20491   0.577   5.111   2.900  0.0174 -0.2031  0.1473
 3645W        W20492  13.905  16.642   1.406 -0.1351  0.0724  0.3164
 3646W        W20493   0.125   7.472   2.530 -0.1006 -0.0961  0.0723
 3647W        W20494   2.353   4.162   0.852 -0.1089 -0.3724 -0.0309
 3648W        W20495   7.815  10.720   5.720 -0.1061  0.2825  0.2047
 3649W        W20496   1.249  12.008   3.916  0.1831 -0.1108 -0.3658
 3650W        W20497  11.482  11.453  14.535 -0.0394 -0.0344 -0.0392
 3651W        W20498  13.305   6.506   0.394  0.2889  0.2294  0.0087
 3652W        W20499   7.299  11.834  12.639  0.2765  0.0058  0.1874
 3653W        W20500  17.329  10.612   2.996 -0.0807  0.1007 -0.1475
 3654W        W20501   0.182   7.509  13.394 -0.0518 -0.0281 -0.0198
 3655W        W20502   9.781  13.680   3.266  0.0778  0.2154  0.1953
 3656W        W20503   8.215  16.352  15.467  0.2679  0.0996  0.2340
 3657W        W20504   1.914   3.978   0.090 -0.1006  0.0336 -0.0813
 3658W        W20505   7.766  12.270  13.208 -0.0627 -0.0479  0.1253
 3659W        W20506   5.175   1.182  12.220  0.0778  0.2708  0.0851
 3660W        W20507  16.428  10.382   3.732 -0.1606 -0.1810  0.0327
 3661W        W20508  10.310  13.051   2.652 -0.0092 -0.0219  0.0832
 3662W        W20509   8.041  16.141  16.545 -0.0752 -0.0965 -0.0040
 3663W        W20510   1.438  11.379  11.884  0.0547  0.0648 -0.1037
 3664W        W20511   5.768   0.925   6.117 -0.0443  0.0574  0.1796
 3665W        W20512  13.425   8.447  13.875 -0.0782  0.2550  0.2673
 3666W        W20513  16.014   9.885  14.785 -0.3992 -0.0413  0.1442
 3667W        W20514   1.957  12.291   1.427 -0.4239 -0.0064  0.0526
 3668W        W20515   9.906  11.914  15.445  0.0583  0.4234 -0.1474
 3669W        W20516   4.132   1.843   0.565  0.0872 -0.2594 -0.0461
 3670W        W20517   5.445   9.041   5.370  0.0190  0.1470  0.2567
 3671W        W20518   5.863   8.839  13.881  0.0590 -0.1175 -0.2723
 3672W        W20519   3.894  16.686   0.725  0.1459 -0.0700 -0.1960
 3673W        W20520   5.942   4.230   0.507 -0.0607 -0.2989 -0.2841
 3674W        W20521  13.528  17.064   3.527  0.0826  0.2392  0.2781
 3675W        W20522   2.631  15.493  13.247  0.0656 -0.0666  0.0202
 3676W        W20523   0.898  10.841   4.074 -0.0888  0.1150  0.1811
 3677W        W20524  13.444   9.190   2.326 -0.0818 -0.0714 -0.3172
 3678W        W20525  10.819  15.190   4.388  0.1767  0.1284 -0.2052
 3679W        W20526  15.929   8.455  12.064 -0.1195 -0.2196 -0.2243
 3680W        W20527  17.321   6.034  13.906  0.1119  0.1259  0.1432
 3681W        W20528  11.987   2.273  11.619  0.0665  0.0372  0.1395
 3682W        W20529  13.657   5.782  12.383 -0.1096 -0.2165  0.1162
 3683W        W20530   4.415  16.541  11.377 -0.0218  0.3364  0.2818
 3684W        W20531  17.406  10.031  16.018  0.2690  0.0757 -0.2050
 3685W        W20532   8.806   5.073   0.252  0.0925  0.2686  0.0835
 3686W        W20533  16.827   6.552  16.181  0.0823 -0.0045 -0.0448
 3687W        W20534  13.277  10.011  15.238  0.1331 -0.0873  0.1609
 3688W        W20535   7.705  13.658  15.656  0.1798  0.1880 -0.0737
 3689W        W20536   7.104  15.232   0.046  0.0433  0.0102 -0.0869
 3690W        W20537  12.093   1.835   0.074 -0.1449 -0.0091 -0.0341
 3691W        W20538   9.188   1.953   0.713 -0.0736  0.2990  0.0437
 3692W        W20539   4.154  10.162  15.197 -0.1760  0.1538 -0.1728
 3693W        W20540   6.131   6.361   2.879 -0.0731 -0.0619  0.1846
 3694W        W20541  13.265   5.537  12.639 -0.0088 -0.1746 -0.3091
 3695W        W20542   9.456  11.666   3.697  0.2258 -0.2277 -0.0651
 3696W        W20543   7.988   4.535  16.388 -0.0554  0.2476  0.1050
 3697W        W20544  14.745   8.458   0.354  0.0533 -0.2791  0.3019
 3698W        W20545  17.745   3.442   4.256 -0.0443 -0.0390 -0.0691
 3699W        W20546  13.157  17.419  14.997  0.0591  0.0703 -0.2006
 3700W        W20547  13.445  10.040   1.097 -0.1406  0.0150 -0.1274
 3701W        W20548   1.567  18.065   1.722  0.1283 -0.2462  0.1213
 3702W        W20549  12.400   8.959  15.332 -0.0578  0.6037  0.3008
 3703W        W20550   7.270  12.053   4.056 -0.2365 -0.2859 -0.1075
 3704W        W20551  13.301   1.226  13.617 -0.2568  0.2555  0.0680
 3705W        W20552   7.176   0.395   0.501 -0.0894 -0.3819 -0.0005
 3706W        W20553  16.089   2.595   3.960 -0.0384 -0.1284  0.2394
 3707W        W20554   4.333   8.209  14.396 -0.0303  0.3139 -0.0503
 3708W        W20555  10.103   0.853  15.763 -0.1303  0.1411  0.2052
 3709W        W20556  17.600   3.660   3.114 -0.1218 -0.1633 -0.2012
 3710W        W20557   6.920  11.610  16.655 -0.1996 -0.1709  0.1633
 3711W        W20558  12.236  15.735   4.987 -0.0226  0.0086  0.1337
 3712W        W20559  11.211   5.098  14.101 -0.1393 -0.3132  0.1161
 3713W        W20560  17.090   0.772  13.902  0.0312  0.0881  0.0419
 3714W        W20561   2.303   2.731  12.183  0.2099 -0.0272 -0.2547
 3715W        W20562   5.717   3.670  16.035  0.1115 -0.2001 -0.2487
 3716W        W20563   3.124  11.110  13.684 -0.3629  0.1094 -0.0532
 3717W        W20564  13.694   3.020  12.627 -0.1100  0.2377 -0.0853
 3718W        W20565   0.293   3.847  13.952 -0.1847  0.1516  0.4766
 3719W        W20566   8.236   9.127  12.657 -0.0351 -0.1969  0.0447
 3720W        W20567   1.539  16.584   0.895  0.2581 -0.0277  0.0352
 3721W        W20568   0.381   4.901  12.508 -0.1492 -0.1180  0.0512
 3722W        W20569   8.949   0.187   4.753 -0.1306 -0.0418 -0.1604
 3723W        W20570   3.622   1.876   3.865  0.0273  0.1796 -0.1737
 3724W        W20571   0.915   7.860   5.641  0.2525 -0.1846  0.0685
 3725W        W20572  11.059  12.594  15.681 -0.0140  0.0324  0.2297
 3726W        W20573   5.310  15.875  14.119 -0.1315  0.2699 -0.0814
 3727W        W20574   9.700  15.481  12.423  0.1516  0.1028 -0.0303
 3728W        W20575  11.369  11.606  11.418 -0.2201  0.0414  0.1153
 3729W        W20576   7.674   4.233  13.431  0.3744 -0.0631  0.2478
 3730W        W20577  10.405   2.520   1.391  0.0321  0.1967 -0.1927
 3731W        W20578  13.814  17.446   1.279  0.1681 -0.3911  0.2079
 3732W        W20579  10.629   6.930  14.386  0.0175  0.0041 -0.3029
 3733W        W20580  12.171  16.516  14.465 -0.0361 -0.1839 -0.1230
 3734W        W20581  10.376   0.556   1.369 -0.1870 -0.0128 -0.0672
 3735W        W20582   9.025   3.198  13.557 -0.0105  0.0283  0.2179
 3736W        W20583   8.026  11.413   5.514 -0.1723 -0.2154  0.1465
 3737W        W20584   0.680   2.350   2.651  0.1123  0.0945 -0.3388
 3738W        W20585   6.976   0.288  11.999  0.1564  0.0467 -0.0900
 3739W        W20586  16.995  14.874  14.955  0.0336  0.1115 -0.1762
 3740W        W20587   1.083   7.679  15.242 -0.0541 -0.1761 -0.0101
 3741W        W20588  11.264   2.563  15.812 -0.2039  0.2023 -0.3019
 3742W        W20589   4.003   1.213  14.190 -0.1981 -0.2668  0.2177
 3743W        W20590  17.243   3.787   1.167 -0.0300  0.0028  0.0792
 3744W        W20591  10.574   4.717  13.527 -0.0729  0.0750 -0.0929
 3745W        W20592   4.816  17.352  14.840 -0.0345 -0.0373 -0.0459
 3746W        W20593   1.492   8.435   5.952 -0.0024 -0.1712 -0.1810
 3747W        W20594  16.728  17.786  11.954  0.0597  0.4415  0.1631
 3748W        W20595  12.268   8.281  16.553  0.0995 -0.0397 -0.2284
 3749W        W20596  10.684  17.754   0.897 -0.1285  0.1073  0.0092
 3750W        W20597  11.432  10.296   2.855  0.1938 -0.2412  0.0966
 3751W        W20598  12.625   3.404   0.281  0.0792 -0.0191  0.0537
 3752W        W20599   1.282  17.857  13.797  0.4762  0.1446 -0.0104
 3753W        W20600  12.069   6.438  13.629 -0.2168  0.1182  0.1059
 3754W        W20601   4.053   2.311  16.498  0.0081 -0.0583  0.3449
 3755W        W20602  16.424  17.781  11.569  0.2588 -0.0779 -0.1963
 3756W        W20603  17.066   7.958  15.356 -0.2946 -0.2156  0.3216
 3757W        W20604  10.637  12.620  11.646 -0.1817 -0.3398  0.1650
 3758W        W20605   7.135   3.392   0.006  0.0982  0.0674 -0.0597
 3759W        W20606   2.687  16.968  14.189  0.3278 -0.2326 -0.1722
 3760W        W20607  15.115  17.947   1.805  0.1894  0.0322 -0.3114
 3761W        W20608  14.551   6.490  15.357  0.1716 -0.0247 -0.0147
 3762W        W20609  17.532   8.566   0.643 -0.0578 -0.0616  0.1389
 3763W        W20610   6.586  11.366   6.076  0.3857 -0.0011 -0.0235
 3764W        W20611   8.102   6.367  11.654 -0.0324  0.2402  0.0165
 3765W        W20612   9.250   2.541   1.363  0.3485 -0.3872  0.1265
 3766W        W20613  14.557  16.504  13.284  0.1939  0.2575 -0.0813
 3767W        W20614  11.646   8.159   4.562 -0.0908  0.0624 -0.0188
 3768W        W20615  15.128   2.054  11.191 -0.3956 -0.2743 -0.0828
 3769W        W20616   2.932  12.179   5.351  0.0966  0.1815  0.0249
 3770W        W20617  12.613   7.978   0.638 -0.0783 -0.0095 -0.1160
 3771W        W20618   9.505  13.593   0.323 -0.0280  0.2324 -0.1718
 3772W        W20619   8.356  14.813  13.067  0.0415 -0.2409 -0.0728
 3773W        W20620   1.436   6.144   5.404 -0.0270  0.0840 -0.3513
 3774W        W20621   7.925  11.565   3.384  0.1036  0.0063 -0.1583
 3775W        W20622  17.857  15.603  13.420 -0.2179 -0.1447 -0.3943
 3776W        W20623  10.149  10.151   0.012 -0.0454  0.0925 -0.2476
 3777W        W20624  13.733  14.671   0.335  0.2342  0.1043  0.2215
 3778W        W20625  10.272  17.906   0.529  0.0746  0.2144 -0.0300
 3779W        W20626   5.355   4.681   4.342  0.1138  0.0072  0.0311
 3780W        W20627   4.916  13.509   2.561  0.1632  0.0586 -0.1199
 3781W        W20628   5.741   0.668   1.611  0.2278 -0.2933  0.2652
 3782W        W20629  11.638   1.491   4.363 -0.0418 -0.0014 -0.2463
 3783W        W20630   9.504  17.813  13.712  0.0033 -0.1058  0.1910
 3784W        W20631   2.329   6.358   3.980  0.1893  0.0544 -0.0619
 3785W        W20632  16.293   3.303  11.247  0.2268  0.1351 -0.4809
 3786W        W20633   9.012   5.991   5.632  0.1746 -0.1741 -0.0972
 3787W        W20634  11.545   1.269   1.456  0.0707 -0.0027 -0.1127
 3788W        W20635  15.476   4.907   3.702  0.2884  0.0716 -0.2171
 3789W        W20636   2.357   6.624  15.475  0.0966  0.0673  0.0897
 3790W        W20637   0.834   5.380  13.541 -0.2845 -0.3072 -0.1703
 3791W        W20638  11.102  12.673   5.602 -0.1185 -0.1642  0.1282
 3792W        W20639   8.586   9.261   1.487 -0.3011  0.0978  0.2817
 3793W        W20640  10.991   1.525   2.203  0.0872  0.1103 -0.0245
 3794W        W20641   0.865  10.784   1.903  0.1350 -0.1460  0.2672
 3795W        W20642   1.009   1.828  15.368 -0.2017  0.2507 -0.0598
 3796W        W20643  12.477   0.231   3.608  0.1517 -0.0610 -0.0218
 3797W        W20644  13.168   8.009   3.718 -0.1829  0.1334 -0.0332
 3798W        W20645   9.888  16.915  12.717 -0.1219 -0.0822  0.0780
 3799W        W20646   9.339  17.371   3.868 -0.0289  0.1006  0.3199
 3800W        W20647  12.805  11.682   2.047  0.2041 -0.1912  0.0864
 3801W        W20648   5.060   7.366  14.743  0.1736  0.0549  0.2283
 3802W        W20649  14.017  16.582   1.903  0.5474 -0.0377  0.2396
 3803W        W20650  14.304   5.442   4.174 -0.0932 -0.3312  0.0401
 3804W        W20651   9.707  13.160   0.458  0.1858  0.1372  0.1150
 3805W        W20652  16.797  12.927   5.548  0.0324 -0.2666  0.0390
 3806W        W20653   1.633  12.172   2.421  0.0384 -0.1560  0.4112
 3807W        W20654   9.915   6.735   0.749  0.2019  0.0488 -0.1039
 3808W        W20655  15.024   4.141   1.293  0.1407 -0.3766  0.2031
 3809W        W20656   0.521   9.756   2.080 -0.0981 -0.0046 -0.0408
 3810W        W20657   8.824  16.821   5.171  0.0540 -0.1775  0.1123
 3811W        W20658   2.305   6.688   1.905 -0.0480 -0.0799 -0.1286
 3812W        W20659  14.008   9.479  14.732 -0.0420 -0.1115 -0.0567
 3813W        W20660  11.936   6.089  15.023  0.0476  0.1760 -0.1303
 3814W        W20661   5.268   4.379   0.043  0.1050 -0.3163  0.1384
 3815W        W20662   1.411  18.062   3.670  0.3984  0.1759 -0.2956
 3816W        W20663   9.606   8.915   0.101  0.0380  0.1578 -0.3027
 3817W        W20664  12.464   9.763  15.639 -0.0359 -0.0902  0.1466
 3818W        W20665   5.036  13.832  12.602  0.1080 -0.3934 -0.1176
 3819W        W20666  16.912   7.581  13.164 -0.0884 -0.1906 -0.1621
 3820W        W20667  15.707   6.166   0.946  0.2268  0.2408  0.2198
 3821W        W20668   2.563  12.272   4.426  0.1709 -0.1022  0.0173
 3822W        W20669  15.119   1.124  12.336  0.2509 -0.0506 -0.0119
 3823W        W20670   3.789  17.441   2.917 -0.1343 -0.1451  0.0086
 3824W        W20671   7.150   0.439  16.586 -0.3808  0.0055 -0.0954
 3825W        W20672   1.621  16.371  13.383  0.0347  0.0258  0.1656
 3826W        W20673   2.171  16.694  13.158 -0.0163 -0.1320 -0.2311
 3827W        W20674   1.084  12.429   5.474 -0.1926  0.3003  0.1391
 3828W        W20675  16.914  17.880  13.849 -0.2417 -0.0008  0.1313
 3829W        W20676   4.915  17.573   5.207 -0.1339  0.0859 -0.1183
 3830W        W20677   5.852  12.026  14.217  0.2050 -0.1326 -0.0696
 3831W        W20678  14.817  14.338  11.818 -0.2573  0.0022 -0.2213
 3832W        W20679  12.522   7.951   4.297  0.0940  0.0240 -0.0598
 3833W        W20680  15.680   4.528   2.455  0.0606  0.2353  0.1282
 3834W        W20681   7.374  13.811   2.103  0.0149  0.1926  0.0746
 3835W        W20682  15.413   5.260   2.892  0.3498  0.1827 -0.1637
 3836W        W20683  14.394   3.077  13.099  0.2182  0.2548 -0.0117
 3837W        W20684   8.112   9.198   2.436  0.1388 -0.2384  0.1524
 3838W        W20685  12.418  12.943  16.406  0.0765 -0.1388 -0.1677
 3839W        W20686   9.627  15.663   0.087  0.0254 -0.3050 -0.1898
 3840W        W20687   4.470   8.364  13.931  0.0280 -0.2207 -0.0811
 3841W        W20688   8.134   4.147   5.489 -0.1058 -0.0744 -0.0709
 3842W        W20689  16.646   4.973  15.454 -0.0526 -0.3872  0.0736
 3843W        W20690  14.487  11.631   5.433  0.0574 -0.0350 -0.0407
 3844W        W20691  14.060  10.211   5.093 -0.0614 -0.0443  0.2016
 3845W        W20692   4.292  14.560   3.513  0.0208 -0.2616 -0.1516
 3846W        W20693  16.854  17.789  14.875 -0.1850  0.0041  0.3972
 3847W        W20694   5.104   5.011  12.719 -0.0604 -0.0518 -0.2715
 3848W        W20695  15.068   7.684  16.428  0.2068 -0.0668  0.1091
 3849W        W20696   8.479  12.661   4.939 -0.0821  0.0035 -0.1167
 3850W        W20697  10.602  14.993  12.559  0.1164 -0.3184 -0.2711
 3851W        W20698  16.242   3.466   5.162 -0.2543 -0.2464 -0.0214
 3852W        W20699   4.290   2.492  14.223 -0.1322 -0.0243 -0.0561
 3853W        W20700  12.026   7.128   0.334 -0.1525  0.2398 -0.0846
 3854W        W20701   4.894  13.429   1.087  0.2625 -0.3218 -0.0056
 3855W        W20702   3.491  10.991  14.063  0.0008 -0.0323  0.1462
 3856W        W20703  17.028   4.626  15.464 -0.4540 -0.1181 -0.3047
 3857W        W20704  10.501  14.913  16.538  0.3676  0.0990 -0.2587
 3858W        W20705  15.419   5.582   5.162 -0.4194  0.2010  0.0288
 3859W        W20706   3.027   0.922   1.635 -0.1641 -0.3994  0.0463
 3860W        W20707   4.136   5.403  14.193 -0.1670 -0.0418  0.2587
 3861W        W20708   2.567   9.906  12.551 -0.0014  0.1724 -0.0949
 3862W        W20709   1.953   4.733   5.471 -0.2770 -0.0567 -0.0748
 3863W        W20710  13.872  11.999  12.231  0.2564  0.3649 -0.2405
 3864W        W20711   8.442  16.076   1.274  0.1785  0.0474 -0.1082
 3865W        W20712  16.988   4.018   5.440  0.3722 -0.3621  0.1162
 3866W        W20713   2.150  16.075   0.410 -0.0187  0.2073  0.0088
 3867W        W20714   4.753   8.050  15.911  0.0540  0.0015 -0.1071
 3868W        W20715  13.771   7.272  13.453  0.0860 -0.2747  0.0599
 3869W        W20716   6.881   2.901   6.342 -0.1849  0.1791 -0.2961
 3870W        W20717  10.484  17.007  14.213 -0.1510  0.0491 -0.1295
 3871W        W20718   2.436   9.533   1.828  0.0896  0.2512  0.0891
 3872W        W20719  16.755   8.417   2.402  0.1082 -0.0621  0.1078
 3873W        W20720   6.009   2.246  13.230 -0.1897  0.1115  0.1205
 3874W        W20721   4.976   5.004   3.557 -0.3685 -0.1041  0.1060
 3875W        W20722  17.248   4.831   5.194 -0.1455  0.0316 -0.1567
 3876W        W20723   2.502   1.326   2.154  0.1347 -0.0750  0.0419
 3877W        W20724   1.771   2.237   5.363 -0.3577  0.0729 -0.0085
 3878W        W20725   9.789   4.803  16.374 -0.1392  0.0374 -0.1087
 3879W        W20726   0.208   6.412   1.058 -0.0812  0.1495 -0.0774
 3880W        W20727   3.755   0.001  15.166 -0.0396 -0.1336  0.0102
 3881W        W20728   7.774  10.351  13.587  0.0567 -0.2334 -0.2820
 3882W        W20729  11.336   6.689  12.627  0.0521 -0.0279  0.0164
 3883W        W20730   2.983   3.069   2.642 -0.3043 -0.1794  0.2619
 3884W        W20731  17.554   3.578  12.059 -0.0420 -0.1141  0.0219
 3885W        W20732   8.065   3.136  13.060 -0.0846  0.1300  0.0478
 3886W        W20733  14.103   5.267   5.223 -0.0216 -0.1611  0.0315
 3887W        W20734  15.100   0.104  13.340 -0.0376 -0.1424 -0.0671
 3888W        W20735   2.138   9.640  16.261 -0.1429 -0.1441  0.1591
 3889W        W20736  10.032   6.248  15.790 -0.1761  0.0988 -0.1378
 3890W        W20737   2.058   8.189  16.260  0.4870  0.0338 -0.1172
 3891W        W20738   9.504   1.795  13.969  0.0175 -0.2347  0.2206
 3892W        W20739  16.984  17.814   2.485 -0.0191 -0.1408 -0.2335
 3893W        W20740  10.610   9.122   3.522 -0.2905  0.0477 -0.1159
 3894W        W20741  12.478   5.308  15.860 -0.3573  0.0392 -0.2341
 3895W        W20742   4.214  14.485   5.151 -0.0939 -0.0709 -0.0859
 3896W        W20743   2.732  16.571   0.080  0.4115 -0.1533 -0.0688
 3897W        W20744  12.798   7.482   5.080  0.2463 -0.3089 -0.0375
 3898W        W20745   5.629   2.013  16.115 -0.2323 -0.2946  0.0766
 3899W        W20746  16.367  11.615  13.161  0.0859  0.0033 -0.3058
 3900W        W20747   1.695   9.109   2.953  0.1417  0.0246 -0.0403
 3901W        W20748  15.416   6.795   5.013  0.0168  0.2556 -0.1987
 3902W        W20749   9.536   4.064   1.967  0.0381  0.2056 -0.2886
 3903W        W20750   9.716  12.067   3.508 -0.0798  0.0775 -0.3970
 3904W        W20751   8.936  14.901  13.687 -0.0113  0.1169  0.0705
 3905W        W20752  17.697   2.371  14.305 -0.0903 -0.2406  0.1322
 3906W        W20753   5.469  14.519  11.304  0.0495  0.3406  0.0618
 3907W        W20754   2.916   0.268   2.493  0.0582 -0.2043 -0.1873
 3908W        W20755   5.278  13.726  13.087 -0.0206  0.1492 -0.1364
 3909W        W20756   3.091  13.803  15.424 -0.1079 -0.1450 -0.0211
 3910W        W20757   2.457  16.843   5.876 -0.0926 -0.0441 -0.1946
 3911W        W20758  16.195   5.621   3.315 -0.1252  0.2620  0.1848
 3912W        W20759   1.443   4.461  13.735 -0.2168 -0.1467  0.1534
 3913W        W20760  10.795   9.341   2.299  0.1264  0.1854 -0.1025
 3914W        W20761  12.638  11.435   2.450  0.0099 -0.0044  0.0667
 3915W        W20762  10.009  15.622   3.964 -0.2068  0.0356  0.1359
 3916W        W20763   2.187   5.562  14.504  0.2482  0.0764  0.4157
 3917W        W20764  11.178   0.995   3.922  0.1854 -0.1771  0.1060
 3918W        W20765   4.081  12.149   4.120 -0.0178 -0.3649  0.1421
 3919W        W20766   0.461   4.908   5.651 -0.3454 -0.0279 -0.0017
 3920W        W20767  12.973   6.733   4.178 -0.0802 -0.0534 -0.1669
 3921W        W20768   4.810  15.336  15.676  0.1910 -0.0404 -0.1308
 3922W        W20769   1.730   8.265   5.541 -0.4334 -0.0288 -0.1774
 3923W        W20770  12.227  13.784  13.839 -0.0773 -0.0868  0.0226
 3924W        W20771  15.237  11.963  11.717  0.1398  0.4753 -0.1485
 3925W        W20772   0.515   0.234   5.029  0.0165  0.2001 -0.0254
 3926W        W20773  15.567  14.809  11.926 -0.1555  0.1321  0.0523
 3927W        W20774   4.849   7.792   0.950 -0.0539 -0.0218  0.0770
 3928W        W20775   7.966   3.492  16.273  0.0651  0.0361  0.3370
 3929W        W20776  13.570  13.559  11.266 -0.1451  0.2378 -0.0783
 3930W        W20777   7.141   5.522  14.986 -0.0481  0.0481  0.0730
 3931W        W20778  16.519  16.908   2.634  0.0841 -0.1077  0.3183
 3932W        W20779   0.133   7.422  15.132 -0.0953 -0.2357 -0.0102
 3933W        W20780   5.436   7.078   1.296  0.0468  0.0664 -0.1172
 3934W        W20781   0.408  17.800   2.419  0.2117  0.0077  0.0541
 3935W        W20782   8.075   7.097  12.213 -0.0102 -0.1044 -0.2963
 3936W        W20783   9.083   3.513   3.992 -0.3053 -0.0662 -0.0714
 3937W        W20784   2.014  13.503  12.350  0.3348  0.0448  0.1148
 3938W        W20785  10.302   9.061  14.868 -0.3288 -0.2937  0.1367
 3939W        W20786  16.036   6.851   1.025 -0.0244  0.0864 -0.1287
 3940W        W20787  10.778   2.919   4.283  0.0917 -0.3007  0.0991
 3941W        W20788  16.639  15.922   2.455 -0.1199  0.1187  0.1437
 3942W        W20789   8.707  16.029   1.720 -0.1997  0.1421 -0.1359
 3943W        W20790  12.696  16.670  13.185 -0.4692 -0.0860  0.2379
 3944W        W20791   9.469   5.317   5.974 -0.0067  0.0683 -0.0313
 3945W        W20792  13.729   8.663   3.929  0.0547  0.1530 -0.0845
 3946W        W20793   1.527  10.048   3.234  0.1734  0.2476  0.1050
 3947W        W20794   2.029   5.858   0.206 -0.0882  0.2595 -0.1254
 3948W        W20795   4.915  11.322   5.240 -0.3699  0.2837  0.0438
 3949W        W20796   2.661  14.293   0.033 -0.3595  0.0400 -0.2312
 3950W        W20797  10.327   8.570  15.096 -0.1894  0.1697  0.2220
 3951W        W20798  17.608  10.359   0.547  0.0315  0.1539  0.2795
 3952W        W20799  14.370  12.601  12.591  0.2903 -0.1750 -0.0974
 3953W        W20800  15.659   3.553  14.166 -0.1204 -0.2020  0.1312
 3954W        W20801  10.201   6.396   5.185  0.0983  0.2823 -0.2032
 3955W        W20802  15.256  10.243   6.497 -0.0621 -0.1924 -0.0804
 3956W        W20803  13.401  16.180  11.814 -0.2061 -0.1308  0.0804
 3957W        W20804   7.580   0.862   4.363 -0.1379  0.2102 -0.2538
 3958W        W20805   6.494   3.008   2.654  0.2731 -0.1417 -0.1900
 3959W        W20806  11.602   3.786  12.439 -0.1914  0.1145 -0.0838
 3960W        W20807  13.428  15.726   1.380  0.4187 -0.0958 -0.6119
 3961W        W20808   7.412   9.403  13.927  0.1052 -0.2087 -0.1121
 3962W        W20809  18.001   8.625   2.338  0.0650 -0.0020  0.0956
 3963W        W20810   7.426   6.591  13.362 -0.0641 -0.1254  0.0765
 3964W        W20811   3.227   7.651   4.496  0.2204 -0.0377 -0.1985
 3965W        W20812  12.427   0.944   3.382  0.1229 -0.3428  0.0598
 3966W        W20813   6.343  14.599  12.606  0.0765 -0.0300 -0.3441
 3967W        W20814   3.249  15.055   0.384 -0.1669 -0.1277  0.0058
 3968W        W20815   9.797  18.024   0.900  0.0392 -0.2450 -0.2863
 3969W        W20816   0.818  11.259  13.881 -0.0615  0.1825 -0.4557
 3970W        W20817   4.013  14.586  14.129  0.0268 -0.0539  0.0227
 3971W        W20818  17.757  12.469   0.692  0.2090 -0.1672 -0.0959
 3972W        W20819   0.054   9.107   3.905 -0.3743  0.1672  0.0102
 3973W        W20820   4.396   5.833   3.990 -0.1218 -0.1312  0.0582
 3974W        W20821   3.774   0.331   2.925 -0.1007  0.1930  0.1203
 3975W        W20822   4.847   9.756  11.880 -0.1803  0.0008 -0.1049
 3976W        W20823  16.267   5.843  13.882  0.0297 -0.4145 -0.0420
 3977W        W20824   7.225  15.513   5.183 -0.1587 -0.0501 -0.1595
 3978W        W20825  11.188  12.216  13.339  0.0694  0.2345  0.0072
 3979W        W20826  14.615  10.139   3.904  0.0629  0.0173  0.0182
 3980W        W20827  17.514  12.404   0.223  0.1746 -0.0774 -0.0955
 3981W        W20828   3.598  12.329   4.229 -0.0473 -0.1126 -0.0468
 3982W        W20829  14.327   3.263  14.538 -0.0737  0.1313 -0.0761
 3983W        W20830   0.234  12.340  14.131  0.0431 -0.0023 -0.1817
 3984W        W20831   6.724   4.745  14.815  0.0656 -0.0498  0.0934
 3985W        W20832   6.170   9.145   3.716 -0.1482  0.1231  0.0401
 3986W        W20833  17.834  12.964   0.789  0.4374  0.2349  0.1020
 3987W        W20834  13.577  10.520   0.238  0.0813  0.0073 -0.2429
 3988W        W20835   5.758  10.678   5.105 -0.3071  0.3167 -0.2260
 3989W        W20836   3.870   7.536  12.269  0.2854  0.0744  0.0106
 3990W        W20837  16.579   6.666  12.374 -0.0095 -0.0668  0.0858
 3991W        W20838   8.378  13.872  14.919 -0.1872  0.0134 -0.4103
 3992W        W20839   3.704   3.296   3.190 -0.0837  0.1317 -0.0137
 3993W        W20840  17.313  17.450  12.521 -0.0545 -0.2556  0.0294
 3994W        W20841   4.430   0.982   4.729  0.1847 -0.0259 -0.5198
 3995W        W20842   9.579   2.026   3.348  0.1208 -0.0003  0.1381
 3996W        W20843  10.552  17.716  15.418  0.1874  0.2107  0.1841
 3997W        W20844   4.744  14.501   2.604  0.0477  0.0420 -0.2854
 3998W        W20845  12.657   3.311   1.671  0.1216  0.0888  0.1104
 3999W        W20846   7.484   1.591  16.302  0.1295  0.1318 -0.0525
 4000W        W20847   3.637  16.435   1.600  0.0345  0.0495 -0.2111
 4001W        W20848  11.600  12.903   0.456 -0.0728  0.1383 -0.0109
 4002W        W20849   8.895   0.058  16.236  0.1143 -0.0767 -0.0179
 4003W        W20850   7.013  18.045   5.148  0.3167 -0.2632  0.0225
 4004W        W20851   8.665  16.585   4.699 -0.0053  0.0531 -0.1005
 4005W        W20852   1.880   3.459   3.114  0.0877  0.1357  0.1334
 4006W        W20853  14.574  18.017   3.801  0.2593 -0.1604  0.0823
 4007W        W20854   4.451   5.839  16.139  0.0023 -0.0848 -0.0531
 4008W        W20855  16.410  10.922   1.512  0.1119 -0.0379  0.1016
 4009W        W20856   1.115  16.406   1.033 -0.0452 -0.0346  0.3910
 4010W        W20857  16.912   8.380   3.778  0.0049  0.4616 -0.1850
 4011W        W20858  15.375  12.592   3.608 -0.1649 -0.0706  0.0413
 4012W        W20859   1.008  13.492   0.664  0.0449 -0.0345 -0.0267
 4013W        W20860   4.562  14.836   3.047 -0.0531 -0.1415 -0.3265
 4014W        W20861  17.714   1.617  12.310 -0.0307 -0.0711 -0.3130
 4015W        W20862  16.007  11.349   5.141 -0.2129  0.1145 -0.0192
 4016W        W20863   0.830  12.074   3.429  0.2851  0.0612 -0.0185
 4017W        W20864  13.289  13.638  15.899 -0.1643 -0.0512 -0.4115
 4018W        W20865   7.848  12.593   6.321 -0.0280  0.0684 -0.1647
 4019W        W20866   8.330  13.752   2.792 -0.2622  0.2896 -0.0475
 4020W        W20867  10.248   7.104  14.141 -0.0926  0.3678 -0.0987
 4021W        W20868  16.297  12.598   3.811  0.0591  0.3533 -0.2315
 4022W        W20869   9.995   8.094  15.205 -0.2244  0.1288  0.2465
 4023W        W20870   4.567  15.213  15.235 -0.2289  0.1505  0.1256
 4024W        W20871   2.729  15.766   4.359 -0.0460  0.1322 -0.2346
 4025W        W20872  17.047  14.595   2.269 -0.1918  0.0319  0.0637
 4026W        W20873   7.477   2.627   2.888  0.0139 -0.2003  0.1474
 4027W        W20874   0.851  13.762   3.077  0.0109  0.1483 -0.0425
 4028W        W20875  15.038  17.212   4.953 -0.0532 -0.0652 -0.1974
 4029W        W20876  11.757  15.032  11.891  0.1617  0.0259  0.0688
 4030W        W20877  16.394   9.024   6.251  0.0151 -0.3331  0.0915
 4031W        W20878  10.280   6.977   5.280  0.0474  0.1105  0.0628
 4032W        W20879   0.359   3.025  11.462  0.2586 -0.0790 -0.1010
 4033W        W20880   3.624   0.683   4.620 -0.1807 -0.2016  0.1638
 4034W        W20881  11.937  12.041   3.261  0.0086  0.4525  0.0183
 4035W        W20882   1.199   8.307   4.868  0.1305 -0.0311 -0.1469
 4036W        W20883   1.305  14.059  15.196 -0.0364  0.2394 -0.2630
 4037W        W20884   2.523  10.872   5.356 -0.0039 -0.4475 -0.0856
 4038W        W20885  18.067  14.217  14.754 -0.2494  0.1143 -0.0082
 4039W        W20886  17.128   7.518  12.352  0.0922  0.0969  0.1145
 4040W        W20887  11.674   7.510   1.483 -0.0573  0.0198 -0.0066
 4041W        W20888   8.078   4.723   1.035  0.1814 -0.0568 -0.2059
 4042W        W20889  12.978   7.344  16.068  0.3621  0.0764  0.1174
 4043W        W20890   1.118   5.671   1.138  0.0407  0.0186 -0.0116
 4044W        W20891   4.612   7.996  15.303  0.3077  0.1530 -0.1102
 4045W        W20892   9.022   7.867   4.797 -0.6194  0.0062  0.0212
 4046W        W20893   3.715  12.628   2.890  0.2042 -0.2057  0.1077
 4047W        W20894   4.916  14.313   1.120  0.2799 -0.2351 -0.1204
 4048W        W20895   3.120  16.088   2.267 -0.2499 -0.1323  0.1152
 4049W        W20896  14.137  17.817   3.722 -0.1113  0.2127  0.3086
 4050W        W20897  15.611  13.632  13.092 -0.0736  0.2502 -0.0741
 4051W        W20898  12.023   8.812  14.943 -0.2815 -0.2692  0.1960
 4052W        W20899  16.635   8.220  14.376 -0.0287  0.1687 -0.2820
 4053W        W20900  16.517   2.494   5.141  0.0704  0.1043 -0.2475
 4054W        W20901   0.396   6.140   2.789  0.1351  0.0067 -0.0114
 4055W        W20902  15.685  11.702  13.895 -0.0756 -0.0328  0.0291
 4056W        W20903  15.692  13.916   4.388  0.3119 -0.0842 -0.2247
 4057W        W20904  14.610   0.226  13.566 -0.4975  0.0489 -0.0046
 4058W        W20905  16.784   5.852  15.486 -0.0386 -0.0418  0.1404
 4059W        W20906   1.761  11.510  15.899 -0.1363 -0.1840  0.1490
 4060W        W20907   0.420   1.783   4.623 -0.1085 -0.0901 -0.2155
 4061W        W20908   3.484  16.851  14.856  0.0777  0.0450  0.0587
 4062W        W20909   1.261   9.603  15.205  0.1978 -0.0884 -0.1639
 4063W        W20910   7.844   4.807   0.557  0.0698 -0.1785 -0.1569
 4064W        W20911   6.740  14.407  15.758 -0.1047  0.2955 -0.2738
 4065W        W20912  13.677  10.574   4.965 -0.1524  0.1139 -0.0580
 4066W        W20913   5.018  10.811   1.086 -0.1694  0.0370  0.0951
 4067W        W20914  14.006   7.004   0.194 -0.1248  0.2140 -0.2381
 4068W        W20915  17.593   9.094   1.430 -0.0699  0.1364 -0.0718
 4069W        W20916   8.690   5.666  11.801 -0.2566  0.1045 -0.0600
 4070W        W20917   9.526   1.040   2.270 -0.0147  0.3392 -0.1029
 4071W        W20918  16.692   7.979   1.484 -0.0799  0.0228  0.0536
 4072W        W20919   1.987  14.480   2.796 -0.2166 -0.0604  0.1086
 4073W        W20920  11.749   4.262  11.587  0.2750  0.1902 -0.0392
 4074W        W20921  15.478   6.038   5.253  0.0629  0.2522  0.0371
 4075W        W20922  14.412   0.180  13.149 -0.3858 -0.0594 -0.1147
 4076W        W20923   0.404  12.837   6.470  0.0851  0.1187  0.2708
 4077W        W20924  14.117   8.061  14.637 -0.1849  0.2764  0.4331
 4078W        W20925   3.640   5.369  12.103 -0.3546  0.0942  0.4874
 4079W        W20926   4.360   9.321  15.433  0.0276  0.1246  0.2204
 4080W        W20927   4.801   5.388  12.682  0.0375 -0.0276  0.1017
 4081W        W20928   4.955  16.772   1.657 -0.0576  0.3429 -0.0103
 4082W        W20929   2.929   8.681  16.277 -0.0691  0.1330  0.0258
 4083W        W20930   2.331   2.126   3.188 -0.0849  0.1097 -0.1043
 4084W        W20931  13.431  12.262   4.752 -0.0354  0.2030 -0.2824
 4085W        W20932   3.028   4.831  14.255 -0.0579  0.1059 -0.1539
 4086W        W20933  12.927  15.352   0.130 -0.0952 -0.1046 -0.0514
 4087W        W20934  17.638  12.506  15.956  0.3209 -0.0849 -0.2238
 4088W        W20935   1.588   3.133   0.665 -0.0007  0.0350 -0.1013
 4089W        W20936  14.964  16.432  15.758 -0.1580 -0.1147  0.2331
 4090W        W20937  15.812   5.804   2.404 -0.0683 -0.1594  0.0850
 4091W        W20938   3.976   2.795   3.189 -0.0439 -0.1325 -0.0367
 4092W        W20939   1.100  15.529  13.258 -0.3642 -0.2139  0.1001
 4093W        W20940   0.641   6.448   0.823 -0.0524  0.1629 -0.4375
 4094W        W20941   5.683  14.470   3.699  0.0165 -0.0150 -0.1082
 4095W        W20942   6.274  13.487   5.365 -0.1765  0.0824 -0.1312
 4096W        W20943   3.807  13.001  12.689 -0.0335 -0.1268 -0.1398
 4097W        W20944  16.694  16.673   0.764  0.0666  0.0567 -0.1941
 4098W        W20945   2.204  15.198  13.221 -0.1225  0.1040 -0.0541
 4099W        W20946   8.823   8.314   5.941  0.3100  0.1005 -0.1555
 4100W        W20947  12.826   7.771  13.821 -0.1014  0.0334 -0.1790
 4101W        W20948  12.942  15.999  15.974  0.1020 -0.3036  0.0746
 4102W        W20949   9.842  16.005  13.594  0.2307 -0.4282  0.0694
 4103W        W20950  16.469   9.746  16.218 -0.1452  0.3102 -0.3584
 4104W        W20951   3.358  17.497  12.876 -0.2252  0.1322  0.0289
 4105W        W20952   9.935  18.069  14.175  0.2996  0.1429 -0.1532
 4106W        W20953   5.719   4.599   0.198  0.0514  0.2737 -0.0171
 4107W        W20954  17.072   8.279  11.133 -0.1354  0.0461 -0.0261
 4108W        W20955   5.964   4.932   2.563  0.0736  0.1214  0.0303
 4109W        W20956   4.138  14.099   1.591  0.3726 -0.0159 -0.3189
 4110W        W20957   3.933  16.944  13.836  0.0394  0.1566  0.0935
 4111W        W20958   3.318   8.373   4.090 -0.0784 -0.2066  0.4417
 4112W        W20959  13.755  17.133  14.430  0.2093  0.0492 -0.0155
 4113W        W20960   5.650   3.351   2.260 -0.0280 -0.3445  0.2341
 4114W        W20961  10.570  16.448   2.526  0.0409  0.0061  0.3222
 4115W        W20962  10.511   9.533  14.915 -0.2300  0.1901  0.0208
 4116W        W20963   7.673   6.399  13.888  0.3380 -0.3689  0.0324
 4117W        W20964   4.059  17.757   4.156  0.1903  0.0180  0.3027
 4118W        W20965  14.488  14.999  16.013 -0.4563  0.3434 -0.1245
 4119W        W20966  17.673   0.226  16.523  0.0710  0.1503 -0.0323
 4120W        W20967   3.342   1.757  12.545 -0.2021 -0.1830 -0.1091
 4121W        W20968   4.448  13.491   2.970 -0.2432 -0.4068  0.0625
 4122W        W20969  16.429  10.274  15.517 -0.0728 -0.0598  0.2490
 4123W        W20970   2.745   0.840   2.970  0.3398  0.1956 -0.3632
 4124W        W20971   2.108  16.062  12.480  0.1004 -0.0948 -0.0342
 4125W        W20972   6.559   6.353   3.751  0.1210 -0.0483  0.1662
 4126W        W20973   4.865  10.023  16.507  0.0040 -0.0548  0.1685
 4127W        W20974   4.760   8.560  12.708 -0.2115 -0.0206  0.4823
 4128W        W20975   9.907   6.259   3.491 -0.0625 -0.2341 -0.0215
 4129W        W20976   7.079   4.362  15.084  0.0235 -0.0312 -0.1499
 4130W        W20977   1.554  10.340  14.009  0.1723  0.3075 -0.1612
 4131W        W20978  11.857  17.882  14.963 -0.3343 -0.0058 -0.0092
 4132W        W20979  13.999  15.045  12.209 -0.2174  0.2094  0.2642
 4133W        W20980  12.600  17.504  16.001  0.3165  0.2281 -0.0232
 4134W        W20981  15.926  17.959  14.533 -0.2433 -0.0562  0.2953
 4135W        W20982   0.050  10.216   0.553 -0.2876 -0.1792  0.1965
 4136W        W20983  12.221   2.819   4.190 -0.2387  0.1329  0.1736
 4137W        W20984   0.043   9.520   4.173  0.0020 -0.1964 -0.0528
 4138W        W20985   6.239  16.247   0.405 -0.1535  0.0563 -0.0317
 4139W        W20986   7.193  13.634  15.723  0.1394 -0.2070 -0.0617
 4140W        W20987  17.211   1.489  15.696  0.0658  0.4231 -0.0736
 4141W        W20988   0.270  15.217   1.194  0.1631 -0.1144  0.1559
 4142W        W20989   8.376   8.786  16.569  0.0581 -0.2587 -0.0004
 4143W        W20990  11.254  10.447   3.351 -0.0702 -0.0672 -0.0754
 4144W        W20991   1.676  15.506   2.515  0.1582  0.1232  0.0763
 4145W        W20992  15.679   7.909   1.919  0.0414 -0.0614  0.0215
 4146W        W20993   3.018   5.758   5.524  0.3057  0.3601  0.0972
 4147W        W20994  11.554  15.460   5.481  0.1192 -0.2121 -0.2893
 4148W        W20995  15.371  11.351  15.122  0.1763 -0.0519  0.0364
 4149W        W20996   9.217  14.657   2.287  0.1883 -0.1304  0.1266
 4150W        W20997   6.714   8.961   2.014  0.0853 -0.0691 -0.0313
 4151W        W20998  17.008   9.593   3.975  0.1502  0.3084  0.2380
 4152W        W20999   3.571  16.306   0.426  0.1247  0.3648 -0.0626
 4153W        W21000   0.997   6.208   4.174  0.0963 -0.3792  0.2467
 4154W        W21001   7.201  10.950   0.776 -0.1595  0.0682 -0.2554
 4155W        W21002   6.605  14.070  10.995 -0.1435  0.1227  0.0338
 4156W        W21003  17.410   0.219   4.967 -0.0344 -0.0805  0.1686
 4157W        W21004   7.882  10.572  11.800  0.0659  0.1020 -0.1033
 4158W        W21005   3.042   4.419  11.330 -0.1405 -0.0188 -0.2291
 4159W        W21006  15.648   3.895  13.349 -0.2286  0.0166  0.0581
 4160W        W21007   6.940   6.775  11.299  0.1006  0.1260 -0.0647
 4161W        W21008   4.145  11.039  12.095 -0.0492  0.0927 -0.2083
 4162W        W21009  10.039   9.172   5.091 -0.1600 -0.3307 -0.1641
 4163W        W21010   2.849  14.798  13.701  0.0976  0.4879 -0.2004
 4164W        W21011  10.051  16.580  15.988  0.5030 -0.2360 -0.3298
 4165W        W21012   6.654  16.681  13.075  0.0495  0.1888 -0.1833
 4166W        W21013   5.067  11.034  14.015 -0.1821 -0.2414 -0.1450
 4167W        W21014   5.519  15.706   4.391 -0.1833  0.0130  0.1331
 4168W        W21015  11.275   9.624   1.535 -0.1842 -0.0615  0.0367
 4169W        W21016  17.462  13.305  12.307  0.2267  0.0458  0.2938
 4170W        W21017  15.399  13.726  13.954  0.0776 -0.1206 -0.1029
 4171W        W21018   2.873   3.680   5.237  0.0257 -0.2716 -0.1390
 4172W        W21019   5.077   8.345  11.947  0.2150  0.1675 -0.0207
 4173W        W21020  10.735   8.571   5.085  0.0852  0.1178  0.2695
 4174W        W21021   3.432   9.548  15.577 -0.0532 -0.0517 -0.0482
 4175W        W21022  15.663   7.459   3.151  0.2683  0.1281 -0.1505
 4176W        W21023  14.589   1.495   5.132  0.0620 -0.1992  0.3447
 4177W        W21024   7.788   9.965  14.383  0.1856  0.0355  0.1208
 4178W        W21025   7.411  17.015  13.882  0.1896  0.3464  0.0244
 4179W        W21026   1.665  17.533  15.277 -0.0721  0.1479  0.0207
 4180W        W21027   7.492  13.910  13.519 -0.0207  0.1467 -0.0471
 4181W        W21028   1.052  12.415  15.845 -0.0941  0.0242  0.1233
 4182W        W21029  17.155  15.029   3.181  0.1194 -0.2602 -0.0083
 4183W        W21030   3.725   9.705  16.500  0.2291 -0.2389 -0.0032
 4184W        W21031   0.095   9.546  13.942 -0.2622  0.1961 -0.1049
 4185W        W21032   7.041  13.181   1.423 -0.0561  0.2093 -0.0349
 4186W        W21033   1.751   1.690   3.997  0.1573 -0.2010 -0.0774
 4187W        W21034   3.181   6.722   4.571  0.0365  0.2069 -0.1400
 4188W        W21035  17.204   6.857   4.266 -0.3623 -0.1635  0.0204
 4189W        W21036   5.048   2.012  14.387  0.0714  0.0905  0.0358
 4190W        W21037  16.608   9.668   0.994  0.0474  0.1393 -0.0167
 4191W        W21038  14.269   6.759  14.479  0.2069 -0.0989 -0.2017
 4192W        W21039  16.374  12.437   2.967 -0.0532  0.0202 -0.0158
 4193W        W21040  15.498   6.632  16.229  0.0128  0.2013 -0.2738
 4194W        W21041   2.178  14.991   3.214 -0.2435 -0.0038 -0.2491
 4195W        W21042   6.041  10.442  12.728  0.0046  0.0867 -0.0079
 4196W        W21043   7.069   4.452  11.935 -0.0941  0.1508 -0.0015
 4197W        W21044   4.127   7.643   0.323  0.4762  0.1231 -0.1851
 4198W        W21045  14.709  12.051   4.636 -0.2448 -0.2241  0.0686
 4199W        W21046   6.428   7.056  11.410  0.1871  0.2272  0.1143
 4200W        W21047  11.457  13.815   0.442  0.2222 -0.0328  0.2220
 4201W        W21048  18.041   4.793   1.670  0.2222 -0.0891  0.0485
 4202W        W21049  13.737  17.013  16.669 -0.0420  0.0360  0.1280
 4203W        W21050   0.416   1.779  15.877 -0.2813  0.2996 -0.0530
 4204W        W21051   2.366   1.422  15.960 -0.1455  0.0730  0.2906
 4205W        W21052   1.137  18.020   4.246 -0.0162 -0.0867 -0.0601
 4206W        W21053   2.166  16.265   5.217  0.0106  0.1417  0.0894
 4207W        W21054   0.762  14.494  15.556  0.0566 -0.5180  0.1960
 4208W        W21055  17.647  14.077  15.116 -0.0695 -0.0566  0.1627
 4209W        W21056   4.399   5.329  12.220 -0.0898  0.1697  0.1461
 4210W        W21057  15.772   6.366  12.719 -0.1862 -0.3571 -0.1461
 4211W        W21058   6.424  17.807  16.631 -0.0716 -0.0529 -0.1820
 4212W        W21059   8.476   2.033  12.806 -0.1055 -0.1987  0.1239
 4213W        W21060  12.283  14.262   4.818 -0.1563  0.2884 -0.1665
 4214W        W21061  15.547   8.224   1.409 -0.2552 -0.1027  0.0738
 4215W        W21062   0.182   0.833  12.822  0.3116  0.1261  0.0190
 4216W        W21063  17.182   7.176  14.985 -0.0137 -0.2361 -0.1112
 4217W        W21064  11.105  17.840  15.255  0.1602  0.1164  0.0549
 4218W        W21065  11.333   9.162  13.310  0.0794  0.0586 -0.1848
 4219W        W21066  13.314   8.109  12.251 -0.0212 -0.0708  0.0268
 4220W        W21067  15.388  10.072   3.556  0.0956 -0.1081 -0.1605
 4221W        W21068   1.459   5.177   5.840  0.1934  0.0050  0.1578
 4222W        W21069  10.758   1.159  12.809 -0.1363 -0.0528 -0.1690
 4223W        W21070  16.781  10.835   5.501 -0.2384 -0.2796  0.0660
 4224W        W21071  15.827   2.699   1.141  0.3008  0.2194 -0.1349
 4225W        W21072   2.810  15.051   2.739  0.1293  0.1318 -0.4505
 4226W        W21073   1.561   5.846   1.384 -0.5079 -0.1363  0.2021
 4227W        W21074   3.786  15.504   5.573  0.2310 -0.2108  0.1148
 4228W        W21075  12.046   0.466  12.785  0.0745  0.1075 -0.1028
 4229W        W21076   8.296  10.932  15.664 -0.0037  0.2158  0.4525
 4230W        W21077   7.521   4.129   2.764 -0.2843 -0.1119 -0.0666
 4231W        W21078  13.275   4.447  16.309  0.0296 -0.1075 -0.0594
 4232W        W21079   8.438   0.378   2.107  0.2463  0.1022 -0.4949
 4233W        W21080  11.201  15.921   5.578 -0.3580 -0.1845 -0.0917
 4234W        W21081  11.702  16.369  15.961  0.1874 -0.0513  0.4097
 4235W        W21082   7.087  14.664  13.809  0.1581  0.1141  0.2657
 4236W        W21083  13.189   7.085   4.466 -0.0920 -0.1397  0.0163
 4237W        W21084   2.463   4.828   3.680  0.3868 -0.0447  0.2591
 4238W        W21085  15.853  13.167  13.891 -0.1091 -0.2893 -0.1130
 4239W        W21086  17.650  12.039   5.827  0.2919  0.0837 -0.0144
 4240W        W21087  15.929  10.917  15.736  0.0159  0.1140 -0.1859
 4241W        W21088  16.105  11.146   4.390 -0.0297  0.2104  0.1875
 4242W        W21089  10.295  16.234  13.588  0.1945  0.1887  0.0163
 4243W        W21090   8.790   0.582  12.232  0.0017 -0.0034 -0.0166
 4244W        W21091   9.036   2.614  16.115 -0.1111 -0.0937  0.1010
 4245W        W21092   3.079   9.465   0.478  0.0399 -0.4426 -0.0907
 4246W        W21093   1.755  10.001  16.451 -0.1034  0.1263  0.1975
 4247W        W21094   9.730   4.786  12.682 -0.1075 -0.0944  0.1051
 4248W        W21095  15.369   6.286   5.850 -0.1563  0.0271 -0.1550
 4249W        W21096   5.891   2.753   5.165  0.0212  0.3154 -0.0968
 4250W        W21097  17.318   9.084   2.102  0.3642 -0.2901 -0.0882
 4251W        W21098  13.798  17.728   0.377 -0.0353 -0.5197 -0.1086
 4252W        W21099   8.143  15.358   3.168 -0.0558 -0.0134  0.0442
 4253W        W21100  17.816  11.925   1.840 -0.0198 -0.2532 -0.0583
 4254W        W21101   3.994   0.705   3.359 -0.2264 -0.0999 -0.2911
 4255W        W21102  17.075   9.595  14.371  0.1329  0.1933 -0.1456
 4256W        W21103   9.550   0.163   1.498 -0.3548  0.2621 -0.1141
 4257W        W21104   6.327   2.683   2.205 -0.0988  0.0915  0.1662
 4258W        W21105  17.925  10.474   4.024  0.1764 -0.1644  0.1040
 4259W        W21106  17.453   2.511   0.393  0.0171 -0.0520  0.3119
 4260W        W21107  12.814   1.643   1.814  0.0034  0.1145  0.3499
 4261W        W21108   2.343   9.651   5.852 -0.0907 -0.0850 -0.5214
 4262W        W21109   2.552  11.184   2.634  0.0069  0.1041 -0.0788
 4263W        W21110  12.106   7.834  11.917  0.1336  0.1268 -0.5415
 4264W        W21111   5.006   7.565   3.610  0.0192  0.0642 -0.1246
 4265W        W21112  15.989  14.873   2.912  0.2729  0.1303 -0.1546
 4266W        W21113  16.381   9.902   2.812  0.3423 -0.1559 -0.0236
 4267W        W21114   9.104  13.047  13.478 -0.1258  0.0930 -0.0723
 4268W        W21115   3.815   0.119   4.303 -0.0847  0.0672 -0.3911
 4269W        W21116   3.519   0.106   1.003 -0.0239 -0.1475  0.0730
 4270W        W21117  12.737   8.241  14.507 -0.0957 -0.1981 -0.1341
 4271W        W21118  11.080   6.584   3.052 -0.4132 -0.1361 -0.2134
 4272W        W21119  11.156   9.228  11.723  0.1003 -0.2045 -0.0607
 4273W        W21120  17.843   6.304   3.046 -0.0960  0.4033  0.1341
 4274W        W21121   7.408   4.934   5.852 -0.2060 -0.0265  0.0969
 4275W        W21122  14.626  14.588   0.453 -0.2296  0.0197  0.0528
 4276W        W21123   0.146   2.464   1.830  0.0430 -0.1192 -0.0072
 4277W        W21124   1.352  14.398   4.301 -0.2627 -0.1635 -0.0417
 4278W        W21125   7.594  10.922  16.248 -0.0907 -0.0531  0.1793
 4279W        W21126  10.477   9.478  11.261 -0.0342 -0.0769 -0.1717
 4280W        W21127   5.225  13.093   0.875 -0.0445 -0.2671  0.2888
 4281W        W21128  14.795   6.147   4.762 -0.0682  0.1844  0.2691
 4282W        W21129  14.454  10.304   1.161  0.1704  0.3987  0.1707
 4283W        W21130   3.552  13.665   0.745  0.1049  0.0563  0.3574
 4284W        W21131  11.082   5.197  15.620  0.0700  0.1280  0.0117
 4285W        W21132  10.463   7.808   5.175 -0.1594 -0.1340 -0.0458
 4286W        W21133   6.696  16.093   3.564 -0.0926  0.0602  0.1896
 4287W        W21134  17.435   2.803  14.112  0.1247  0.3064  0.3076
 4288W        W21135   9.361  14.951   4.293  0.1609 -0.0027  0.4905
 4289W        W21136   7.366   6.757   2.545 -0.0979 -0.1917 -0.2753
 4290W        W21137  14.004  15.140   3.501  0.1698 -0.1599 -0.0063
 4291W        W21138   0.783  11.757   4.387  0.1765  0.0527 -0.1397
 4292W        W21139   1.505   6.123   1.796 -0.1059 -0.0429 -0.1776
 4293W        W21140  17.473   7.229  12.070 -0.0941  0.0666  0.0880
 4294W        W21141  16.242   8.059  14.659  0.3489  0.1491  0.2786
 4295W        W21142   4.328  13.237  12.034  0.2727 -0.3897 -0.0847
 4296W        W21143  15.023  11.440   0.108  0.0513 -0.1166 -0.1892
 4297W        W21144  17.217   9.996   1.499  0.0207 -0.3712 -0.0142
 4298W        W21145  12.152   0.279  16.010 -0.0689  0.0732  0.0142
 4299W        W21146   8.184  17.264   0.739  0.0577  0.2135 -0.1730
 4300W        W21147   8.763   4.457   2.062 -0.1060 -0.1842  0.0910
 4301W        W21148   0.604   5.953   2.331 -0.0826 -0.1330  0.0137
 4302W        W21149   5.500  14.795  14.195  0.2629 -0.2332  0.1726
 4303W        W21150   9.532   8.223   1.834 -0.0033  0.1582  0.0445
 4304W        W21151   1.660  11.556   4.033  0.1082 -0.0923 -0.1116
 4305W        W21152  12.711  12.193   1.598 -0.1140  0.1934  0.0707
 4306W        W21153  11.037  14.848   3.999  0.2933 -0.1923 -0.0981
 4307W        W21154   8.130   9.790  16.485  0.1687  0.1100  0.1821
 4308W        W21155   8.288   9.955   5.530  0.0106  0.0475 -0.0038
 4309W        W21156  10.079   1.452  14.545 -0.0806  0.1581 -0.2203
 4310W        W21157  16.197  11.541   4.712 -0.4227  0.2146 -0.0378
 4311W        W21158  14.988   2.501   3.207  0.0400  0.0240  0.0300
 4312W        W21159   7.121   1.821   5.678 -0.1130  0.0333 -0.3021
 4313W        W21160   9.827  11.821  12.996 -0.1384 -0.1443 -0.0138
 4314W        W21161   8.629   9.267   2.445  0.0293 -0.0571  0.3382
 4315W        W21162   7.607  11.061   4.451  0.3239  0.1512 -0.1071
 4316W        W21163   2.386  14.522   4.723  0.0016  0.1868 -0.0943
 4317W        W21164   0.952   8.566  14.461  0.0711 -0.0444 -0.0074
 4318W        W21165  16.743   3.594  14.845  0.0123  0.0994 -0.0528
 4319W        W21166   9.903   1.908   4.577 -0.1846 -0.0697  0.1294
 4320W        W21167   6.591   3.469   1.530 -0.3053  0.1067 -0.4233
 4321W        W21168  17.595  10.838   6.478 -0.0711 -0.4805 -0.0228
 4322W        W21169   1.737  15.913   4.110 -0.0787  0.0328  0.0478
 4323W        W21170   4.271  16.076  16.095  0.1724  0.4306  0.0399
 4324W        W21171   8.775   7.877   5.494  0.0340  0.0241  0.0887
 4325W        W21172   7.375  15.400  12.623  0.1416  0.1870  0.2716
 4326W        W21173   9.050  10.054   1.349  0.0711 -0.2979  0.0063
 4327W        W21174   3.164  10.364   5.509 -0.0424 -0.1131  0.1586
 4328W        W21175  15.533  17.359  11.607  0.1318  0.2653  0.2455
 4329W        W21176   7.730   2.416   0.037 -0.2061 -0.4983 -0.2424
 4330W        W21177   4.653   7.657  14.563 -0.0965 -0.0227  0.2819
 4331W        W21178   4.357   3.719   4.764 -0.1762 -0.3476  0.0917
 4332W        W21179   5.584  17.342  12.337 -0.2166  0.0954  0.2036
 4333W        W21180   9.107  11.829  13.065  0.1407 -0.1357  0.1161
 4334W        W21181  10.474  14.701  13.966  0.0972 -0.0289  0.2242
 4335W        W21182   2.455   2.205  12.958 -0.1414 -0.0091 -0.0540
 4336W        W21183   6.846   3.773  12.602 -0.0839 -0.2017 -0.0003
 4337W        W21184   0.377   4.125  12.140  0.0640  0.1939 -0.1903
 4338W        W21185  13.517   5.624   3.342  0.1422 -0.1329 -0.0195
 4339W        W21186   6.242   7.252   0.857  0.0787  0.3724 -0.4309
 4340W        W21187   7.950   7.953   3.262 -0.0787  0.1732  0.0630
 4341W        W21188   6.030   0.185   5.149  0.0722  0.1716  0.0371
 4342W        W21189   0.751   8.560   0.852 -0.2478  0.0320  0.1323
 4343W        W21190   5.270  10.079   0.874 -0.4388  0.0245 -0.0120
 4344W        W21191  11.244   3.113   2.782 -0.1510  0.0613 -0.0813
 4345W        W21192   6.206   0.242  16.071 -0.1752 -0.0666  0.1716
 4346W        W21193  17.401  14.555   4.164 -0.2181 -0.0501 -0.3268
 4347W        W21194  14.354   8.384  15.460 -0.0147 -0.0171 -0.1591
 4348W        W21195   7.160   4.379   0.831 -0.1501 -0.3401 -0.1040
 4349W        W21196  10.117   6.711  12.776 -0.1887 -0.0004 -0.0318
 4350W        W21197   4.480   5.414   0.478  0.3640  0.1087  0.0037
 4351W        W21198   0.354  14.184   5.543  0.3160  0.1856 -0.0565
 4352W        W21199  11.605   0.200  12.919 -0.1288  0.1806 -0.0784
 4353W        W21200  17.967  16.247   0.319 -0.1220 -0.0276 -0.0804
 4354W        W21201  12.284  15.221   4.956  0.0734 -0.1509 -0.1170
 4355W        W21202   2.772  13.162  16.020  0.1384  0.1603  0.1332
 4356W        W21203  17.932   8.419  16.217  0.0383 -0.2335 -0.0059
 4357W        W21204   8.675  17.884   5.089 -0.2148  0.1582 -0.1716
 4358W        W21205   1.915   2.523  15.037  0.0171 -0.2894 -0.0209
 4359W        W21206  17.318   7.564  13.411 -0.3194 -0.1323 -0.1314
 4360W        W21207   7.550   8.600  14.337 -0.1747 -0.1140 -0.1315
 4361W        W21208  11.826  14.331   0.014 -0.2358 -0.0286 -0.1254
 4362W        W21209  15.148  17.707   1.041  0.0773 -0.1107 -0.0913
 4363W        W21210  15.843  10.353   4.996  0.1737 -0.1407  0.0123
 4364W        W21211   7.993   8.871  16.271 -0.0499 -0.0878  0.1735
 4365W        W21212   5.129  11.378  16.227 -0.2926 -0.1225  0.2127
 4366W        W21213  15.901  15.674  11.666 -0.0662  0.1365  0.1758
 4367W        W21214   4.014   0.373  14.861 -0.0799 -0.0168 -0.1190
 4368W        W21215   2.330  13.648  13.257  0.0302 -0.0119  0.0049
 4369W        W21216   4.078  13.372  16.211 -0.0838 -0.1269 -0.0409
 4370W        W21217  11.594  11.823  13.059 -0.0360 -0.2421  0.2879
 4371W        W21218   2.584  15.994  13.292  0.1595 -0.1317  0.1100
 4372W        W21219   2.051   6.215   0.561 -0.1830  0.0135  0.2313
 4373W        W21220  15.822   2.605   2.604  0.2193 -0.1309 -0.1098
 4374W        W21221  10.370  15.684   6.169 -0.0059 -0.1138 -0.2206
 4375W        W21222   1.454  15.655  12.920  0.0837  0.1177  0.3802
 4376W        W21223  15.064  12.408   0.140  0.1205 -0.4494 -0.2837
 4377W        W21224  13.360   9.701  12.634 -0.2363 -0.2735  0.0597
 4378W        W21225   8.335  16.356   1.701  0.0061 -0.2804  0.0577
 4379W        W21226  16.589  10.326   0.572  0.0111 -0.2392  0.1106
 4380W        W21227   2.422  15.039   2.361  0.0273 -0.0434 -0.2286
 4381W        W21228   0.586  12.448   4.417  0.3444  0.0218 -0.3664
 4382W        W21229   7.504   9.513   1.922 -0.0494 -0.1788 -0.0221
 4383W        W21230   4.691   7.294   2.300 -0.0969  0.1127 -0.1604
 4384W        W21231   3.971   3.976  11.491 -0.2335 -0.1622  0.2281
 4385W        W21232   1.991  14.088   5.253  0.1476  0.2141 -0.0029
 4386W        W21233   8.572   4.137   2.993  0.1306  0.1146  0.0466
 4387W        W21234  12.687   0.060   3.164 -0.2987 -0.0092 -0.0238
 4388W        W21235   1.560   6.139   0.310 -0.1929 -0.2381  0.0304
 4389W        W21236   9.481  12.702  15.863 -0.3565  0.0584 -0.2495
 4390W        W21237   6.773   7.733  11.666  0.0449  0.1359  0.1289
 4391W        W21238   6.737   5.720  15.207  0.0886  0.1674 -0.2316
 4392W        W21239  12.079  13.885   3.890 -0.2571 -0.0672 -0.1985
 4393W        W21240  14.490   8.347  16.231 -0.2082 -0.2860  0.0481
 4394W        W21241  14.724  13.914   2.961 -0.1875  0.1046  0.1016
 4395W        W21242  15.728  16.581   0.826  0.1039 -0.1062 -0.1595
 4396W        W21243   0.346  18.005   0.011 -0.0184 -0.0297  0.1797
 4397W        W21244  15.754   8.543   5.513 -0.3842  0.2061 -0.1061
 4398W        W21245   3.608   8.543   2.929 -0.0377 -0.1673 -0.1051
 4399W        W21246   2.423  12.969  13.743  0.0844  0.2189  0.2902
 4400W        W21247  16.937   0.947   4.347  0.2907  0.0750  0.3425
 4401W        W21248  15.121   6.040   0.253  0.0407  0.1024  0.4429
 4402W        W21249  10.690  17.185  15.483 -0.0677  0.1109 -0.0720
 4403W        W21250  11.194   3.945  15.603  0.0403  0.2172  0.0896
 4404W        W21251  10.792  15.209   0.679  0.2300  0.1761 -0.1888
 4405W        W21252  17.794  12.555  14.073  0.1700 -0.1318 -0.0290
 4406W        W21253   4.299   5.113   0.098  0.1566  0.2287 -0.3830
 4407W        W21254   3.763   0.684   4.156  0.1307  0.1115  0.0047
 4408W        W21255   6.789   9.655  16.593 -0.1672 -0.0841  0.3023
 4409W        W21256   4.983   6.310   2.457 -0.0273 -0.0593 -0.1857
 4410W        W21257   2.726   0.879  14.139 -0.0450 -0.0517  0.4233
 4411W        W21258   3.451   0.382   2.347  0.0238  0.0539 -0.2248
 4412W        W21259  16.734  10.563  14.394  0.1866 -0.0729 -0.1712
 4413W        W21260   9.978   9.529  14.892 -0.2869 -0.1178 -0.0326
 4414W        W21261   4.423  11.631  15.603  0.4081  0.2389 -0.0288
 4415W        W21262   3.932   2.280   5.647  0.2403 -0.0205 -0.2192
 4416W        W21263  10.551   4.687  14.939  0.1076  0.0216  0.2850
 4417W        W21264   5.936  13.403   3.617  0.0992 -0.1912 -0.0425
 4418W        W21265   3.002   9.619  13.677 -0.0990  0.0355  0.1458
 4419W        W21266   8.782  12.248   1.638  0.0419 -0.1817 -0.0273
 4420W        W21267   4.095  16.793  12.945 -0.2729  0.0284  0.0150
 4421W        W21268  14.447  14.751   3.479  0.2023 -0.1903 -0.0772
 4422W        W21269   9.787  12.417   3.929  0.0361 -0.0964 -0.1900
 4423W        W21270  16.912  12.156  14.806  0.2963 -0.0980 -0.1451
 4424W        W21271  10.252  12.726   5.702 -0.0349  0.0583 -0.2225
 4425W        W21272  17.388  12.799  13.795 -0.0239  0.0882 -0.2548
 4426W        W21273  11.716  13.907  15.594  0.0055  0.1322 -0.0592
 4427W        W21274  12.415  16.149  16.024  0.3299 -0.1821  0.0939
 4428W        W21275  17.776  10.125   2.519 -0.0409 -0.0059 -0.2427
 4429W        W21276  17.048   0.459   4.228 -0.1990  0.2019  0.1646
 4430W        W21277  17.257  12.930  16.665 -0.1602  0.1328  0.2796
 4431W        W21278  16.085  14.696  15.596 -0.0170 -0.1445  0.2833
 4432W        W21279   3.434   2.902  11.220 -0.1939  0.3200  0.0769
 4433W        W21280   1.029   3.644  12.754 -0.0695 -0.1944 -0.1198
 4434W        W21281   1.451   7.814   3.553 -0.0329  0.1326  0.0599
 4435W        W21282   0.585  11.395   1.184  0.2562 -0.1707  0.2635
 4436W        W21283   7.288   4.526   0.403 -0.3453  0.1173  0.0374
 4437W        W21284  15.535   1.960  16.538 -0.2134  0.1952  0.1875
 4438W        W21285  17.645   9.128   2.473 -0.1303  0.2295 -0.1606
 4439W        W21286   7.319   8.510   3.466 -0.3464 -0.1396  0.0426
 4440W        W21287   0.034   5.173   0.214 -0.1717  0.1493  0.0062
 4441W        W21288  12.670  12.793  13.023 -0.1375 -0.1381  0.0348
 4442W        W21289   6.709  11.148   1.554 -0.0580 -0.3984 -0.1021
 4443W        W21290   1.294   2.299  15.245 -0.0122  0.1865  0.0158
 4444W        W21291   4.338  16.021  14.127  0.0428  0.0966  0.0790
 4445W        W21292   2.762  16.490  13.297  0.1967  0.0482 -0.0160
 4446W        W21293  13.575   3.384   0.216 -0.1407 -0.0891  0.1218
 4447W        W21294   6.230   8.706   0.781 -0.1575 -0.2325 -0.0998
 4448W        W21295  11.679  12.250   2.143 -0.4942  0.0504  0.0777
 4449W        W21296  13.263   9.847   3.839  0.1311 -0.1032 -0.2097
 4450W        W21297  12.999   2.422   3.616 -0.3168  0.2044 -0.2113
 4451W        W21298  17.489  14.311  14.704 -0.1817 -0.2296 -0.2236
 4452W        W21299  14.950  16.850  10.854  0.3352  0.0647  0.0682
 4453W        W21300   8.643  10.674  11.894 -0.0826  0.2345  0.0223
 4454W        W21301  15.988   8.887  14.472 -0.1572  0.0542  0.2542
 4455W        W21302  14.607  17.515  16.505 -0.0489  0.2067 -0.1816
 4456W        W21303  12.213  14.272   0.361 -0.0382  0.4789 -0.0758
 4457W        W21304   3.232   3.891   0.560 -0.3243  0.0316  0.1271
 4458W        W21305  10.052  16.905   5.555  0.1801 -0.2467 -0.2391
 4459W        W21306   0.957  12.777  11.947 -0.0210  0.2785  0.1363
 4460W        W21307   6.302  11.644  14.213  0.0948  0.0353 -0.2475
 4461W        W21308  13.110  13.951   2.557 -0.1995 -0.1849  0.2684
 4462W        W21309  18.013   2.182  14.720  0.1075  0.0579 -0.0859
 4463W        W21310  18.008   2.210  11.254  0.1923  0.0912  0.2052
 4464W        W21311   9.156   4.626  12.992  0.1354  0.2324 -0.3905
 4465W        W21312   1.699  10.309   3.998  0.1005  0.2541  0.2319
 4466W        W21313  17.371  14.611  15.203 -0.0911 -0.1208  0.3235
 4467W        W21314  11.068   1.779  12.978  0.0543  0.1014  0.3496
 4468W        W21315   1.322  13.778   3.310  0.1279  0.0497  0.1432
 4469W        W21316  16.408  11.818   3.778  0.2937  0.1215  0.0011
 4470W        W21317   3.284   6.131  12.908  0.0735 -0.0622  0.0854
 4471W        W21318   7.156  12.652   2.725  0.0318  0.1625 -0.3055
 4472W        W21319  11.140   4.812  12.319  0.0700 -0.3744 -0.1050
 4473W        W21320   2.612   4.088   5.157 -0.3582  0.0649  0.1286
 4474W        W21321  14.179   0.129  14.427 -0.2248 -0.1952  0.0285
 4475W        W21322  10.067  15.899  12.573  0.0648  0.0918  0.2515
 4476W        W21323   6.566   7.476   3.770  0.0242  0.3159  0.0153
 4477W        W21324   4.655   4.842  16.480 -0.1058  0.0328  0.1196
 4478W        W21325  13.945   5.289  16.180  0.3452 -0.1724  0.0990
 4479W        W21326   0.451   9.920  16.387  0.0088  0.4442  0.5322
 4480W        W21327  11.737  14.922   4.127 -0.0186 -0.0418  0.0674
 4481W        W21328   1.988  16.709   5.036  0.1234  0.5029 -0.0504
 4482W        W21329   9.179  16.843  13.481  0.1547  0.3596  0.0301
 4483W        W21330   2.853  12.766   5.375 -0.0336  0.2888 -0.0428
 4484W        W21331  16.259   2.828   1.906  0.1431  0.1303 -0.3194
 4485W        W21332  16.260  16.020   4.766 -0.0433  0.0296 -0.1485
 4486W        W21333  12.860  16.722   0.546 -0.1425 -0.0929 -0.1846
 4487W        W21334   4.396   0.542  13.410 -0.1280 -0.0582  0.2475
 4488W        W21335  13.892  13.054  15.607  0.2099  0.2349 -0.2328
 4489W        W21336  17.016   3.251  13.288 -0.1318  0.1004  0.1994
 4490W        W21337   7.950  10.300   3.177  0.0075 -0.1310  0.1088
 4491W        W21338   9.195  17.379  13.234  0.0130 -0.0311  0.1197
 4492W        W21339   1.752  13.363   6.134  0.2175  0.1517 -0.3066
 4493W        W21340   4.026   0.791   4.986  0.0474 -0.1829  0.3502
 4494W        W21341   9.029   7.791   3.958  0.0817 -0.3387  0.2430
 4495W        W21342   2.870   3.805   0.962 -0.1635  0.0718 -0.1221
 4496W        W21343   5.351  11.882  13.971  0.0607  0.2074  0.2804
 4497W        W21344   9.507   2.550  16.192 -0.2333  0.0051  0.3489
 4498W        W21345  18.039  14.760  13.352  0.1522  0.0725  0.3145
 4499W        W21346  13.816  13.939   3.981 -0.1084 -0.0655  0.1616
 4500W        W21347   6.633   5.942   1.052  0.0683  0.0645  0.3555
 4501W        W21348  16.666  17.359   2.872 -0.3383 -0.1296 -0.0078
 4502W        W21349   4.976   5.903  14.022  0.0933  0.1373 -0.2003
 4503W        W21350   6.391  15.557  15.939  0.4339  0.0972  0.1374
 4504W        W21351   0.686   0.229   4.158 -0.0425 -0.0591  0.2198
 4505W        W21352  14.213   4.291   5.686 -0.0308 -0.0681  0.0255
 4506W        W21353  11.231   1.237  15.605 -0.2352  0.1042 -0.0143
 4507W        W21354   6.073   6.764   5.015  0.1916 -0.0227  0.1167
 4508W        W21355  17.094  13.415   2.199  0.3229 -0.0505  0.0932
 4509W        W21356   8.314   0.139   4.700  0.0967  0.1529 -0.2236
 4510W        W21357   7.563   0.099  14.340  0.0191  0.1854  0.3124
 4511W        W21358   8.870   6.121  14.312 -0.2621 -0.2493  0.0623
 4512W        W21359   1.843  16.582  14.847  0.2889  0.1353 -0.1358
 4513W        W21360   6.325  11.201   5.193  0.2720  0.0177 -0.0474
 4514W        W21361   3.660  15.586  12.476  0.2096  0.3346 -0.0501
 4515W        W21362   3.036  15.220   1.806 -0.2502  0.3865 -0.2450
 4516W        W21363   1.093  10.119  13.864 -0.3236 -0.1845  0.4273
 4517W        W21364  17.373   4.181   3.270  0.0437  0.1533 -0.0498
 4518W        W21365  12.412   5.687   4.325 -0.1112 -0.1188 -0.0456
 4519W        W21366  12.359   0.196   1.630  0.0212  0.1790 -0.0116
 4520W        W21367   7.444   8.947  15.640 -0.1150  0.0625 -0.1219
 4521W        W21368   4.337   7.476   4.385  0.1358  0.1628  0.0011
 4522W        W21369  12.350   5.531   0.984  0.2798 -0.2041 -0.1397
 4523W        W21370  15.164  13.707   2.795  0.2738 -0.2720 -0.1532
 4524W        W21371   5.631  16.973   0.447  0.2631 -0.0655  0.0093
 4525W        W21372   4.576  17.781   2.830  0.1578 -0.1019 -0.0639
 4526W        W21373   7.175   8.165  16.186  0.3498 -0.0788  0.0401
 4527W        W21374  16.294   5.218   5.273  0.1167  0.0377 -0.0343
 4528W        W21375   2.368  15.806  15.883 -0.0129  0.1004 -0.2752
 4529W        W21376   0.509   0.431   1.295 -0.1524  0.0267  0.1572
 4530W        W21377  13.657  12.739  13.003  0.2909 -0.0099 -0.0318
 4531W        W21378   7.126   7.721   0.293 -0.4627 -0.3139  0.0526
 4532W        W21379  10.407   4.936   4.879  0.0034 -0.0945 -0.0415
 4533W        W21380  10.013   3.591  15.365 -0.1216  0.3347  0.2774
 4534W        W21381  13.189   5.437   5.131  0.2716  0.1974 -0.0826
 4535W        W21382   9.031  14.212   2.253 -0.0263 -0.3353 -0.0618
 4536W        W21383  13.022  16.739  16.447  0.1539  0.0213 -0.0842
 4537W        W21384  14.893  17.062  16.569  0.2161  0.1322 -0.0163
 4538W        W21385  12.072  14.005  14.342  0.1046  0.3644  0.1927
 4539W        W21386   1.371  13.387   5.827 -0.1105 -0.0098 -0.1009
 4540W        W21387   2.875   4.289  12.619 -0.2518  0.0605 -0.1079
 4541W        W21388  12.233   2.021   4.930 -0.2591  0.0703 -0.0933
 4542W        W21389   6.464   4.771   0.767  0.0795  0.1440  0.0617
 4543W        W21390  13.962  15.476  16.538  0.0787  0.0967 -0.1325
 4544W        W21391   5.923   9.100   0.646 -0.4124  0.4197  0.0322
 4545W        W21392   7.568  17.773  13.974  0.1084  0.0049  0.0640
 4546W        W21393  17.009   5.992  15.920  0.0120  0.1722  0.6009
 4547W        W21394   9.495   1.807  12.637 -0.2191  0.1684 -0.1183
 4548W        W21395  11.607   2.749  12.263  0.0869  0.2851  0.0334
 4549W        W21396  12.576   7.490   1.716 -0.1181  0.1802  0.1322
 4550W        W21397  14.052  13.816   0.260 -0.1309 -0.0702  0.0366
 4551W        W21398   5.485   8.068   5.794  0.1046 -0.1002  0.0223
 4552W        W21399  17.366   5.168  12.180 -0.2109 -0.1487 -0.0360
 4553W        W21400  16.772  13.609  13.921  0.0432  0.1129  0.1575
 4554W        W21401  12.114  12.368   5.227 -0.1595 -0.0863  0.2003
 4555W        W21402   8.977  15.799   5.582 -0.1321  0.1041 -0.2532
 4556W        W21403  17.895  13.422   1.506  0.0036  0.0446 -0.3183
 4557W        W21404   4.770  15.957   0.033 -0.2648 -0.0172  0.0595
 4558W        W21405   6.668  16.322   5.582 -0.1330 -0.1110 -0.1146
 4559W        W21406   9.715  12.754   5.622  0.0355  0.1409  0.0204
 4560W        W21407   9.915   2.607   4.582  0.1047  0.2307  0.3002
 4561W        W21408   2.522   1.858  13.869  0.0923  0.2882  0.1342
 4562W        W21409   6.275   4.693   3.302 -0.2498  0.0736  0.1110
 4563W        W21410   8.776   4.765  12.390  0.0842  0.1275 -0.1796
 4564W        W21411  15.543  17.246   2.584  0.1342 -0.1745  0.0639
 4565W        W21412   5.336   9.132  13.426 -0.1298  0.1302 -0.1647
 4566W        W21413   6.961   2.159  13.548  0.1763  0.0923  0.0603
 4567W        W21414   6.311  10.150  13.330  0.1347  0.2770  0.2180
 4568W        W21415  12.538  17.743  15.543 -0.1449 -0.1007 -0.0904
 4569W        W21416  17.426   4.553  16.126 -0.0176 -0.2215 -0.2699
 4570W        W21417   8.617  10.040  11.778  0.0158 -0.1162  0.2517
 4571W        W21418   9.256   0.627   0.150  0.0788  0.1614 -0.0409
 4572W        W21419   1.293   6.923   4.644  0.0347  0.0072 -0.1744
 4573W        W21420  12.312   4.466   4.751  0.1835 -0.3281 -0.2428
 4574W        W21421  11.929  10.130   0.746  0.1761 -0.0338  0.0571
 4575W        W21422  11.216   5.231   0.657 -0.0355 -0.0783  0.1622
 4576W        W21423  14.128   4.143   1.097  0.2062 -0.0939 -0.0655
 4577W        W21424   2.124  15.229   1.390  0.0901  0.3660  0.0874
 4578W        W21425  13.108  11.139  11.895 -0.3193  0.1455 -0.0993
 4579W        W21426  14.006   1.096   0.642  0.0376  0.0442  0.1190
 4580W        W21427  14.978  15.647  12.582  0.2226 -0.1749 -0.2435
 4581W        W21428  12.187  11.598  15.182  0.1037 -0.0073 -0.2039
 4582W        W21429  17.951  13.402  12.644  0.2138  0.2777  0.0341
 4583W        W21430   7.833   3.542  13.181  0.0603 -0.0612 -0.2626
 4584W        W21431  14.462  12.597  14.891  0.0881 -0.3034  0.2734
 4585W        W21432   9.926  16.811   1.640 -0.0376 -0.3223 -0.0790
 4586W        W21433  10.332   9.029   1.397  0.0921  0.0196  0.0500
 4587W        W21434   2.372   9.733  13.715  0.1528 -0.3016 -0.0598
 4588W        W21435  11.944  11.591   3.045 -0.4508 -0.4015 -0.1098
 4589W        W21436   9.179   1.134  16.596 -0.0093 -0.0701 -0.1739
 4590W        W21437   4.299  16.778   4.236 -0.3356 -0.2243  0.2156
 4591W        W21438   4.713   3.339   2.140 -0.0381 -0.0090 -0.0209
 4592W        W21439   7.681  14.685   5.133  0.1433  0.0116  0.0919
 4593W        W21440   8.280   6.920  13.394 -0.0298  0.0266 -0.2431
 4594W        W21441  15.389  15.075  16.204 -0.0637  0.2575 -0.0683
 4595W        W21442   1.115  16.886  15.844 -0.1944 -0.0701  0.3532
 4596W        W21443  10.246  10.386  16.216  0.1934  0.1360  0.2201
 4597W        W21444  14.056  13.664  15.585  0.0803  0.0337 -0.0239
 4598W        W21445   8.634   1.206  14.774 -0.1568  0.4621  0.0343
 4599W        W21446   8.579  14.081  12.173  0.0577 -0.1167  0.0427
 4600W        W21447   9.413   5.202   0.881  0.1001 -0.0853  0.1807
 4601W        W21448   4.393   2.469  15.502 -0.0208 -0.1291 -0.0135
 4602W        W21449   0.111  13.358   4.370 -0.1586 -0.1057 -0.1918
 4603W        W21450   2.433  15.277  13.659  0.1272 -0.0769 -0.2461
 4604W        W21451   3.180  12.158   5.959 -0.4493  0.0309  0.4349
 4605W        W21452   4.103   0.988  13.077 -0.0053 -0.1865 -0.2395
 4606W        W21453  11.775   8.670  16.097 -0.0069 -0.0025  0.0043
 4607W        W21454  15.711   7.619   4.070  0.0568 -0.1619  0.1777
 4608W        W21455  17.675  10.038  15.181 -0.0005  0.1690  0.0612
 4609W        W21456  14.717   9.783  15.336  0.1003 -0.0176 -0.0264
 4610W        W21457   9.731  10.648  12.644 -0.3034  0.2840  0.1727
 4611W        W21458   4.431  16.063   0.912 -0.1987  0.0790  0.0617
 4612W        W21459  16.289  15.866   4.239  0.1899 -0.1182 -0.1114
 4613W        W21460   7.897   2.219   1.686 -0.2812 -0.2383  0.2067
 4614W        W21461   1.784  10.784   0.614  0.1832  0.2557  0.0166
 4615W        W21462   8.472  13.768  16.631 -0.1259 -0.0740 -0.0149
 4616W        W21463   3.566   0.401  12.748 -0.2807  0.2815 -0.2664
 4617W        W21464   8.342   8.647  12.869  0.1779  0.4907 -0.1165
 4618W        W21465  12.479   1.936   2.028 -0.0259 -0.4030 -0.1906
 4619W        W21466  10.956   5.953  14.331 -0.2015 -0.0070 -0.2567
 4620W        W21467   7.706  15.570   5.014 -0.0083 -0.1222 -0.0360
 4621W        W21468   4.506   2.277  11.982 -0.0748 -0.0461  0.0594
 4622W        W21469  16.640   2.703  15.212 -0.1271  0.1626 -0.0179
 4623W        W21470   5.375   1.537   2.402 -0.0284  0.0200 -0.0690
 4624W        W21471  11.882   5.504  12.682  0.2859  0.1851 -0.0650
 4625W        W21472   6.272  10.573   2.230  0.0230  0.3175 -0.1701
 4626W        W21473   3.028   9.003   2.330 -0.0629  0.1002 -0.1562
 4627W        W21474  13.514   2.382  13.197  0.0960 -0.3103  0.1995
 4628W        W21475   4.037   9.485  13.303 -0.3386  0.0156 -0.1249
 4629W        W21476   9.401   7.734  11.945 -0.2125  0.1619 -0.1527
 4630W        W21477   0.469  12.203  12.269  0.1547 -0.2593 -0.0508
 4631W        W21478  12.075   6.017   2.823 -0.2088 -0.1096  0.0843
 4632W        W21479   6.559  17.735  13.461 -0.4434  0.0406  0.3701
 4633W        W21480   6.585  10.695  16.537  0.0139  0.2913 -0.0614
 4634W        W21481  10.540   3.773   3.547  0.1908 -0.0754  0.0531
 4635W        W21482  15.154  10.692   0.636  0.0320  0.3368 -0.1109
 4636W        W21483   7.727   4.983  14.507  0.3020 -0.2912 -0.0036
 4637W        W21484   4.727   2.090  15.510  0.1222 -0.0859  0.2294
 4638W        W21485   1.727   3.089   5.015 -0.3597 -0.5546 -0.0304
 4639W        W21486  11.632   7.568   4.651  0.0780 -0.0218 -0.0566
 4640W        W21487   7.279   1.609   4.646 -0.1921 -0.1669  0.1949
 4641W        W21488  11.141   3.851  16.385  0.1339  0.0632 -0.0184
 4642W        W21489  10.691   7.648   2.829  0.1236 -0.1040 -0.0739
 4643W        W21490  14.003  15.062  14.479  0.1851 -0.0401 -0.0175
 4644W        W21491  13.520   1.028   4.408 -0.0759  0.1771  0.1292
 4645W        W21492  13.762  12.586  15.824  0.3837 -0.1320  0.3690
 4646W        W21493   4.912  14.100   5.777  0.2250  0.3828  0.0343
 4647W        W21494  14.813   9.449   4.891  0.1691 -0.0061 -0.0660
 4648W        W21495   2.313   2.351   3.621 -0.1309  0.0988  0.0582
 4649W        W21496   7.652  15.397  14.284  0.0767  0.2913 -0.2510
 4650W        W21497   7.966  18.072   4.315 -0.3303 -0.0192  0.1241
 4651W        W21498   9.174   7.834  14.058 -0.3339  0.0979 -0.1312
 4652W        W21499  14.659  12.106   5.729 -0.0301  0.3739  0.1353
 4653W        W21500  17.033   4.637  16.391  0.0717  0.2195  0.1685
 4654W        W21501  16.170  12.013   1.094  0.1803 -0.0871  0.1544
 4655W        W21502  17.584  12.170  15.546  0.1389  0.1670  0.1822
 4656W        W21503   4.598   6.057  14.292  0.0779 -0.0250  0.3192
 4657W        W21504   9.048  12.451   0.735 -0.2903 -0.0782  0.1076
 4658W        W21505   1.730  15.529   3.068  0.0536  0.1747 -0.0434
 4659W        W21506   7.606  15.329  11.943 -0.0903 -0.0251  0.0421
 4660W        W21507  14.650   7.834  11.956  0.0124  0.1984  0.1837
 4661W        W21508  17.701   4.084  15.362  0.1291 -0.0736 -0.2458
 4662W        W21509   1.968   9.456   0.507  0.2002  0.1104 -0.0702
 4663W        W21510  10.079   3.525  11.852  0.2539  0.0660  0.1613
 4664W        W21511  12.198   9.323  15.125  0.1891 -0.3059  0.1544
 4665W        W21512   8.310  14.471   0.481 -0.0211 -0.0026 -0.1548
 4666W        W21513  13.959   5.816   3.281 -0.2382  0.0778  0.0728
 4667W        W21514  10.964  12.493   2.618 -0.0903  0.0754 -0.0322
 4668W        W21515   1.404   7.097   2.775 -0.2260  0.0045  0.0371
 4669W        W21516   0.092  14.056   5.067 -0.0829 -0.2822  0.3738
 4670W        W21517  15.158   7.646  14.406  0.1180  0.2075  0.0102
 4671W        W21518  12.533   0.306   4.139  0.2556 -0.1698  0.2615
 4672W        W21519  17.577  11.578  11.883  0.2428  0.0233 -0.0419
 4673W        W21520   1.475   9.417   3.308  0.1015  0.1669 -0.0699
 4674W        W21521  14.361   3.923   4.970  0.1087  0.0729 -0.0133
 4675W        W21522   0.926   3.225   2.781 -0.1620 -0.0786 -0.2405
 4676W        W21523  10.659   2.065  16.649 -0.0524 -0.2213 -0.4236
 4677W        W21524  14.169   5.199  11.681  0.1987  0.3384  0.0099
 4678W        W21525   4.190   8.162   5.494  0.2607  0.1915  0.0425
 4679W        W21526   5.069   5.594   0.823  0.1053 -0.0544 -0.2630
 4680W        W21527   1.777   0.698   4.583  0.0470 -0.0865 -0.0142
 4681W        W21528   8.737   4.886   3.777 -0.0696 -0.2489 -0.0251
 4682W        W21529   3.736  11.322   5.054  0.4004  0.0127 -0.1674
 4683W        W21530   8.248   2.146  11.990  0.0091 -0.0545 -0.1918
 4684W        W21531   7.073  15.429  13.082 -0.2600  0.4849 -0.1192
 4685W        W21532  16.327  12.175   2.357 -0.1559  0.3489  0.1102
 4686W        W21533  10.017   7.754  16.289  0.1376  0.0784  0.0071
 4687W        W21534  12.113  11.266  12.402  0.1690  0.0938  0.2790
 4688W        W21535  14.627   2.136   3.153 -0.0155  0.1188  0.1126
 4689W        W21536   6.283   1.226  12.592 -0.1343  0.2064  0.2253
 4690W        W21537   2.450   7.444   1.508 -0.1656 -0.0262  0.0454
 4691W        W21538   4.246   0.483  16.373 -0.0186 -0.0904 -0.4516
 4692W        W21539  11.893  13.853   4.767  0.1248  0.0809 -0.0031
 4693W        W21540   2.848   9.776  14.094 -0.4150 -0.1018  0.1892
 4694W        W21541  16.847   9.694   3.521 -0.0807  0.1126  0.2244
 4695W        W21542   1.685  15.465   1.263  0.1273  0.0659 -0.0745
 4696W        W21543   6.652   5.225  15.446  0.2190 -0.0451  0.0885
 4697W        W21544  11.423   3.651  15.166  0.1801  0.1517 -0.0740
 4698W        W21545  17.951   7.945  16.262 -0.1841 -0.1812 -0.0219
 4699W        W21546   0.977   3.722   3.083 -0.0221  0.0366 -0.1145
 4700W        W21547   9.989  13.501  15.326 -0.0268 -0.0739  0.3671
 4701W        W21548   5.072   0.306  15.153  0.3825 -0.0042 -0.0016
 4702W        W21549   4.049   2.672   1.062 -0.1717 -0.1605  0.0580
 4703W        W21550  10.185   7.692  15.777  0.0748  0.1021  0.0652
 4704W        W21551   5.166  15.901  14.990  0.0726 -0.0368  0.0051
 4705W        W21552  13.848  13.274  16.512 -0.3581 -0.2395 -0.0563
 4706W        W21553   7.383  15.673  16.418 -0.1544  0.4286  0.2873
 4707W        W21554  11.437  12.246  15.663 -0.2370 -0.0614  0.0380
 4708W        W21555   8.037   0.869   4.072  0.0981 -0.1893 -0.1313
 4709W        W21556   7.570   0.855   2.560 -0.5026 -0.1808 -0.1724
 4710W        W21557  16.680   8.067   0.171 -0.1385  0.2809 -0.0351
 4711W        W21558  16.357  15.814  15.163 -0.2355  0.0766 -0.0863
 4712W        W21559  14.525  12.921   2.669 -0.2699  0.0353 -0.0047
 4713W        W21560   9.907  13.897   4.967  0.2314 -0.1208  0.0616
 4714W        W21561   9.773   6.839  12.110  0.1340  0.0360  0.0305
 4715W        W21562  16.809   6.639  12.856  0.0898 -0.0383  0.0848
 4716W        W21563   6.226   4.865   3.819 -0.2637  0.2539  0.1340
 4717W        W21564  12.817   8.885  12.118  0.1116 -0.1755  0.0472
 4718W        W21565   5.268   7.597   0.116  0.2743  0.0686 -0.2676
 4719W        W21566   6.940   2.519  12.055  0.0171 -0.0037  0.3757
 4720W        W21567   7.995   8.209   5.139  0.1969 -0.0495  0.1026
 4721W        W21568  17.720   6.553   0.574  0.0243  0.1472 -0.0944
 4722W        W21569  13.781   0.373  15.601  0.0418 -0.0447 -0.0180
 4723W        W21570   7.980   0.790   3.586 -0.0840  0.0923  0.2026
 4724W        W21571  16.572   8.119  11.880 -0.3026 -0.0173  0.0025
 4725W        W21572   0.642   5.278   5.346 -0.1383 -0.0524 -0.2991
 4726W        W21573   1.985  10.420   0.285 -0.0437  0.4216 -0.1129
 4727W        W21574   7.261   8.546  11.857 -0.0738 -0.3981 -0.0510
 4728W        W21575  13.072   2.476   2.639  0.0909 -0.1316 -0.0231
 4729W        W21576   6.169  16.741  13.965 -0.0955 -0.0712  0.0625
 4730W        W21577   9.331  10.832   2.956  0.0866 -0.3659  0.2430
 4731W        W21578   4.926  16.844   3.586  0.2938  0.2414  0.1370
 4732W        W21579   9.848  11.074   0.305  0.2267 -0.0257  0.1456
 4733W        W21580  10.120   9.407   5.930  0.1859  0.2271  0.2877
 4734W        W21581   5.820  16.687   1.339  0.2489  0.0583  0.0173
 4735W        W21582   4.208  11.883   4.528 -0.2436 -0.0419  0.0308
 4736W        W21583   7.877   4.892  14.076 -0.0220 -0.3063  0.2195
 4737W        W21584  16.366   7.526   0.136 -0.1256 -0.0783 -0.1721
 4738W        W21585   6.922   0.858   4.697 -0.0700 -0.0816  0.2636
 4739W        W21586   6.355   2.778  13.431 -0.0533  0.0063 -0.0370
 4740W        W21587   5.189   7.426   3.173  0.2024 -0.2413  0.1879
 4741W        W21588   1.832   7.212   4.111 -0.0351 -0.2834 -0.0378
 4742W        W21589  17.859   6.227   0.965  0.2596  0.0345 -0.0450
 4743W        W21590   2.951   6.317   2.743  0.0895  0.1533 -0.2571
 4744W        W21591   0.335   2.817   4.485  0.2439  0.0676  0.1012
 4745W        W21592   2.695  10.848  16.603 -0.2679  0.0571  0.3003
 4746W        W21593   8.431  17.764  15.649 -0.1349  0.0557 -0.0442
 4747W        W21594   2.115  16.559   0.786  0.0258 -0.0142 -0.5468
 4748W        W21595  10.131   0.740  11.423  0.0058  0.2432  0.1970
 4749W        W21596   3.944  13.557   3.120  0.2566 -0.0363  0.3077
 4750W        W21597   7.200   9.556   6.234  0.0574  0.0294  0.2053
 4751W        W21598   8.041   7.816  16.357  0.2138 -0.1906  0.0059
 4752W        W21599   5.724   4.306  11.870 -0.1088  0.0474 -0.1989
 4753W        W21600   0.734  14.450  16.454 -0.0904 -0.2278  0.2162
 4754W        W21601   4.111   7.097   4.075 -0.0025  0.2330  0.1488
 4755W        W21602  10.973  16.856   3.041  0.0397  0.3478 -0.0998
 4756W        W21603   9.694   9.188   3.029  0.0021 -0.2910 -0.4880
 4757W        W21604  17.578   7.924  14.347 -0.1641  0.0191  0.0062
 4758W        W21605   9.405  13.743  15.918 -0.2352  0.1021 -0.2023
 4759W        W21606   4.029   3.379  13.715  0.1242  0.2709  0.0120
 4760W        W21607   8.700  16.769   4.238  0.0283  0.1784 -0.2436
 4761W        W21608  10.355   9.260  12.715 -0.1652  0.0495 -0.1511
 4762W        W21609   4.604   3.772   2.382 -0.1809  0.1864 -0.1196
 4763W        W21610   2.117   9.145   5.701  0.1274 -0.2594 -0.1525
 4764W        W21611  12.897   3.005  13.419  0.1799  0.0974  0.2871
 4765W        W21612   3.792   4.568  14.031 -0.0324  0.2039  0.0622
 4766W        W21613   4.687   3.046   3.841 -0.2417  0.0648 -0.1609
 4767W        W21614  14.366  12.849  16.393 -0.0591  0.0617  0.0141
 4768W        W21615  12.623  13.950  15.384 -0.1797  0.1211 -0.1278
 4769W        W21616   4.364  10.695  12.405 -0.0774  0.1549  0.0983
 4770W        W21617  13.866  14.021   2.258 -0.2176  0.0142 -0.1382
 4771W        W21618  13.943   4.307  12.605  0.2479 -0.0729  0.0471
 4772W        W21619  15.797  11.678   2.146  0.0425  0.1690 -0.1443
 4773W        W21620  16.879   7.109  16.296 -0.1042  0.1789 -0.4072
 4774W        W21621   9.826   2.659  16.591  0.0148  0.2292  0.2310
 4775W        W21622  11.554  10.918   0.188 -0.0406  0.2157 -0.0333
 4776W        W21623  14.050  15.989   4.970  0.2061  0.3536  0.2136
 4777W        W21624   2.516   7.844   1.767  0.0023  0.1684  0.1871
 4778W        W21625  16.504  12.842  12.336  0.2156 -0.1081 -0.0250
 4779W        W21626   7.493  18.058  15.358 -0.0034 -0.0864  0.0152
 4780W        W21627   4.017  14.395   6.111  0.0141  0.4144  0.0126
 4781W        W21628   1.788  12.991  12.649 -0.1505  0.2921 -0.1235
 4782W        W21629  13.500  11.901   1.252 -0.3538 -0.1160 -0.2002
 4783W        W21630   7.044   6.544   0.602  0.1895  0.0612 -0.1836
 4784W        W21631   5.305   7.816   1.425 -0.0308 -0.1466  0.1252
 4785W        W21632  12.419  15.350  13.633  0.0270  0.0138  0.1905
 4786W        W21633   4.497  13.198   5.463  0.0556 -0.1350  0.2712
 4787W        W21634   2.643   2.956  10.106  0.0601  0.0135  0.0337
 4788W        W21635   6.519  14.451   0.426  0.0239  0.0959 -0.0178
 4789W        W21636  15.310  12.357   2.770 -0.0851 -0.0455  0.2800
 4790W        W21637  14.585  12.729   5.210 -0.1144  0.0100  0.1030
 4791W        W21638  14.609  11.181  13.452  0.2204  0.0216  0.0660
 4792W        W21639   7.675  15.441   3.082 -0.3350 -0.2133  0.0766
 4793W        W21640  16.877   9.097   0.240  0.0621 -0.0043 -0.0047
 4794W        W21641   1.024   0.021  13.469 -0.1505 -0.1171  0.1456
 4795W        W21642  11.579   0.412   1.286  0.2308  0.1058  0.0078
 4796W        W21643  16.457   4.380  12.555 -0.1308 -0.0000 -0.0589
 4797W        W21644  13.539  15.897   1.992 -0.2123 -0.1534 -0.2524
 4798W        W21645   3.342   6.202  16.515 -0.0041  0.1767 -0.0914
 4799W        W21646   8.911   6.454  14.737 -0.0833  0.2320 -0.1205
 4800W        W21647   8.358  11.954   1.703  0.0025  0.1995 -0.0439
 4801W        W21648   3.733  11.284  12.020  0.1427  0.1500 -0.4072
 4802W        W21649   9.169   8.925   0.671  0.1191 -0.0457  0.1007
 4803W        W21650  15.345   7.827   0.545  0.1302 -0.0179  0.1572
 4804W        W21651  15.849  11.380  16.206 -0.0143 -0.3677 -0.3223
 4805W        W21652   7.418   6.410  15.119 -0.0200 -0.0492 -0.0766
 4806W        W21653  12.094  13.876  16.520 -0.1407  0.0990 -0.1185
 4807W        W21654   5.605  16.451   4.087 -0.1235 -0.0008  0.1600
 4808W        W21655   3.459  17.541   1.972 -0.1556 -0.1872  0.1352
 4809W        W21656   3.777  14.825  15.088  0.0252  0.0894  0.0647
 4810W        W21657   8.171   1.193   1.040 -0.0121  0.2085  0.1044
 4811W        W21658   3.854  11.533  15.312 -0.3348 -0.3208 -0.1654
 4812W        W21659   8.741   4.147   2.552  0.0811  0.2369 -0.0144
 4813W        W21660   7.294   4.483   5.666  0.1929  0.1623  0.1699
 4814W        W21661   8.808  13.290   2.371 -0.0041 -0.0455  0.0579
 4815W        W21662   1.346  15.450   1.668  0.0521  0.2730  0.0802
 4816W        W21663   9.136   5.337   6.442  0.4240 -0.0324  0.1574
 4817W        W21664  13.136  11.893   0.892  0.1298  0.0887 -0.2747
 4818W        W21665  14.282  16.072   3.186  0.0131 -0.0443 -0.2218
 4819W        W21666  16.031   5.272  15.665  0.2911 -0.4943 -0.2006
 4820W        W21667  16.983   9.738   2.985 -0.1016 -0.0789 -0.0206
 4821W        W21668   7.917  13.463   2.679  0.0404  0.1098 -0.1664
 4822W        W21669  11.263  10.538   1.923 -0.0070  0.1443  0.0314
 4823W        W21670   2.876   9.607   2.134  0.1871 -0.1485 -0.0877
 4824W        W21671   4.020   0.786  14.498 -0.0023  0.0008 -0.3635
 4825W        W21672   1.729   0.715   1.930 -0.0305  0.2357 -0.0154
 4826W        W21673   9.869  11.098   4.728 -0.0917 -0.0249  0.0279
 4827W        W21674   0.409   0.705   2.775 -0.3314  0.3960 -0.0709
 4828W        W21675  11.699   4.908   4.316 -0.0314  0.0855  0.0297
 4829W        W21676  10.271  17.683  13.372 -0.1662 -0.0069 -0.0079
 4830W        W21677  15.830  16.890   3.114 -0.0921  0.0758  0.1794
 4831W        W21678  16.082   8.230   4.369 -0.2199 -0.0883  0.0036
 4832W        W21679   0.801   9.853  11.860 -0.0900 -0.3796  0.0665
 4833W        W21680   6.762   0.183  15.479 -0.0746 -0.4190  0.5164
 4834W        W21681   7.084  15.149  13.488 -0.0704  0.0814  0.0517
 4835W        W21682   6.606   8.526   4.678 -0.1873 -0.0773 -0.0347
 4836W        W21683  13.118   3.523  16.225  0.2213 -0.0329 -0.0537
 4837W        W21684   9.638  15.444   5.788  0.2691  0.2939  0.1776
 4838W        W21685  16.748  12.198  11.763  0.0370 -0.1879 -0.1496
 4839W        W21686  13.236   7.584   5.433 -0.1457  0.1658  0.3593
 4840W        W21687  17.047  17.046  12.424 -0.2083  0.0470 -0.1283
 4841W        W21688   5.541   4.770  16.374 -0.2657  0.0041 -0.0062
 4842W        W21689   7.149   9.922  15.328 -0.1254  0.0714 -0.0922
 4843W        W21690   2.492   0.552   5.377 -0.0128 -0.0692  0.2161
 4844W        W21691  14.428   5.169   2.936 -0.2194 -0.0067  0.3277
 4845W        W21692   4.798  17.962  12.290  0.1562  0.1352 -0.1603
 4846W        W21693   8.943   9.861   4.846 -0.0265  0.2728  0.4220
 4847W        W21694   6.171   5.229  13.229 -0.0242  0.0475 -0.3245
 4848W        W21695   7.846   2.883   5.439  0.2818 -0.2691  0.5413
 4849W        W21696   8.936   6.558  15.280  0.2879  0.0001  0.3558
 4850W        W21697  12.446  16.583  16.277 -0.2299  0.1086  0.0053
 4851W        W21698   6.532   5.246  12.127 -0.1080  0.0933  0.2709
 4852W        W21699   9.937  10.224   2.005  0.0796 -0.2651 -0.0698
 4853W        W21700   0.942  14.874   4.619  0.0326 -0.1283  0.2115
 4854W        W21701   8.991  14.662   4.454  0.2334 -0.2299 -0.0012
 4855W        W21702  11.942   4.258   3.974  0.4190 -0.0912  0.1030
 4856W        W21703   5.603   1.082   0.747  0.3005 -0.0509 -0.2913
 4857W        W21704   5.986   2.182  14.323 -0.1140 -0.0914 -0.0403
 4858W        W21705  15.794   9.921  15.612  0.0856 -0.2260  0.0983
 4859W        W21706   3.425  15.809   6.029  0.2293 -0.2159 -0.0008
 4860W        W21707  13.351   7.121   3.473  0.4550 -0.2090 -0.0159
 4861W        W21708   3.577   3.686  14.698 -0.1213 -0.0085  0.0192
 4862W        W21709   4.353   9.419   2.232  0.1807  0.1464  0.0408
 4863W        W21710   9.955  13.135   4.417  0.2038 -0.0713 -0.0436
 4864W        W21711   7.992  16.217   2.156 -0.1955 -0.0294 -0.0032
 4865W        W21712   9.830   7.395  16.607  0.0079 -0.2249 -0.0487
 4866W        W21713  15.728  12.715   4.005 -0.3582 -0.3092 -0.0799
 4867W        W21714  13.916  15.481  11.810 -0.0804  0.0634 -0.0684
 4868W        W21715   3.220   4.649   5.116  0.2745  0.3298  0.1130
 4869W        W21716  13.509  17.285   0.319  0.0567  0.0998  0.0079
 4870W        W21717   0.102   2.950   1.082 -0.0669  0.0857  0.0980
 4871W        W21718   0.572   9.452  14.376  0.2637  0.2200  0.2798
 4872W        W21719   9.800   1.372  12.733  0.2908  0.3141 -0.1092
 4873W        W21720  16.221  12.836  13.912  0.2126 -0.1342 -0.1567
 4874W        W21721  13.996   5.714   5.299 -0.0461 -0.1135  0.2178
 4875W        W21722  15.089   3.797  13.422 -0.0188 -0.2329  0.0393
 4876W        W21723   6.666  16.189   0.057 -0.1927  0.1124 -0.1781
 4877W        W21724   6.379   5.725   2.359 -0.2774 -0.2058 -0.2225
 4878W        W21725   2.817   8.442   4.140 -0.1769  0.0668  0.1325
 4879W        W21726  12.711   1.955   0.956 -0.0620 -0.1017 -0.0175
 4880W        W21727   8.859   9.260  15.846 -0.2935 -0.4212 -0.3261
 4881W        W21728  16.457   7.420   3.671  0.1685  0.0633  0.0522
 4882W        W21729  12.809  16.546  13.714  0.1568 -0.1914 -0.3032
 4883W        W21730   0.672  11.539   6.251  0.1033 -0.0224 -0.1487
 4884W        W21731   9.367  14.229   4.815  0.2240 -0.2943 -0.0335
 4885W        W21732   3.153   2.580   2.665 -0.0413 -0.3099  0.1796
 4886W        W21733   4.851   4.136  15.691  0.1996 -0.0839 -0.1175
 4887W        W21734   7.247   1.552   1.147 -0.1939  0.0412  0.0288
 4888W        W21735  13.991   4.060   2.791 -0.0471 -0.2083  0.1401
 4889W        W21736  13.730   8.774   2.353  0.1988 -0.1189  0.1898
 4890W        W21737   8.610  12.759   2.893 -0.2286  0.2215 -0.2147
 4891W        W21738  13.607   6.679  10.786  0.1303 -0.0801 -0.3349
 4892W        W21739  16.886  11.286   2.490 -0.4578 -0.0375 -0.0775
 4893W        W21740  10.516   4.925  16.265 -0.0805  0.4188  0.1373
 4894W        W21741   7.558  11.374  13.075  0.2454 -0.1275 -0.2047
 4895W        W21742   9.762   6.975  16.420  0.0779 -0.1784 -0.1296
 4896W        W21743  17.415   7.087   4.709  0.1502  0.0260 -0.0507
 4897W        W21744   3.702   0.814  13.965  0.0586 -0.1014  0.0521
 4898W        W21745  11.824  14.669  13.747  0.0373 -0.0807  0.0617
 4899W        W21746   9.362   6.487   2.500 -0.1466 -0.2833 -0.0790
 4900W        W21747  10.433   5.739   2.046 -0.0605  0.0328  0.2456
 4901W        W21748   0.735  12.277   1.058  0.2643  0.0653 -0.1506
 4902W        W21749   5.857  11.907   4.105  0.0801 -0.0789 -0.3783
 4903W        W21750  17.167   6.766   2.542  0.0835  0.1411  0.1637
 4904W        W21751   7.139  13.616  11.738 -0.2422  0.0039 -0.0102
 4905W        W21752   6.733  11.480  13.380  0.0399  0.0808 -0.0643
 4906W        W21753  16.800  12.796  15.670 -0.0145  0.0424  0.5062
 4907W        W21754  16.916   9.068  14.533  0.0186  0.0614  0.4268
 4908W        W21755   5.101  17.421   2.355 -0.0255 -0.2238 -0.2342
 4909W        W21756   6.909  11.895   4.382 -0.1696 -0.2630 -0.1503
 4910W        W21757   8.344   4.399  13.180  0.0295 -0.2780 -0.0307
 4911W        W21758  14.347  16.194  11.341  0.0940  0.0621 -0.2209
 4912W        W21759   8.695  11.497   2.147 -0.0240  0.3476  0.1352
 4913W        W21760  15.330  14.789  13.411  0.1314  0.1471  0.1653
 4914W        W21761   7.902   9.027   5.101  0.2019  0.2333 -0.1833
 4915W        W21762  11.314   9.882   2.636  0.1529  0.2107 -0.1013
 4916W        W21763  13.067   7.036   1.210  0.2346 -0.1131 -0.2954
 4917W        W21764  10.774  16.816   3.557  0.2445  0.0873  0.0899
 4918W        W21765  13.336   0.277  15.803 -0.0535 -0.0199  0.0772
 4919W        W21766  13.962   8.931  12.579 -0.0074  0.1354 -0.2062
 4920W        W21767   3.574   1.791   1.207  0.1290  0.3327 -0.2397
 4921W        W21768  14.185   9.244   5.063  0.0270 -0.0330 -0.1246
 4922W        W21769   6.371   4.971   5.082  0.1648 -0.3455 -0.0221
 4923W        W21770   1.295  13.937   4.556  0.0356  0.3649 -0.0379
 4924W        W21771   0.045   9.378   2.664 -0.1199  0.1892  0.2320
 4925W        W21772   5.712  11.745  15.471  0.1822  0.2597 -0.1788
 4926W        W21773  12.783  15.839   0.070  0.2368 -0.1124  0.3392
 4927W        W21774  15.330  16.303  14.341  0.1261  0.0460  0.1312
 4928W        W21775  16.761   8.139  14.905 -0.2444  0.0082  0.2878
 4929W        W21776  16.387   4.699   3.594  0.2074  0.2060  0.1273
 4930W        W21777  11.296  17.412   2.428  0.0507 -0.1425  0.0220
 4931W        W21778  16.478   6.233   2.784 -0.2105  0.0072  0.2268
 4932W        W21779   4.606  16.720  14.780  0.0226 -0.0863  0.1659
 4933W        W21780  17.442  16.889  12.176  0.0399  0.4053 -0.1759
 4934W        W21781   1.505  11.790   2.712  0.0413 -0.1288  0.0304
 4935W        W21782  13.385   1.103  15.009  0.2296  0.2423  0.1662
 4936W        W21783   7.292  15.102   5.467  0.1690 -0.0189 -0.0521
 4937W        W21784  15.621   4.234   3.321  0.0313  0.0196  0.2225
 4938W        W21785   9.568   9.308  12.519 -0.1360 -0.2554  0.2015
 4939W        W21786   0.048  14.294  16.338 -0.1701  0.1342 -0.0245
 4940W        W21787  13.197   4.599   1.397 -0.1558  0.1102  0.0924
 4941W        W21788   2.500  11.364  14.817 -0.0035 -0.1804  0.1924
 4942W        W21789   0.950  14.927  12.594  0.0025 -0.2389  0.2449
 4943W        W21790  10.626   3.249   4.669  0.0077  0.0397 -0.0182
 4944W        W21791  14.169   4.949   4.235 -0.2343 -0.0364 -0.0966
 4945W        W21792   9.381  14.990  13.905 -0.1389  0.0723  0.1311
 4946W        W21793   2.633   7.625   6.311 -0.0108  0.2028  0.3597
 4947W        W21794  13.253  16.507  14.709  0.0492 -0.0599  0.1151
 4948W        W21795   9.192   1.768   1.602  0.1564  0.1325  0.0118
 4949W        W21796   6.751   6.335  14.776 -0.3383 -0.1460  0.0078
 4950W        W21797   4.003   6.095   1.938 -0.0362  0.4307  0.2220
 4951W        W21798   0.138   0.107  15.417 -0.1727  0.2225  0.0279
 4952W        W21799  15.674   0.554  12.859 -0.0153 -0.1526 -0.0397
 4953W        W21800  16.761   0.657   0.890 -0.1944  0.1747  0.5005
 4954W        W21801   2.418   2.278   2.719 -0.1268  0.1427 -0.0174
 4955W        W21802  16.540   2.255  15.096  0.4157 -0.1691  0.3205
 4956W        W21803   3.120   3.538  13.846  0.1768  0.4056 -0.0368
 4957W        W21804   4.695  17.194   0.125  0.0423  0.0197 -0.1034
 4958W        W21805   9.134   8.594   2.703  0.1121 -0.1418 -0.0117
 4959W        W21806   0.839   4.499  13.584 -0.0500  0.1709 -0.1034
 4960W        W21807  11.163   4.541   2.240 -0.1250 -0.1523  0.1810
 4961W        W21808  14.483   8.082  14.938 -0.0639 -0.1941 -0.1883
 4962W        W21809  17.049   8.372  15.687 -0.0191  0.0783  0.0084
 4963W        W21810   0.082  11.786   4.500  0.0385  0.2926 -0.3915
 4964W        W21811   1.231   3.118   5.814 -0.2003  0.1189  0.0879
 4965W        W21812   7.670   8.717  13.322  0.0116 -0.0348  0.2042
 4966W        W21813   7.388  13.678   5.754  0.0762 -0.2048 -0.1309
 4967W        W21814   3.275  16.802   3.390  0.0890 -0.2114  0.3264
 4968W        W21815  14.587  12.797   1.004 -0.0880  0.0974 -0.0277
 4969W        W21816  13.385   8.522   1.556 -0.2267 -0.1125 -0.1043
 4970W        W21817   7.239   4.613   2.752 -0.1972 -0.0784 -0.4192
 4971W        W21818   8.355   2.977   5.481  0.0243  0.1806  0.0328
 4972W        W21819   5.778  10.063  16.157  0.3320  0.4077 -0.1946
 4973W        W21820  14.352  11.089  12.137 -0.1562 -0.1726  0.2726
 4974W        W21821  13.492   9.656   0.461  0.2547 -0.3235 -0.1037
 4975W        W21822   4.586  11.072   5.540 -0.4485 -0.1034 -0.0318
 4976W        W21823   6.149   3.073   4.846 -0.0362  0.3637 -0.0719
 4977W        W21824  15.646  16.023  14.669 -0.1523 -0.2443  0.0297
 4978W        W21825   5.963  11.724   1.099  0.2666 -0.2251 -0.1517
 4979W        W21826  10.252  17.823   1.790  0.0771 -0.0275  0.0075
 4980W        W21827  12.495  17.403  16.624 -0.2175  0.0686  0.0692
 4981W        W21828  13.912   7.565  16.333  0.3327  0.0416  0.0744
 4982W        W21829   4.036   3.045  13.010 -0.2144 -0.0273  0.1280
 4983W        W21830  12.351  14.546   3.096  0.0111  0.1662 -0.3371
 4984W        W21831   5.010  11.344   4.608 -0.4281 -0.2425  0.0576
 4985W        W21832   9.102  13.905  13.902 -0.0650 -0.0080 -0.1612
 4986W        W21833   3.374   0.289  14.938  0.0264  0.0940 -0.3833
 4987W        W21834   1.417  11.809  14.119  0.0339  0.1723  0.1874
 4988W        W21835   0.345   4.134  13.462  0.1503 -0.0301  0.2113
 4989W        W21836   3.840   3.750  15.194  0.0537 -0.3693  0.0243
 4990W        W21837   7.312   2.884  12.395 -0.0055  0.1373  0.0569
 4991W        W21838  10.625   6.426   0.402 -0.1454 -0.0389  0.0773
 4992W        W21839   3.102   6.899   5.739  0.0408 -0.3387 -0.2434
 4993W        W21840   4.640   8.773   5.009 -0.0069  0.0946 -0.0625
 4994W        W21841   6.910  15.208  15.847 -0.2013 -0.0266 -0.2958
 4995W        W21842  12.585   7.230   2.516  0.0365  0.2352 -0.3558
 4996W        W21843  17.469  10.970  15.620  0.2678  0.0002  0.2598
 4997W        W21844   9.208   9.134  14.596  0.0890  0.2028 -0.1667
 4998W        W21845  13.225  11.673   3.527 -0.1627 -0.1808 -0.0570
 4999W        W21846   9.451   1.203  13.105  0.2042  0.3661  0.0531
 5000W        W21847   4.389  14.581   4.310 -0.1334 -0.2266 -0.0612
 5001W        W21848  17.984  13.759   4.672  0.3294 -0.5207  0.0055
 5002W        W21849   5.788   2.611  16.089 -0.1456  0.0202  0.2804
 5003W        W21850  17.980   6.500  13.115  0.0269 -0.1630  0.0189
 5004W        W21851   7.613   7.459  12.352  0.1203 -0.0529  0.0959
 5005W        W21852  14.957   2.752  16.403  0.0880  0.0648  0.1093
 5006W        W21853   1.780   6.423   4.794 -0.2289  0.0952  0.0199
 5007W        W21854   6.837  11.232   2.101  0.1428  0.0998  0.1983
 5008W        W21855   1.194  13.011  16.582 -0.2585  0.0028  0.1324
 5009W        W21856   9.891   0.563   1.627 -0.1439  0.1774 -0.0899
 5010W        W21857   4.079  12.344   2.711  0.1611  0.0108  0.1177
 5011W        W21858  17.904  17.372   1.660  0.0444  0.1836 -0.0173
 5012W        W21859   0.058   6.699  14.221 -0.1608 -0.0960 -0.0364
 5013W        W21860  15.033   2.143  14.240 -0.1224 -0.1871  0.1533
 5014W        W21861  11.276   6.063  15.692  0.4037  0.1358  0.3328
 5015W        W21862   9.736  18.058  15.809 -0.2774  0.1167 -0.2083
 5016W        W21863   0.963   1.388   1.721 -0.1128  0.0870  0.0572
 5017W        W21864   1.849  15.988  12.958 -0.1662 -0.0687  0.2017
 5018W        W21865   6.818  16.454  14.509 -0.0467  0.0663  0.0900
 5019W        W21866   5.012   7.105   2.671  0.0453  0.1081 -0.1148
 5020W        W21867  10.013   4.503   2.878  0.4426  0.0480  0.2859
 5021W        W21868  11.628   6.894  12.287 -0.1523 -0.2208  0.1427
 5022W        W21869  13.579   6.526   5.372 -0.0591  0.2178  0.0051
 5023W        W21870   1.581   5.494  12.835 -0.0233  0.1655 -0.1107
 5024W        W21871   7.771   8.208   3.683  0.1893  0.2783  0.1263
 5025W        W21872   3.873   5.180   0.333 -0.0145  0.2057  0.0023
 5026W        W21873  16.117   2.392   4.387  0.1204  0.1465 -0.2092
 5027W        W21874   5.196   9.791  14.641 -0.2074  0.1265  0.1154
 5028W        W21875   6.622  14.695   3.935  0.4207 -0.1607 -0.4513
 5029W        W21876  10.688   4.576  15.890  0.2983  0.1255 -0.2012
 5030W        W21877   8.952  10.778   4.935 -0.2069 -0.1556 -0.1504
 5031W        W21878  13.228   6.272   2.992  0.0548  0.1314 -0.0023
 5032W        W21879   8.473   8.393  13.620  0.2134  0.0084  0.0309
 5033W        W21880  17.294  15.260   5.729 -0.0479 -0.0753  0.2609
 5034W        W21881  16.298  14.283  15.483  0.5317 -0.1975  0.0648
 5035W        W21882   3.116  17.063  14.116  0.2730  0.2376 -0.1074
 5036W        W21883   1.529   3.038   3.397  0.1108  0.1412  0.0937
 5037W        W21884   0.545  13.958  12.983 -0.0186 -0.2795 -0.3854
 5038W        W21885   0.628  15.694   3.366 -0.0347 -0.1029 -0.0123
 5039W        W21886   4.414   8.315   4.837 -0.0499 -0.4943 -0.1203
 5040W        W21887   6.004   3.635   1.953  0.0023 -0.0166 -0.0446
 5041W        W21888   2.763   2.538   0.021  0.3843  0.1582 -0.0612
 5042W        W21889   6.079   2.189  16.117 -0.0886  0.2597 -0.0864
 5043W        W21890   3.971   2.106  11.543 -0.0239 -0.1163 -0.3700
 5044W        W21891   4.277  17.615   0.976  0.1918 -0.1283  0.2124
 5045W        W21892   3.144  11.056  12.619  0.0552  0.0177  0.0479
 5046W        W21893   4.730  13.757   4.839  0.1877  0.1888 -0.1192
 5047W        W21894   0.857   6.169  14.567 -0.0696  0.0394 -0.2115
 5048W        W21895  15.738   4.613   1.890 -0.2391 -0.0156 -0.2310
 5049W        W21896  10.942  10.441   4.729 -0.0759 -0.1793  0.0445
 5050W        W21897   0.709   2.650   0.939 -0.1114 -0.1259  0.0307
 5051W        W21898   7.944   2.779   4.205 -0.0471 -0.0575  0.1217
 5052W        W21899   3.600   7.816   4.812 -0.0811  0.2083  0.0066
 5053W        W21900   4.896  16.317  12.913 -0.0590  0.1311 -0.0511
 5054W        W21901  10.391   4.344   3.190 -0.0144 -0.0475 -0.1956
 5055W        W21902   8.906  11.678   4.497 -0.1782  0.4844 -0.0165
 5056W        W21903   0.102  13.780  16.190  0.1181  0.0616  0.0530
 5057W        W21904   4.803   4.944   4.944  0.1540  0.1495  0.0630
 5058W        W21905  10.948   3.334  16.387  0.0002  0.0021 -0.0959
 5059W        W21906  15.883   3.743  12.824 -0.1555  0.0540  0.0070
 5060W        W21907   2.160  17.164  13.383 -0.0957  0.2490 -0.1063
 5061W        W21908  17.192  17.995  16.431  0.1153 -0.1879  0.2853
 5062W        W21909  11.644   9.044   5.307 -0.1791  0.0605 -0.4515
 5063W        W21910   7.054  13.230   3.244  0.0055  0.3107  0.1766
 5064W        W21911  15.054   6.568   4.546  0.4499 -0.2480 -0.0224
 5065W        W21912  17.951  15.255   2.577 -0.1902 -0.0091 -0.3146
 5066W        W21913  12.878   0.107  11.747  0.0722 -0.2494 -0.0270
 5067W        W21914   6.723   1.935  12.462 -0.1590 -0.0042  0.0295
 5068W        W21915  14.566   1.155   4.568  0.0679  0.0141 -0.0188
 5069W        W21916  17.444   9.008   3.439  0.0120 -0.0768 -0.3501
 5070W        W21917  15.275  12.949  16.232 -0.2872  0.0378  0.0869
 5071W        W21918  11.817  11.046   3.525 -0.2056  0.1586 -0.3692
 5072W        W21919  17.774  16.461  13.359  0.2503 -0.1254  0.1462
 5073W        W21920   4.824  12.837  13.792  0.0840  0.1712 -0.1545
 5074W        W21921   4.596   4.627   2.304  0.0320  0.1067 -0.1912
 5075W        W21922   6.381   5.295   0.002  0.2273  0.2202  0.2476
 5076W        W21923   9.483   8.665   1.759  0.3986  0.0106 -0.0734
 5077W        W21924   1.377   6.631   2.574  0.4212  0.1065  0.1490
 5078W        W21925  14.657  14.212   5.300  0.0594  0.0567  0.0576
 5079W        W21926   9.812   5.579   1.414  0.1859 -0.0850  0.0838
 5080W        W21927   6.273  14.327   2.820  0.1357 -0.1301 -0.1126
 5081W        W21928   8.743   1.575   0.622  0.5561  0.1930 -0.2615
 5082W        W21929   4.171  12.442   3.212  0.0508 -0.1062  0.1780
 5083W        W21930  11.231  11.613   4.992  0.2595 -0.2027 -0.1319
 5084W        W21931  17.807  15.467   1.414 -0.1175  0.1083  0.3440
 5085W        W21932   6.472   0.757   1.103  0.1890 -0.1758 -0.0991
 5086W        W21933  17.062   6.786  16.624 -0.1554 -0.0381  0.3246
 5087W        W21934   0.625  12.326   5.735  0.1325  0.1525  0.1378
 5088W        W21935  11.331   8.409  16.366  0.0351 -0.0919 -0.0050
 5089W        W21936   4.015   9.364   4.394  0.2681  0.1872 -0.1203
 5090W        W21937  14.880   2.357   1.179  0.2877 -0.0303  0.1376
 5091W        W21938  12.023  17.408  11.905 -0.0564 -0.1912  0.2412
 5092W        W21939   3.830   9.044  12.467  0.1167 -0.0056 -0.0160
 5093W        W21940  15.588   2.268   1.738 -0.0790  0.2667 -0.2984
 5094W        W21941  10.139   3.652   0.831 -0.1111  0.5361 -0.1711
 5095W        W21942   6.478   3.801   5.337  0.0177  0.2414 -0.1643
 5096W        W21943   9.187  13.203   3.770 -0.1389 -0.2357 -0.0886
 5097W        W21944   0.169  15.154  12.563  0.1960 -0.0833  0.2975
 5098W        W21945  16.561   4.226  13.110 -0.0276  0.0054  0.2387
 5099W        W21946   6.140  14.495   3.965 -0.0236 -0.1900 -0.0287
 5100W        W21947   8.569   8.433   3.552 -0.1810 -0.1024 -0.0947
 5101W        W21948  17.893   0.939   2.163 -0.0824  0.2467  0.1675
 5102W        W21949  17.424  11.168   0.065 -0.1038  0.0662  0.0548
 5103W        W21950  11.900  10.991   2.477 -0.0907  0.1634 -0.0956
 5104W        W21951   1.189  11.539  16.657 -0.1687  0.2168  0.0236
 5105W        W21952  15.907  11.134  15.249 -0.0250  0.0809 -0.1886
 5106W        W21953   2.218  14.915   3.707 -0.1187 -0.0816  0.0915
 5107W        W21954  16.000  17.070   4.713 -0.0151  0.2346 -0.1707
 5108W        W21955  17.148   2.844  12.883 -0.1628 -0.2336  0.0363
 5109W        W21956   0.792   0.836   3.061 -0.0324  0.0093  0.0097
 5110W        W21957   4.159   7.618   3.443  0.1526  0.1146  0.1448
 5111W        W21958   6.667   5.887  13.778 -0.0193  0.0601  0.0231
 5112W        W21959  12.578  13.136  12.005 -0.2411  0.1077  0.1253
 5113W        W21960  15.748   9.181  13.716 -0.0519 -0.2280  0.0118
 5114W        W21961  13.627   9.976   5.128  0.1205 -0.0425  0.1644
 5115W        W21962  13.887  14.060  12.016 -0.2280 -0.1002 -0.0070
 5116W        W21963  14.758   4.745  14.485  0.0744  0.0482  0.1459
 5117W        W21964   5.937  10.902   2.102 -0.1448  0.3493 -0.1555
 5118W        W21965   6.107   2.420   3.670 -0.0586  0.2707 -0.0791
 5119W        W21966  16.531   1.728  13.130  0.0825 -0.0878 -0.0650
 5120W        W21967  12.473  12.564   2.026 -0.2723  0.3518  0.1948
 5121W        W21968  17.284   5.310   0.442  0.0519  0.0499  0.1828
 5122W        W21969  13.443   0.198   5.627  0.0619  0.1525  0.0162
 5123W        W21970   8.978   2.517   0.904 -0.1488 -0.1846  0.2149
 5124W        W21971  17.507   1.161   5.127  0.0184 -0.2056 -0.0781
 5125W        W21972   5.867   1.390   0.426 -0.1933  0.1315  0.1846
 5126W        W21973   2.027   2.199  16.374  0.1589 -0.0684  0.0165
 5127W        W21974  12.434  14.746   2.621 -0.0404 -0.0272  0.1017
 5128W        W21975  11.938   2.948  13.379  0.4430 -0.0972 -0.3279
 5129W        W21976  10.890   4.719  15.437 -0.3298  0.0136 -0.0559
 5130W        W21977   4.534  18.071   3.280 -0.2714  0.0151 -0.0144
 5131W        W21978  13.737   5.145   2.071  0.0583  0.1915  0.2164
 5132W        W21979   1.052   4.771   1.128  0.0275  0.1809 -0.0846
 5133W        W21980   8.198  10.989  12.679  0.0319  0.0209  0.1261
 5134W        W21981   4.349   7.570  15.148 -0.1892 -0.1432  0.1767
 5135W        W21982   3.938   5.105  16.386 -0.3129  0.1280  0.2139
 5136W        W21983   3.109  16.213  12.521 -0.0982  0.2552  0.1224
 5137W        W21984   4.184   8.700   2.547 -0.1350  0.2659 -0.0975
 5138W        W21985   7.938   7.662   1.826 -0.1179 -0.0908  0.2007
 5139W        W21986  13.302   4.948  12.547  0.1428  0.0141 -0.0778
 5140W        W21987   8.382   7.356   1.131  0.0559 -0.2423  0.1956
 5141W        W21988   7.031  10.338  15.767 -0.0995  0.0834 -0.1923
 5142W        W21989   1.708   7.523   2.651  0.0595 -0.1172 -0.1681
 5143W        W21990  17.374  11.357  12.946  0.3143 -0.1482  0.0405
 5144W        W21991  12.767   2.820  15.110 -0.3006 -0.1970  0.2214
 5145W        W21992  17.866  10.728   1.380  0.1797  0.2470  0.1954
 5146W        W21993   9.709   6.282   2.214  0.1223  0.4705  0.0031
 5147W        W21994   1.303   5.862  11.488  0.0272 -0.1453  0.0470
 5148W        W21995  16.466  17.339   4.808 -0.2476 -0.0583 -0.2340
 5149W        W21996   1.041   1.828   5.503  0.0752 -0.5523  0.0504
 5150W        W21997   1.469   0.560  11.096  0.2998 -0.0975  0.0574
 5151W        W21998  13.113  10.929   1.244  0.1915  0.2476  0.1493
 5152W        W21999  13.807  13.389   3.148 -0.0219  0.1156  0.1795
 5153W        W22000   2.124   8.251  14.503  0.1812  0.0057  0.4130
 5154W        W22001   5.381   4.585  15.260 -0.1306  0.0755 -0.1889
 5155W        W22002  13.322  14.982  15.274 -0.1343  0.1223 -0.0655
 5156W        W22003   6.186   9.571   1.118  0.0738 -0.0869  0.1786
 5157W        W22004   9.243  11.209   0.416  0.2391 -0.1629  0.0469
 5158W        W22005  15.712  11.072  11.703 -0.1439  0.0342 -0.2456
 5159W        W22006  11.443   5.502  11.840 -0.2019  0.2056  0.0299
 5160W        W22007   5.459   0.280   4.373  0.1440 -0.2040  0.1039
 5161W        W22008   5.550   6.554   3.577 -0.0079 -0.1132  0.3712
 5162W        W22009  11.567  11.355   4.595 -0.3000 -0.2971  0.2017
 5163W        W22010  12.390  17.437   2.660 -0.0868 -0.0923  0.0507
 5164W        W22011   7.294  12.593   2.305 -0.2360  0.3775  0.1729
 5165W        W22012   5.586   1.129   3.345  0.0952 -0.2595  0.1502
 5166W        W22013  16.384   6.747  15.165  0.4676 -0.0797 -0.3475
 5167W        W22014  12.102   8.753   0.906  0.0946 -0.0203  0.1850
 5168W        W22015   0.371   7.003   4.838  0.4268  0.4513  0.1182
 5169W        W22016  16.916   9.340   1.316 -0.1645  0.3594  0.1271
 5170W        W22017  12.153   0.203  11.376  0.3236 -0.1507  0.1694
 5171W        W22018   4.115   6.098  12.361  0.1700  0.1538 -0.0537
 5172W        W22019   8.269   7.801   5.703  0.0717 -0.0581 -0.2383
 5173W        W22020   5.097   3.278  12.872 -0.1924 -0.1247 -0.0745
 5174W        W22021  13.553   7.351   5.738  0.1370  0.1522 -0.1170
 5175W        W22022  11.005   1.002  14.984 -0.0135  0.1634 -0.0552
 5176W        W22023   7.346   0.208  14.857 -0.0906  0.0293  0.0910
 5177W        W22024  14.678   4.221   3.582 -0.1244 -0.3347  0.4053
 5178W        W22025  12.723  14.713   5.455  0.1619 -0.0652  0.1378
 5179W        W22026   4.710   5.238   0.913 -0.0252 -0.2528 -0.0394
 5180W        W22027   7.008  10.311   1.501  0.4203  0.2987 -0.4760
 5181W        W22028   0.388   8.206  15.518  0.0645  0.2135  0.0375
 5182W        W22029   5.637   7.804  14.771 -0.0435  0.0461 -0.1259
 5183W        W22030  12.843   7.103  13.473  0.2351 -0.1977 -0.0451
 5184W        W22031  10.269  12.445  13.011  0.0575 -0.1110 -0.0497
 5185W        W22032   6.902   9.733   3.797  0.0773 -0.0085  0.0329
 5186W        W22033   3.947   4.831   5.449  0.2111 -0.1191 -0.2073
 5187W        W22034   8.186   6.875  11.802  0.0790  0.0667  0.1746
 5188W        W22035   8.318  11.615  16.188  0.1071  0.2912  0.3429
 5189W        W22036   8.366  15.503  12.462 -0.0719  0.0915 -0.0987
 5190W        W22037   4.944  14.506  12.043 -0.2584  0.0844  0.0459
 5191W        W22038   3.906   5.585   6.055  0.2258 -0.0120 -0.1516
 5192W        W22039   1.279   5.613   2.353  0.1052  0.0471  0.1722
 5193W        W22040  13.223  17.817   4.785 -0.0788  0.1347 -0.0114
 5194W        W22041   6.098   2.241   2.325 -0.0912 -0.1862 -0.0748
 5195W        W22042  14.558   4.289  14.344 -0.0343  0.0480 -0.0020
 5196W        W22043   4.148  13.192  15.652 -0.0725  0.0954 -0.2732
 5197W        W22044  16.008  17.711  16.562 -0.1954 -0.4100 -0.0319
 5198W        W22045   0.311   9.950   3.352  0.0522 -0.0414 -0.1078
 5199W        W22046   7.113   4.813   1.187 -0.0457 -0.2429  0.1204
 5200W        W22047   7.539  13.174  12.395  0.1562 -0.1091  0.0107
 5201W        W22048   4.874  14.175   0.639  0.1261 -0.4775  0.1995
 5202W        W22049  12.346   0.905   4.861 -0.2244  0.1982 -0.2866
 5203W        W22050  13.698  13.962   1.357 -0.0337 -0.2180  0.0313
 5204W        W22051  10.424  17.191  11.412  0.4077  0.2689 -0.2121
 5205W        W22052  13.125   8.851   1.263 -0.1364 -0.0370 -0.0802
 5206W        W22053  12.134   2.554  14.358 -0.2248 -0.0686 -0.0508
 5207W        W22054  15.161   9.245  13.536  0.0973 -0.0894 -0.2913
 5208W        W22055   6.943   5.110   2.100 -0.0445 -0.4262 -0.2358
 5209W        W22056   1.138  12.470   2.317 -0.4224 -0.1252  0.1008
 5210W        W22057  17.251  12.340  13.882  0.1218  0.0545  0.1304
 5211W        W22058  17.943   1.637  13.359 -0.1580 -0.0759 -0.0801
 5212W        W22059   8.151  16.732  14.560 -0.1789  0.0552  0.0559
 5213W        W22060   6.772  17.579  13.083  0.3843  0.0626 -0.1775
 5214W        W22061  10.488  12.614  14.389 -0.3971  0.2602 -0.4200
 5215W        W22062   0.872   1.465   5.258  0.0499 -0.1887  0.2354
 5216W        W22063   9.639   9.717  12.863 -0.0717  0.5484 -0.1806
 5217W        W22064   9.093  14.859   3.524  0.1919 -0.1972  0.0280
 5218W        W22065   5.419   8.377   2.348  0.2126 -0.3120 -0.1409
 5219W        W22066  16.146   9.206   4.486 -0.0052 -0.2503 -0.1670
 5220W        W22067   5.203  17.484   1.827  0.1577  0.1537  0.1385
 5221W        W22068   1.747  11.235   4.923 -0.0735  0.0255 -0.1262
 5222W        W22069   1.855   1.494   4.831  0.3383  0.0532  0.1430
 5223W        W22070  13.142   9.651  14.483 -0.0941 -0.0718  0.2305
 5224W        W22071  10.198   8.774  12.875 -0.0897  0.3044 -0.0847
 5225W        W22072   6.454  15.080  15.045 -0.0717 -0.1886  0.0793
 5226W        W22073   9.727  11.218   2.298 -0.0101 -0.2733  0.0252
 5227W        W22074  10.981   6.126  16.101  0.0623 -0.3729 -0.0176
 5228W        W22075   2.094  16.573  12.659 -0.2797  0.0313  0.1204
 5229W        W22076   4.111   3.552  12.712  0.4562  0.2647  0.0446
 5230W        W22077  17.421   1.432   3.378  0.1029  0.0667  0.0204
 5231W        W22078  17.515   7.060   2.930  0.1987  0.1262 -0.0547
 5232W        W22079   8.981   8.300  11.241  0.2105 -0.2408 -0.0682
 5233W        W22080  14.599  15.410  11.221  0.0814 -0.1700 -0.1745
 5234W        W22081   8.929   0.162  13.973  0.2439 -0.0564 -0.0405
 5235W        W22082  15.533   7.384  13.560 -0.1663 -0.3252 -0.2364
 5236W        W22083   8.006   6.045  16.493  0.0658 -0.1411  0.0910
 5237W        W22084   7.578   0.847  12.875  0.0377 -0.1069  0.0125
 5238W        W22085  16.154   6.344   1.107 -0.2842 -0.1677 -0.0331
 5239W        W22086   9.353  11.396   4.629  0.0642 -0.0328  0.1922
 5240W        W22087   2.720  11.805   4.335  0.0465  0.1172  0.0861
 5241W        W22088   6.001  16.774   4.400  0.0845  0.0178 -0.0891
 5242W        W22089  10.054  15.693   4.702  0.1145 -0.3824 -0.0113
 5243W        W22090   7.927   8.697  15.815  0.1315 -0.1068 -0.0474
 5244W        W22091   7.767  16.555   4.729 -0.1892 -0.0978 -0.2411
 5245W        W22092   2.994   6.492  11.707  0.0058 -0.0594 -0.0937
 5246W        W22093  11.783   2.704  11.442 -0.2869 -0.1056  0.1667
 5247W        W22094  15.987   6.938   4.852 -0.1540 -0.1795  0.1318
 5248W        W22095   9.954   3.411  14.906  0.1904 -0.1404  0.1427
 5249W        W22096  14.741  17.918   0.075 -0.0110 -0.0322 -0.0303
 5250W        W22097  16.173   3.327  12.670  0.0985 -0.0157 -0.0302
 5251W        W22098   4.547   1.487   2.979  0.1839 -0.3743 -0.1880
 5252W        W22099  15.858  13.290  11.890  0.2450  0.0623  0.0301
 5253W        W22100   0.680   9.469  16.261 -0.1138 -0.0575  0.3050
 5254W        W22101  13.344  10.121   1.613  0.0260  0.0595  0.0969
 5255W        W22102  17.922   0.616  13.708 -0.2205 -0.0919  0.1175
 5256W        W22103   4.558  13.225   3.361 -0.0363  0.6014  0.1050
 5257W        W22104   2.737  10.158  14.439 -0.0077  0.0608  0.0391
 5258W        W22105  15.370  12.374  12.596 -0.0411  0.0523  0.2895
 5259W        W22106   4.409   2.944   2.026 -0.1047  0.3027  0.0095
 5260W        W22107  10.869  13.029  11.677  0.4001  0.0168  0.0818
 5261W        W22108  13.161   9.055  16.655  0.1536 -0.1343 -0.1441
 5262W        W22109   5.254   3.401   1.486 -0.1244  0.2218 -0.1229
 5263W        W22110  13.470   2.145  13.811 -0.1946  0.0280  0.1969
 5264W        W22111   4.236   4.787  12.842  0.1571  0.0762  0.0424
 5265W        W22112   2.255   8.982   4.200 -0.1037 -0.0136 -0.1149
 5266W        W22113  17.618   2.907   4.071  0.0249  0.0387  0.0329
 5267W        W22114   8.644   6.004   2.208 -0.1487 -0.0293 -0.2790
 5268W        W22115   4.134   2.629  15.128  0.0681 -0.0665 -0.0005
 5269W        W22116   6.768   2.868  12.428 -0.1638  0.0390 -0.1112
 5270W        W22117  11.502   6.426  14.821 -0.0395  0.1508  0.0203
 5271W        W22118   6.201  13.230  12.963  0.1901 -0.0755  0.2190
 5272W        W22119   1.980  10.678  12.363 -0.1241  0.1295 -0.0371
 5273W        W22120   8.158  13.288   0.389 -0.0393  0.0701  0.0571
 5274W        W22121   1.235   6.997  12.515 -0.1735 -0.2024  0.0650
 5275W        W22122   7.786  10.914  12.916 -0.1032  0.2290  0.2329
 5276W        W22123  17.066  14.757  13.016  0.2191  0.1519 -0.1124
 5277W        W22124   4.080  17.886  14.042 -0.0760 -0.0615  0.0743
 5278W        W22125   4.865  10.600   2.153 -0.0127 -0.2732 -0.1453
 5279W        W22126   5.344   6.555  13.246  0.0082  0.1212  0.0404
 5280W        W22127   3.002  11.167  15.011 -0.0019  0.0395  0.1355
 5281W        W22128  12.176   6.630   2.464  0.0299 -0.0979  0.0211
 5282W        W22129   6.918   4.653  14.371 -0.0955 -0.0499 -0.1893
 5283W        W22130   6.101   9.381   0.274  0.0171  0.5203  0.0134
 5284W        W22131   3.278  16.178  15.652  0.1631  0.3449 -0.3562
 5285W        W22132   1.445  15.803   4.665 -0.0082  0.4747 -0.0244
 5286W        W22133   0.478  11.693   3.556 -0.0634 -0.1030 -0.3751
 5287W        W22134   7.385   5.669  14.551 -0.0734 -0.0841 -0.3014
 5288W        W22135   5.286  11.596   1.694 -0.1529  0.2365  0.1616
 5289W        W22136  11.681  12.244  15.164  0.0533 -0.0770 -0.1493
 5290W        W22137  11.527   1.674  15.962  0.0854  0.1685 -0.0052
 5291W        W22138  14.635  10.186   2.573 -0.0200  0.0431  0.3261
 5292W        W22139  11.593   5.195  12.954 -0.1038 -0.0948 -0.1029
 5293W        W22140   5.685  16.136  15.115  0.0982 -0.0697  0.1795
 5294W        W22141  11.540  15.692  12.799 -0.1620  0.1188  0.1246
 5295W        W22142   3.015   2.680   3.932 -0.1359  0.2501 -0.2329
 5296W        W22143   0.045  17.005  12.934  0.0039  0.0107 -0.0465
 5297W        W22144  16.092  15.723   3.197 -0.0594 -0.2693 -0.0733
 5298W        W22145   0.330   6.083   0.071 -0.1080  0.0120 -0.1541
 5299W        W22146  18.061   0.667   0.469 -0.1608 -0.0858 -0.0226
 5300W        W22147  10.308   5.795   1.498 -0.0371  0.2453 -0.0248
 5301W        W22148  16.683   7.488   4.149  0.5442 -0.0839 -0.2618
 5302W        W22149  10.536  14.955  15.275  0.0676  0.1590  0.2408
 5303W        W22150   0.991  14.337   4.649 -0.2293 -0.0785 -0.4931
 5304W        W22151   3.847   6.707  13.391  0.3890 -0.0435 -0.0396
 5305W        W22152  14.289  15.961   1.239  0.2225 -0.0753  0.1260
 5306W        W22153  12.499   4.947  16.178  0.1841 -0.0964  0.0486
 5307W        W22154   6.627  13.969   3.045 -0.0058  0.0947  0.1388
 5308W        W22155   1.152  15.262  11.675  0.1215  0.1606  0.2181
 5309W        W22156   6.262   1.971  12.208 -0.1338 -0.1265  0.1016
 5310W        W22157   7.115  13.310   0.389  0.1937  0.1883  0.1406
 5311W        W22158   8.435   6.629   3.972 -0.1320 -0.1016 -0.1132
 5312W        W22159  10.796   8.926  12.036  0.1044  0.1449 -0.0265
 5313W        W22160   8.963  10.650  11.498 -0.0408  0.1281 -0.1339
 5314W        W22161   2.168  15.093  11.816  0.3414 -0.0880  0.1145
 5315W        W22162   4.966  17.793   3.177  0.0696  0.2250 -0.2699
 5316W        W22163  17.059  10.050  13.169  0.1612 -0.4176 -0.0790
 5317W        W22164   1.289   7.028  14.075  0.0626  0.0999  0.0957
 5318W        W22165  15.766   7.917  14.467 -0.1091  0.0589 -0.0596
 5319W        W22166   7.881   4.811   4.069  0.2176 -0.1982 -0.1114
 5320W        W22167   7.812   0.417  15.681  0.0279  0.1324  0.0909
 5321W        W22168  10.534   3.817   0.516 -0.0500  0.1437  0.0818
 5322W        W22169   3.939  17.033  16.620  0.0387 -0.1393 -0.2666
 5323W        W22170   8.129   2.168   4.837 -0.0610 -0.2285  0.0787
 5324W        W22171   3.380  13.548   3.795  0.2160  0.1058 -0.2048
 5325W        W22172  17.480   9.306   6.174  0.4364 -0.0572 -0.0725
 5326W        W22173  14.159  16.036  13.564  0.1737 -0.2069  0.0687
 5327W        W22174   7.866  17.183  11.810 -0.1679  0.1199 -0.1379
 5328W        W22175   0.626  13.494  12.675  0.3034  0.2743  0.2792
 5329W        W22176   7.483   7.449   4.475  0.4211  0.0854  0.5165
 5330W        W22177  17.878  13.913   1.340 -0.0425  0.0858 -0.0359
 5331W        W22178  14.751   9.239  12.057  0.0850  0.0290  0.1262
 5332W        W22179  11.938   7.943   1.459  0.0795  0.0096 -0.2474
 5333W        W22180  17.213  15.833   4.398  0.0080  0.2153 -0.2751
 5334W        W22181   7.017   2.019   1.933 -0.0509  0.0160 -0.1306
 5335W        W22182   8.230  14.323   1.241  0.4277 -0.0381 -0.0021
 5336W        W22183   1.419   7.310   4.945  0.0942 -0.1521 -0.0172
 5337W        W22184   0.327  10.690  12.527  0.1141 -0.1773 -0.3432
 5338W        W22185  11.810   4.759   2.890 -0.1384  0.0414  0.1863
 5339W        W22186   8.319  11.576  13.403  0.1131 -0.1061  0.3780
 5340W        W22187  12.069  18.035   3.359 -0.1323 -0.1431  0.3227
 5341W        W22188   2.012   7.380   2.200 -0.2327 -0.3150  0.2936
 5342W        W22189  17.994  16.087  15.862 -0.1813 -0.0174 -0.1474
 5343W        W22190   0.760   4.725   1.528  0.0863 -0.0061 -0.1298
 5344W        W22191  12.728   5.358   1.255 -0.0485 -0.2303 -0.1253
 5345W        W22192  11.511  17.588  15.047 -0.1373 -0.1777 -0.0818
 5346W        W22193  14.280  14.240   3.177  0.0109 -0.0935  0.0844
 5347W        W22194   2.462   4.195  12.942 -0.1368 -0.0325 -0.1372
 5348W        W22195  10.736   2.742  12.906  0.0143  0.0551  0.3714
 5349W        W22196   1.802   0.172   0.275 -0.0080 -0.1047 -0.0888
 5350W        W22197   1.089  10.373  15.721 -0.0557  0.0088 -0.2560
 5351W        W22198  15.677  12.637   0.290 -0.0144  0.0313 -0.0812
 5352W        W22199   2.973  16.071   2.777  0.0511 -0.0603  0.1674
 5353W        W22200   0.560  10.865  14.716 -0.2727 -0.1661  0.2134
 5354W        W22201  13.668   1.664  13.800  0.1900  0.1965  0.1957
 5355W        W22202  13.644   9.891  12.987 -0.2657 -0.0879 -0.3648
 5356W        W22203  17.333   1.763  13.258  0.0772  0.2856 -0.1175
 5357W        W22204   8.887   0.618   5.034  0.1576  0.1426  0.2266
 5358W        W22205   4.681   0.568  13.876  0.0366  0.0935 -0.1176
 5359W        W22206  10.136  12.451   1.898 -0.0891  0.1014 -0.1235
 5360W        W22207  17.242   2.353  14.025 -0.0709  0.1448  0.1582
 5361W        W22208  10.790  16.225  11.280  0.0934  0.0221  0.0627
 5362W        W22209   1.464   2.760  15.231  0.1448 -0.2724 -0.0566
 5363W        W22210  14.688   8.172  12.370 -0.0173  0.3921  0.1374
 5364W        W22211  14.854  13.237   1.964  0.3001  0.1198  0.4378
 5365W        W22212   6.256  12.356  15.593 -0.2448 -0.1224  0.0775
 5366W        W22213   6.601  10.185   0.567  0.3500 -0.1290  0.1832
 5367W        W22214   4.780  17.563   0.469  0.0780 -0.0391  0.0798
 5368W        W22215   4.492   2.570   0.065 -0.1703  0.2157  0.3131
 5369W        W22216   1.461   0.573  14.611  0.2713 -0.0369  0.1480
 5370W        W22217  15.184  13.493  14.644  0.0608 -0.2322 -0.0419
 5371W        W22218  12.784  17.455   4.555  0.2538  0.0084 -0.0668
 5372W        W22219   0.187  10.265  14.176 -0.2303  0.1183  0.1452
 5373W        W22220  16.182   9.270  16.244 -0.0250  0.1778  0.1147
 5374W        W22221   0.716   8.158   2.052 -0.0551  0.1226  0.0370
 5375W        W22222   4.788   5.985   2.120 -0.0834  0.1516  0.1497
 5376W        W22223  17.462   2.724   2.116  0.1042  0.2092 -0.1106
 5377W        W22224  12.558   0.121  14.336  0.2579  0.0838  0.2636
 5378W        W22225   6.570  13.585  14.515  0.0912  0.2637 -0.0750
 5379W        W22226  11.591   3.272  15.489 -0.0686  0.0233  0.0710
 5380W        W22227   2.135   7.308  14.450  0.2252 -0.0980 -0.1811
 5381W        W22228   2.701  16.433   2.990  0.0369  0.4770 -0.2810
 5382W        W22229  17.933  11.916  14.885 -0.0787 -0.1345 -0.2671
 5383W        W22230  13.116   8.103   5.501  0.2226  0.0290  0.2374
 5384W        W22231  13.239   7.144   2.470  0.1937  0.2821  0.0210
 5385W        W22232  10.386   2.245  12.273 -0.1395 -0.1172 -0.2486
 5386W        W22233  17.366   2.973   0.733 -0.0695 -0.1878  0.4445
 5387W        W22234   9.617   8.756  13.812  0.0003  0.1099  0.0041
 5388W        W22235   1.266   4.125  11.758  0.2083  0.0094 -0.1284
 5389W        W22236  11.415  12.673  12.155  0.1346 -0.2892 -0.0419
 5390W        W22237  11.827   5.043   3.816  0.2290  0.2677  0.0235
 5391W        W22238   6.540   4.360  11.886 -0.2083  0.0696  0.2123
 5392W        W22239   7.867   9.698   2.606  0.4699  0.0807  0.0062
 5393W        W22240  13.213  16.270   3.644 -0.3286  0.0928  0.1125
 5394W        W22241   9.219  11.589   5.378  0.1277  0.4274 -0.0500
 5395W        W22242   6.989   2.010   4.778 -0.1114 -0.0557  0.0218
 5396W        W22243  15.643   7.162   4.374  0.0012 -0.4181  0.1102
 5397W        W22244  14.755   9.053  15.751 -0.1321 -0.1861 -0.0176
 5398W        W22245   1.206   4.649   2.808 -0.0188 -0.0470  0.1804
 5399W        W22246  10.759   8.586   4.501 -0.0906 -0.0903 -0.0529
 5400W        W22247   3.287   7.609  12.968  0.0353 -0.0290 -0.0964
 5401W        W22248  10.308   2.979   3.791  0.0340  0.1106  0.0173
 5402W        W22249  11.318  11.772  13.587 -0.0199 -0.3305  0.0356
 5403W        W22250  11.694   9.354  12.394 -0.3136 -0.1352 -0.3689
 5404W        W22251   1.228  11.851  12.016 -0.1098 -0.2568 -0.2097
 5405W        W22252   3.500   9.312   5.375 -0.1272  0.1137 -0.0628
 5406W        W22253   4.210   7.513   1.556 -0.2825 -0.0986 -0.1612
 5407W        W22254   2.733   5.949  16.546 -0.1460 -0.1935 -0.0704
 5408W        W22255  16.095   1.438   5.474 -0.1966  0.1656 -0.1822
 5409W        W22256  14.189   5.527   1.211  0.0101 -0.3846 -0.0071
 5410W        W22257   6.658   3.292  12.733  0.0186  0.6101 -0.1000
 5411W        W22258   3.510  17.857  16.544  0.4229 -0.0075  0.0143
 5412W        W22259  13.746   5.226   2.572  0.0255 -0.1282 -0.4398
 5413W        W22260  12.548  11.634  11.565 -0.2411  0.1450  0.0930
 5414W        W22261   0.059  10.345   4.906 -0.1074  0.1909  0.2443
 5415W        W22262  12.904   4.640  13.477  0.1188  0.0668  0.0185
 5416W        W22263   9.622  14.132   0.994 -0.2061  0.0583 -0.3591
 5417W        W22264   6.183   3.487  16.116  0.0374 -0.0190 -0.0171
 5418W        W22265   9.280  11.689   4.202  0.1125  0.1588  0.1073
 5419W        W22266  10.338   0.720  14.764 -0.0684 -0.2261 -0.0299
 5420W        W22267  17.755   9.431   3.074  0.0580 -0.0614 -0.0155
 5421W        W22268   5.261   2.638  15.641 -0.1293 -0.0373  0.0412
 5422W        W22269  13.008  16.414   0.123  0.1861 -0.1410 -0.1922
 5423W        W22270  10.406   6.564  15.653  0.1577  0.1512 -0.0447
 5424W        W22271  12.928   7.000   2.834  0.3391 -0.3866 -0.0140
 5425W        W22272  17.875   7.311  13.005  0.0555 -0.0407 -0.0158
 5426W        W22273   9.086  13.912   1.647 -0.1774 -0.2041  0.1052
 5427W        W22274  16.732   9.117  12.079  0.1539  0.2121 -0.3664
 5428W        W22275   1.936   5.857   6.447  0.1677 -0.0868  0.0722
 5429W        W22276  10.897  18.036  12.166  0.1256  0.1278  0.0322
 5430W        W22277   7.442   7.914   1.357 -0.3458  0.2718 -0.0307
 5431W        W22278  14.105   3.075  16.666 -0.0998 -0.0959 -0.1528
 5432W        W22279  13.732   8.573  14.268  0.0636  0.2925  0.0184
 5433W        W22280   6.229   7.808   4.048 -0.0943  0.2485  0.0729
 5434W        W22281  12.711   8.873  13.126 -0.3533 -0.2268 -0.1094
 5435W        W22282  13.414   4.492  15.816  0.2030  0.2134  0.2038
 5436W        W22283  11.813   4.739  16.205 -0.4087 -0.2702  0.1672
 5437W        W22284   6.884  12.347   5.666  0.2213  0.0479  0.1130
 5438W        W22285  17.605   2.450  11.566 -0.3175 -0.0102  0.3131
 5439W        W22286   0.566  12.546   3.442 -0.0225  0.0184  0.2097
 5440W        W22287  15.114  15.972  13.114  0.0919  0.0030 -0.0772
 5441W        W22288   9.054   2.975   1.142  0.1483  0.2865 -0.0344
 5442W        W22289   3.784   3.998   4.398  0.0599 -0.0162 -0.0454
 5443W        W22290  17.659  13.800  12.579 -0.0676 -0.1569  0.0432
 5444W        W22291   2.958   5.729  12.789  0.0143 -0.0765  0.2157
 5445W        W22292   9.728   7.927   2.766  0.2475  0.2462  0.1120
 5446W        W22293  16.106   7.173   1.887  0.1068 -0.1805 -0.0683
 5447W        W22294  15.825   4.288  15.655 -0.0899  0.1385 -0.2335
 5448W        W22295  13.395   8.313   5.903  0.2695  0.2867 -0.1755
 5449W        W22296  11.026   9.988  11.520  0.1069  0.0116 -0.0900
 5450W        W22297   5.953   7.609  11.974 -0.1825  0.0835  0.0659
 5451W        W22298   1.797  14.061   4.434  0.1306 -0.3774  0.0222
 5452W        W22299   5.629  16.422   0.449  0.0501  0.0346  0.2052
 5453W        W22300   4.859   4.569  11.819  0.2395 -0.1579  0.1772
 5454W        W22301  17.900  16.862   2.627 -0.2091  0.0373  0.2343
 5455W        W22302   8.005  17.482   5.073 -0.1622  0.0305 -0.0142
 5456W        W22303   0.091  12.339   4.116  0.0906  0.0623 -0.0214
 5457W        W22304   3.149   8.578   1.520 -0.0239  0.0232  0.1384
 5458W        W22305   0.176  16.589   0.091 -0.0115 -0.1073  0.1840
 5459W        W22306   5.592   6.229   5.191  0.0054  0.1161 -0.1671
 5460W        W22307   5.420   9.874  16.552  0.0208  0.0706 -0.2088
 5461W        W22308   8.211   6.262   2.347 -0.2717  0.1558  0.2811
 5462W        W22309   0.886   5.788  13.821 -0.1126 -0.3579  0.0281
 5463W        W22310  10.988   8.492   0.108 -0.0027  0.0647 -0.0974
 5464W        W22311  12.899   0.650   0.642 -0.0919 -0.3416 -0.1921
 5465W        W22312   0.461  16.050   1.841  0.2870  0.1805 -0.2866
 5466W        W22313  11.350   7.587   2.957  0.0051 -0.1832 -0.1213
 5467W        W22314  15.779   1.165   3.544 -0.0675  0.2056 -0.1256
 5468W        W22315   5.104  10.485   6.339 -0.0629 -0.0719  0.1911
 5469W        W22316  10.746   2.482   2.934  0.1000  0.1007 -0.3550
 5470W        W22317   1.652  11.121   1.119 -0.0369  0.3049 -0.3430
 5471W        W22318   7.872   0.122  12.178 -0.3461  0.2777  0.0647
 5472W        W22319  15.580  16.216  13.157  0.3029  0.1161 -0.0186
 5473W        W22320   8.645  16.473   2.616  0.1772  0.2327 -0.2149
 5474W        W22321   5.418   1.890   2.075  0.0485  0.2395  0.0573
 5475W        W22322   6.755   1.458  12.800  0.3784  0.0779 -0.0722
 5476W        W22323   0.227  16.877   3.262  0.0270  0.2325  0.0974
 5477W        W22324  13.091  13.154   1.808  0.0020 -0.1129  0.2216
 5478W        W22325   3.620  12.499  13.811 -0.0078  0.4129  0.0700
 5479W        W22326   9.260  17.751   2.129  0.4162  0.1551  0.2411
 5480W        W22327   4.174  10.162  16.597 -0.1567  0.1440  0.0611
 5481W        W22328   6.276   1.742  12.681  0.0422 -0.2841  0.0036
 5482W        W22329  17.191   1.317  16.219  0.0361 -0.2828  0.0615
 5483W        W22330   3.245  10.667   0.816  0.3602 -0.3199  0.1074
 5484W        W22331   7.530  14.138  14.564 -0.2523  0.0245  0.1313
 5485W        W22332   7.967  12.332   0.518 -0.3146  0.0468  0.1302
 5486W        W22333  14.641   6.743  11.784  0.1407  0.1870  0.0058
 5487W        W22334  10.042   5.820   4.095 -0.0390  0.0969 -0.1974
 5488W        W22335  12.816   6.484   3.743  0.0705  0.3009  0.1040
 5489W        W22336  17.634   7.614   0.537 -0.0465 -0.2499  0.2088
 5490W        W22337  11.179   2.667  12.571  0.2677  0.1056 -0.0595
 5491W        W22338   4.441  18.068   1.158  0.2539 -0.0245 -0.2570
 5492W        W22339   6.144  13.721  12.764  0.0620 -0.1136  0.2843
 5493W        W22340   0.138  16.163  16.506 -0.1063 -0.0759  0.0230
 5494W        W22341  12.479   4.512   1.744  0.1834  0.1862  0.0490
 5495W        W22342  10.373   7.383  16.440 -0.0526  0.0417  0.0268
 5496W        W22343   3.663   9.456   2.802 -0.0022 -0.1374  0.0686
 5497W        W22344  18.051  10.348  11.405 -0.0911  0.1834  0.3047
 5498W        W22345   1.351  13.495   4.950 -0.0674 -0.3572 -0.2316
 5499W        W22346   1.198   9.361  16.495 -0.1988 -0.0893  0.1055
 5500W        W22347   1.269  12.435   1.835  0.0431  0.0139 -0.0438
 5501W        W22348   4.907   2.237   5.490 -0.0653  0.2821  0.2618
 5502W        W22349   0.289  17.055   4.339 -0.1087  0.0110 -0.1442
 5503W        W22350   4.833  13.589   5.295  0.2044  0.0118  0.2533
 5504W        W22351  14.084  14.539  15.728  0.0130  0.3811 -0.1700
 5505W        W22352  13.806  15.257  15.253 -0.1005 -0.2991  0.1181
 5506W        W22353   6.822  14.785  16.138 -0.0389  0.1777  0.2683
 5507W        W22354   8.954  11.585  12.595 -0.1968 -0.1140 -0.0971
 5508W        W22355   5.426   2.581   4.259  0.2053 -0.2999 -0.1827
 5509W        W22356   6.663  11.199   5.611  0.3326 -0.1894  0.2925
 5510W        W22357   6.125   8.422   4.868 -0.1362  0.0486  0.1378
 5511W        W22358   4.986  12.682   3.672 -0.0817  0.0796 -0.0990
 5512W        W22359  14.076  10.081   1.994 -0.1449  0.1015  0.0331
 5513W        W22360   2.775   0.126  15.434 -0.0242 -0.0561 -0.2605
 5514W        W22361   2.707   7.175   4.071 -0.1905  0.1685 -0.4639
 5515W        W22362   5.059   3.038  15.419  0.0982 -0.3700  0.1001
 5516W        W22363   2.084   9.545   1.371 -0.1741 -0.1630 -0.2019
 5517W        W22364   3.580  11.190   2.405 -0.3488  0.2340 -0.1202
 5518W        W22365   8.668   8.752   2.619  0.0353  0.2322 -0.0151
 5519W        W22366  16.437   8.807   0.564  0.1548  0.0764 -0.0035
 5520W        W22367   2.665   9.778   5.485 -0.0811 -0.2575  0.2570
 5521W        W22368   0.441  14.789   1.484 -0.0255  0.0888 -0.1919
 5522W        W22369   6.072  11.091   3.808  0.2522  0.3608  0.2227
 5523W        W22370   0.131   4.522   5.537  0.1035  0.1372  0.3855
 5524W        W22371  14.755   5.909   5.650 -0.0969  0.0166  0.0883
 5525W        W22372  13.891   6.780   4.557  0.3096  0.4780 -0.0275
 5526W        W22373  15.242   0.710   4.976 -0.0910 -0.0135 -0.2118
 5527W        W22374   4.240  14.699   2.560  0.1177 -0.1414 -0.0659
 5528W        W22375   2.484  16.852  13.731  0.1591  0.0678  0.1783
 5529W        W22376   3.030   7.405  14.248 -0.0474  0.0537  0.0737
 5530W        W22377   6.313  16.079  11.877  0.0956  0.1557  0.1220
 5531W        W22378   9.817   8.541  12.467 -0.0002 -0.3164  0.2635
 5532W        W22379   8.474  16.891   0.473 -0.0007 -0.0053 -0.0772
 5533W        W22380   6.463   3.464   4.656 -0.0915  0.0233 -0.1784
 5534W        W22381  16.495   9.675   3.973 -0.2781 -0.0194 -0.0076
 5535W        W22382  15.936   1.168   0.202  0.1205 -0.1628  0.0135
 5536W        W22383   8.393  13.893   1.044  0.0440 -0.2217  0.0946
 5537W        W22384  17.142   0.124  14.832 -0.2516  0.1288  0.1050
 5538W        W22385  12.025  11.519   2.529 -0.1385 -0.1385 -0.2014
 5539W        W22386   4.890  13.967  14.618 -0.0495  0.2317 -0.0002
 5540W        W22387   4.295  17.128  12.171  0.4119  0.0372  0.0313
 5541W        W22388  15.599  13.712   1.627 -0.2567  0.1107  0.0746
 5542W        W22389  13.302  17.062  12.516 -0.0476 -0.0276 -0.1461
 5543W        W22390   8.188   4.541   4.463  0.1204  0.1384 -0.0509
 5544W        W22391   0.577   3.357   1.868  0.0302  0.2921 -0.0991
 5545W        W22392   7.741  16.715   6.110 -0.0087 -0.0571 -0.2958
 5546W        W22393   3.775  13.579  15.649  0.1396 -0.0824 -0.2146
 5547W        W22394  13.405  16.706   5.498 -0.2488  0.0392 -0.2507
 5548W        W22395   7.373   4.758   2.307  0.0205 -0.2889  0.0046
 5549W        W22396   0.883   7.233   3.731 -0.1796 -0.0146 -0.1165
 5550W        W22397  15.113  12.821  11.667 -0.0232  0.0202 -0.0169
 5551W        W22398   0.000  12.824   4.064  0.3054  0.0812  0.2206
 5552W        W22399   3.530  10.579  13.823  0.1270 -0.0613 -0.0156
 5553W        W22400   8.903   3.487  13.153  0.1385  0.0593 -0.1790
 5554W        W22401  17.759   5.884   0.584 -0.4311 -0.0783 -0.1462
 5555W        W22402   3.118  15.645   5.432  0.3571 -0.3515  0.0590
 5556W        W22403   8.691   6.367  13.845 -0.0180  0.1190  0.2482
 5557W        W22404  13.678  11.924   0.798 -0.1370  0.1161  0.3391
 5558W        W22405   4.919   5.847   2.572 -0.2363 -0.0221  0.3032
 5559W        W22406   7.429   9.847   2.286  0.1105  0.1578  0.0310
 5560W        W22407  13.087  16.346  10.875  0.0227 -0.2023 -0.0612
 5561W        W22408  15.704  12.190   4.858  0.3001  0.2089  0.1097
 5562W        W22409   2.043  10.132  12.397 -0.0567  0.0381  0.3018
 5563W        W22410  11.561  11.720   0.410 -0.4299  0.0209  0.1624
 5564W        W22411  13.932   1.186  15.905 -0.1533  0.0527 -0.0079
 5565W        W22412  12.391  15.429   4.528  0.1940 -0.1732  0.0174
 5566W        W22413  17.562   0.125   5.455 -0.0143  0.0626 -0.0399
 5567W        W22414   9.525  10.081   3.815 -0.0915 -0.1005  0.2279
 5568W        W22415  12.078  15.424   5.456 -0.1747  0.0568  0.0396
 5569W        W22416   2.287  16.207   1.208 -0.0918 -0.0712  0.2933
 5570W        W22417  12.063   2.683  12.242 -0.4361 -0.2637  0.0964
 5571W        W22418  13.048   1.944  12.355 -0.0255 -0.0154  0.0111
 5572W        W22419   0.363   4.358   1.491 -0.2493 -0.2321 -0.0825
 5573W        W22420  14.675   0.626   3.402  0.1237 -0.0270 -0.0206
 5574W        W22421  10.750   6.808   4.364 -0.1203  0.2829 -0.0328
 5575W        W22422  14.089  11.552  15.163  0.0877 -0.0262 -0.2113
 5576W        W22423  17.651  13.903   2.760  0.0141 -0.1169  0.0849
 5577W        W22424  17.962   2.038  12.160  0.0282 -0.3800  0.1406
 5578W        W22425  11.634   0.375  14.192  0.0799 -0.1620 -0.0557
 5579W        W22426  16.504  16.062  14.732  0.2901 -0.0029  0.3238
 5580W        W22427   1.242   5.780   0.668  0.1645 -0.1080  0.0112
 5581W        W22428   5.464   7.852  13.199 -0.1131  0.1821  0.3615
 5582W        W22429   5.286   0.354   1.493 -0.1802 -0.0776  0.0770
 5583W        W22430   6.566   0.142  12.319  0.2356  0.0552 -0.1868
 5584W        W22431   9.709  10.605   1.129 -0.2157 -0.0070  0.1709
 5585W        W22432  13.558  14.820  14.448  0.0397 -0.0407  0.2174
 5586W        W22433   5.236   0.325  13.711  0.1751  0.2714 -0.1880
 5587W        W22434  10.868  13.090  15.562  0.3301  0.1395  0.0324
 5588W        W22435   4.582  10.348  15.309 -0.1094  0.0929 -0.1151
 5589W        W22436  15.288  12.529  13.924  0.2000  0.1925  0.5346
 5590W        W22437  10.371  17.255   2.505 -0.2259  0.1112 -0.0605
 5591W        W22438   2.020  11.010   5.341 -0.0164 -0.1086 -0.0068
 5592W        W22439  13.694   5.360   1.495 -0.1428 -0.0139 -0.2136
 5593W        W22440  14.628   1.667   0.264 -0.1577 -0.0328  0.0942
 5594W        W22441  11.779  17.575   1.485  0.1500 -0.3347 -0.2437
 5595W        W22442   5.574  15.406  14.182 -0.1000  0.0239 -0.1976
 5596W        W22443   5.250   7.753  12.720 -0.1538 -0.2024  0.0471
 5597W        W22444   7.340   0.611   4.758  0.1108  0.0622  0.1812
 5598W        W22445   9.875   9.874  15.264  0.2009 -0.1605  0.0869
 5599W        W22446   6.736  12.408  13.160 -0.2169 -0.2052 -0.0487
 5600W        W22447  14.474   5.212  15.501  0.1868 -0.0646  0.0969
 5601W        W22448   9.747   4.287   0.545 -0.3391  0.1711 -0.1129
 5602W        W22449  17.945  17.353   3.640  0.0372  0.0471 -0.1383
 5603W        W22450   9.396  12.690   2.110 -0.2608  0.1770  0.0913
 5604W        W22451  12.173  17.339   0.883  0.2016  0.0659  0.2259
 5605W        W22452   0.599  17.689  13.299 -0.1972 -0.1055 -0.1178
 5606W        W22453   7.824  15.770   2.283 -0.4189  0.1214  0.2862
 5607W        W22454  11.754   1.167  16.551  0.0259  0.2525 -0.1546
 5608W        W22455   8.773   3.585  11.783 -0.2899 -0.3932  0.1638
 5609W        W22456  17.668  17.775  12.410  0.3688  0.1784 -0.1152
 5610W        W22457  13.829  17.524   3.416  0.1714  0.1560 -0.1090
 5611W        W22458  12.432   1.236  11.848 -0.1583 -0.0204 -0.0254
 5612W        W22459  11.105  17.080   3.896  0.1094  0.2717 -0.3185
 5613W        W22460   0.525  16.618   4.475  0.1279  0.1034  0.2910
 5614W        W22461  14.967   5.695   2.660  0.1508 -0.0389 -0.1157
 5615W        W22462   8.975  10.438   2.259  0.2370  0.1448  0.0907
 5616W        W22463  17.681  16.951   1.408 -0.0543  0.1267 -0.0559
 5617W        W22464   9.550   0.040  11.778  0.1774  0.0053 -0.2631
 5618W        W22465  13.892  10.779   2.038  0.0541 -0.0845 -0.0348
 5619W        W22466   8.401  13.204   2.662 -0.0282 -0.1199  0.1841
 5620W        W22467  12.402  13.427   0.739 -0.1114  0.1851  0.0691
 5621W        W22468  17.772   3.150   3.426  0.0755  0.0824  0.1625
 5622W        W22469  12.645  16.506   1.052  0.2835  0.2781  0.0739
 5623W        W22470  13.177  15.967  13.460 -0.0389  0.2049  0.0196
 5624W        W22471  14.077   4.334  15.171  0.0433  0.1377 -0.1118
 5625W        W22472  16.636  11.327   4.447  0.1064  0.1963  0.0208
 5626W        W22473   1.636  14.847   5.228 -0.1504  0.0791  0.3930
 5627W        W22474   0.231   6.401   3.192  0.2358  0.2065 -0.0654
 5628W        W22475   7.147   5.176  14.625 -0.4080 -0.1188 -0.0340
 5629W        W22476  16.571  13.051   0.199  0.0676  0.2789  0.3433
 5630W        W22477  10.301  16.239  16.263  0.3629 -0.2424  0.3726
 5631W        W22478  17.412  14.209   0.012 -0.2712  0.0816 -0.2081
 5632W        W22479  17.146  15.611   0.152 -0.4594  0.0196  0.0374
 5633W        W22480  14.373   4.601  16.554 -0.2204  0.2334 -0.1487
 5634W        W22481  12.959   0.652  15.093  0.1081 -0.0317  0.0830
 5635W        W22482   8.706   3.498  12.707  0.0595 -0.3876 -0.2862
 5636W        W22483  16.240   1.160  14.557 -0.0061 -0.3012 -0.0288
 5637W        W22484  17.222  17.180   1.457 -0.2606  0.5011  0.1824
 5638W        W22485  11.326   1.338   2.531  0.0146  0.0867 -0.0255
 5639W        W22486  12.778  16.120  12.960 -0.1212  0.0273  0.0851
 5640W        W22487  16.450   1.156   0.216 -0.4084 -0.2175 -0.1815
 5641W        W22488  15.919   7.318   3.693 -0.0952 -0.0465 -0.0172
 5642W        W22489   1.610   7.691   4.070 -0.2889 -0.0684  0.2213
 5643W        W22490  11.818  10.132   2.559 -0.0573  0.3432 -0.0581
 5644W        W22491  17.915  17.642  15.262 -0.1007 -0.1766 -0.0080
 5645W        W22492  12.166   2.576   2.671 -0.1454  0.0111 -0.0497
 5646W        W22493   1.948  17.244  13.852 -0.2240 -0.0464 -0.1202
 5647W        W22494  16.187  13.944   5.106  0.1288 -0.2248  0.0971
 5648W        W22495   3.468   0.520   1.848 -0.0408 -0.1200  0.0636
 5649W        W22496  17.725   6.837  13.415  0.0146 -0.1130  0.1469
 5650W        W22497   1.531  17.961  13.069 -0.1474 -0.2275  0.0246
 5651W        W22498   8.747   5.741  16.392  0.0079  0.0292  0.0231
 5652W        W22499   8.780  11.143  12.076 -0.1317 -0.1658  0.3113
 5653W        W22500   8.571   1.516   2.569  0.0780 -0.0968  0.0655
 5654W        W22501   4.145  17.169  13.461  0.0562  0.0572 -0.4535
 5655W        W22502   0.383  12.493   4.940 -0.0418 -0.0426  0.0522
 5656W        W22503  16.439  17.020  14.668  0.0766  0.1641  0.1391
 5657W        W22504  13.542   2.472   3.346  0.1884  0.0089  0.0771
 5658W        W22505  12.917  13.046   5.825  0.0581 -0.0794 -0.0407
 5659W        W22506   0.791   9.197   1.998  0.2230 -0.1600  0.0189
 5660W        W22507   7.224   0.450   5.497  0.2618 -0.1068 -0.3646
 5661W        W22508   6.453   3.922  15.923  0.2315  0.0143  0.0592
 5662W        W22509  14.693   4.347   1.667 -0.1773  0.2500  0.0326
 5663W        W22510  12.565   3.609  16.086  0.0260 -0.0160  0.1085
 5664W        W22511   0.452  14.443  13.116 -0.1856  0.1280  0.0368
 5665W        W22512   2.135   4.882   1.294 -0.0870  0.1519  0.0048
 5666W        W22513   0.874   9.480  12.273  0.0344  0.5384  0.1038
 5667W        W22514   7.276   3.624  14.044  0.1684 -0.0559 -0.1673
 5668W        W22515   4.964  17.078  14.476 -0.1637 -0.0071  0.1376
 5669W        W22516   8.664   3.130  10.821  0.0312 -0.2006 -0.1965
 5670W        W22517   8.115   0.387   1.252  0.1752 -0.1430  0.0761
 5671W        W22518   1.050   4.533   4.559 -0.2309 -0.1812 -0.1699
 5672W        W22519   0.418   1.513   3.618  0.4329  0.1580  0.1865
 5673W        W22520  14.378   5.454   3.361 -0.1318 -0.1147 -0.3591
 5674W        W22521   4.323   9.085   0.711  0.0181 -0.0836  0.3678
 5675W        W22522   9.426   0.666  13.372 -0.1745 -0.1533  0.0995
 5676W        W22523  14.311   6.793   1.687 -0.1012  0.2490  0.0250
 5677W        W22524  12.320   1.040   2.373 -0.3103 -0.0396  0.0114
 5678W        W22525  12.036  12.994   0.051 -0.0634  0.1667  0.0543
 5679W        W22526   3.597  11.734   3.150 -0.2243 -0.0017 -0.1105
 5680W        W22527   7.772  10.114  16.616  0.0979  0.2023 -0.0276
 5681W        W22528  15.041   0.352  15.719  0.2134 -0.1228 -0.0190
 5682W        W22529   1.443  16.240   0.110 -0.0392  0.3318 -0.3251
 5683W        W22530   9.157  12.853  14.165 -0.1046  0.1931  0.0579
 5684W        W22531   0.057   5.879  15.256  0.1945  0.1639 -0.0207
 5685W        W22532  16.282   1.176   3.516  0.2334 -0.1684  0.2781
 5686W        W22533   9.223  13.267   1.098 -0.3425 -0.0999 -0.2343
 5687W        W22534   5.810   4.188   5.757  0.0404 -0.0837  0.1241
 5688W        W22535  17.222  11.310   6.676  0.1980  0.2321  0.0142
 5689W        W22536   8.639   1.372  10.490  0.0619 -0.0442  0.0708
 5690W        W22537  14.470   6.336  14.293 -0.0926  0.2063 -0.2823
 5691W        W22538   6.275  15.819   3.810 -0.0156 -0.2445 -0.0538
 5692W        W22539  13.087   5.799   2.654 -0.0207  0.0478 -0.3005
 5693W        W22540   7.094   1.212  12.218 -0.1923 -0.1456 -0.0004
 5694W        W22541  13.348  16.430  15.199 -0.0395 -0.1864 -0.1883
 5695W        W22542   6.862  11.807   0.951  0.0448  0.0428 -0.0219
 5696W        W22543  16.190  13.872   4.328  0.3342 -0.0503 -0.2704
 5697W        W22544   6.083   3.573  14.500 -0.0129 -0.1519  0.0582
 5698W        W22545  18.021   0.241   1.271 -0.0031 -0.3320 -0.1969
 5699W        W22546   1.059  12.503   3.261  0.1603 -0.1289  0.4515
 5700W        W22547   8.514  15.977  11.473  0.1474 -0.0219  0.1502
 5701W        W22548  10.016   7.303  16.140 -0.0563 -0.2754 -0.2392
 5702W        W22549  12.446   0.333  13.137 -0.1518 -0.0134  0.2114
 5703W        W22550  15.110   7.221  16.271  0.1963  0.0915 -0.1545
 5704W        W22551   6.705  12.648  15.555 -0.0128 -0.0591  0.1847
 5705W        W22552   1.672   8.478   0.829  0.0151  0.1334  0.2775
 5706W        W22553  14.641   6.522   2.375  0.2669 -0.0365 -0.3254
 5707W        W22554  16.667   2.481   0.619  0.2809  0.3069 -0.0355
 5708W        W22555  16.964  17.495  14.299  0.2805 -0.1932  0.1166
 5709W        W22556  17.592  16.183  15.008 -0.1189 -0.3738  0.1200
 5710W        W22557   8.206  12.831   3.622 -0.0522 -0.0850  0.2200
 5711W        W22558   1.115   2.783  13.642  0.1845  0.4543 -0.0470
 5712W        W22559  17.869   4.473   6.276  0.2050 -0.0081 -0.1149
 5713W        W22560   4.954   4.548   5.494 -0.0986 -0.2394  0.1208
 5714W        W22561   0.265  12.184  16.037 -0.0597  0.0705  0.3036
 5715W        W22562  16.041   0.725   3.406 -0.2675  0.1480  0.1307
 5716W        W22563   5.748   0.318   3.328 -0.0653 -0.1456  0.1841
 5717W        W22564   2.592   8.453   1.712  0.0406 -0.2588 -0.1593
 5718W        W22565  15.552   6.454  13.945  0.2233 -0.1271  0.0388
 5719W        W22566   0.307   9.807  15.459 -0.1404 -0.0091  0.2257
 5720W        W22567  14.746   9.890  13.699  0.3611  0.2875  0.0548
 5721W        W22568   1.300  17.139  15.414  0.1346  0.0835 -0.0254
 5722W        W22569  12.546  14.188   3.353 -0.0351  0.3335  0.0765
 5723W        W22570  15.843   0.038  13.966 -0.0746  0.0539 -0.0054
 5724W        W22571  14.962   2.259  15.027 -0.1519 -0.1491  0.0315
 5725W        W22572  12.295   4.693   0.322 -0.0048 -0.3309 -0.2624
 5726W        W22573   2.122   8.613  15.993 -0.0110 -0.2989 -0.2254
 5727W        W22574  11.915   9.248   2.456  0.0829  0.2050  0.1779
 5728W        W22575   4.728   3.363   2.997  0.1431 -0.1634  0.1880
 5729W        W22576   5.801  16.523  14.301 -0.0413 -0.1753 -0.0965
 5730W        W22577  17.828  12.444  14.795 -0.0130  0.2628 -0.1781
 5731W        W22578  12.053   2.443  16.034  0.0021  0.0481 -0.0110
 5732W        W22579   5.671  17.079  14.784 -0.3205 -0.1029 -0.2266
 5733W        W22580   6.455   0.694  14.273  0.1642 -0.3636  0.3219
 5734W        W22581  11.059  15.771   1.086  0.1637 -0.3087 -0.2932
 5735W        W22582  14.708  18.030  11.509 -0.1744 -0.0502 -0.0211
 5736W        W22583  11.203   0.533   4.210  0.0698  0.0251 -0.1542
 5737W        W22584   2.458   8.478  14.142 -0.0827  0.2647  0.2399
 5738W        W22585   9.245  15.127  13.315  0.2228 -0.1091  0.2274
 5739W        W22586  16.261  10.201  15.006 -0.0032 -0.1173 -0.1606
 5740W        W22587  13.908  16.824   5.241  0.2934  0.2212  0.0507
 5741W        W22588  11.887  11.031  11.723  0.1029 -0.0698 -0.1730
 5742W        W22589  14.199  10.738  14.661  0.1144 -0.1636  0.3348
 5743W        W22590  11.881  17.573   2.690 -0.1012 -0.1036  0.2180
 5744W        W22591   3.954  11.118  13.890 -0.0681  0.1618 -0.2413
 5745W        W22592  11.338  10.100   1.686 -0.1342 -0.2826 -0.1272
 5746W        W22593  11.278   0.203   3.846  0.0089  0.0498  0.0449
 5747W        W22594  10.085  16.484   1.264 -0.0581  0.0504 -0.1894
 5748W        W22595  13.909  15.806   4.494  0.4629  0.2069 -0.0089
 5749W        W22596   7.377  15.730   3.937 -0.3368  0.2440  0.0123
 5750W        W22597  16.269   1.175   4.906 -0.3289 -0.0844 -0.0634
 5751W        W22598  10.273   1.148   2.837 -0.1097 -0.3679 -0.0608
 5752W        W22599   6.837   6.120   5.449 -0.1337  0.1644  0.0484
 5753W        W22600   7.997  12.367   3.733  0.0085  0.1663 -0.2436
 5754W        W22601   9.099   5.627   0.925 -0.0953 -0.0675  0.1415
 5755W        W22602   8.563   8.785   0.368  0.3193  0.2316  0.2496
 5756W        W22603   2.093  11.102   0.075  0.2602  0.0226 -0.1025
 5757W        W22604   8.452  13.669   4.815 -0.1806  0.0832  0.0464
 5758W        W22605  15.791  14.434   1.849 -0.2521 -0.0040 -0.1237
 5759W        W22606   3.503   8.524   4.952  0.0042 -0.1038  0.1957
 5760W        W22607  10.255   6.104  14.456  0.0344 -0.2516  0.2153
 5761W        W22608   2.097   1.836  15.179  0.0005 -0.0100  0.3549
 5762W        W22609   0.317   7.303   1.599 -0.1091  0.3144 -0.1490
 5763W        W22610  12.418  12.088   0.402  0.0679 -0.0896  0.1079
 5764W        W22611  15.536   4.153   1.372 -0.0646 -0.1147 -0.0513
 5765W        W22612   1.976   7.191  11.346  0.0574 -0.1813  0.3644
 5766W        W22613   0.465  11.479   0.707  0.0687  0.1933 -0.0800
 5767W        W22614   7.413  15.896   1.546  0.0103 -0.1340  0.0566
 5768W        W22615   0.965  15.629   0.432 -0.0426  0.0088  0.0815
 5769W        W22616  12.526   4.190   2.533 -0.3843  0.2325 -0.0676
 5770W        W22617   5.935   5.861   0.672 -0.2947 -0.1210  0.1627
 5771W        W22618  11.724   0.703   2.091 -0.0266 -0.0032 -0.0581
 5772W        W22619   3.000   7.931  12.339 -0.1671 -0.1230 -0.0877
 5773W        W22620   4.063  14.157   4.303  0.1795  0.1791  0.3060
 5774W        W22621   7.661   8.113  14.757 -0.2347  0.1718  0.0482
 5775W        W22622  10.963   7.533   6.180 -0.1029  0.1307 -0.2264
 5776W        W22623  17.570  13.886   3.341 -0.0429  0.4556  0.1001
 5777W        W22624   0.922  11.782  13.926  0.1033 -0.2641 -0.2139
 5778W        W22625  16.589   6.595  14.628  0.0466 -0.3027  0.0365
 5779W        W22626   0.788   7.895   2.499  0.2319  0.1880  0.2353
 5780W        W22627  15.400   0.832  14.042 -0.2171 -0.1794  0.1766
 5781W        W22628   5.595  11.385   3.683 -0.0148 -0.2278 -0.1491
 5782W        W22629   4.620   4.489  14.808 -0.0839  0.0053  0.1130
 5783W        W22630   3.023  14.345  12.790  0.0357 -0.1041  0.1096
 5784W        W22631   4.694  10.304   0.235 -0.1676 -0.2690 -0.2352
 5785W        W22632  12.952  15.156   0.660  0.1862 -0.1128 -0.1041
 5786W        W22633  12.693   6.292   4.616 -0.1498 -0.0037  0.5335
 5787W        W22634  11.326   7.708   0.829  0.0411  0.1101  0.1514
 5788W        W22635   5.748   2.301  15.671 -0.0123  0.2008 -0.0277
 5789W        W22636   1.862   7.590  11.728  0.1181  0.1147  0.0814
 5790W        W22637  15.423  11.531   1.360 -0.2841 -0.2735 -0.0160
 5791W        W22638  16.778   9.869  11.562 -0.3519  0.1613 -0.3696
 5792W        W22639   0.843   7.801   0.142 -0.0260 -0.1491  0.0698
 5793W        W22640   5.316  14.392   0.726 -0.2874 -0.0545 -0.0931
 5794W        W22641   3.907  12.327  15.184  0.0779  0.0324  0.0063
 5795W        W22642  14.743   5.067  14.902  0.0217 -0.0716 -0.3317
 5796W        W22643  17.547  10.027   4.312  0.0882  0.0678 -0.2651
 5797W        W22644   1.361   5.629  16.283  0.1300 -0.1525  0.0440
 5798W        W22645   7.953  11.880   2.447  0.0591 -0.2152 -0.0390
 5799W        W22646  11.518  10.562  16.458 -0.0490 -0.1714  0.1979
 5800W        W22647   3.184  15.634  16.521  0.1593  0.2802  0.0868
 5801W        W22648  15.798   4.026   5.222 -0.1291  0.0430  0.0803
 5802W        W22649  10.430   6.920   4.005 -0.2594 -0.1693  0.1756
 5803W        W22650   2.927   9.967  13.041  0.2851  0.0454  0.1033
 5804W        W22651  11.828  17.057  13.805 -0.2406 -0.1308 -0.3132
 5805W        W22652   8.690  13.551   5.244  0.1673 -0.1952 -0.0427
 5806W        W22653  16.122  13.389   0.142  0.0770  0.1473  0.0786
 5807W        W22654  10.961   4.557  11.616  0.1893 -0.0205  0.2944
 5808W        W22655  11.321   6.052   0.267 -0.2165  0.0136  0.0877
 5809W        W22656  13.589   5.537   5.517 -0.2515 -0.3398  0.1174
 5810W        W22657  14.885   0.399   0.132 -0.1302 -0.0318  0.0426
 5811W        W22658  11.466   0.387  13.418 -0.2125 -0.1255 -0.2395
 5812W        W22659   4.418  17.603  15.272  0.4330  0.0766  0.2214
 5813W        W22660  14.695  10.139  16.419  0.0331 -0.3222 -0.2716
 5814W        W22661  12.866   2.394  11.326 -0.1386  0.0171  0.0152
 5815W        W22662  15.577  17.473   0.712 -0.0188  0.2765 -0.2243
 5816W        W22663  10.365  14.507  15.588  0.0984 -0.1861 -0.0672
 5817W        W22664  10.650   8.177  12.582 -0.3452  0.0869 -0.2787
 5818W        W22665  12.220  10.288  11.998 -0.0011 -0.1260 -0.0643
 5819W        W22666   5.821  12.431   5.029  0.1286 -0.1500 -0.0002
 5820W        W22667   0.464   3.436   5.289  0.1543  0.0451 -0.2007
 5821W        W22668   6.672  15.497   2.900 -0.0290 -0.0086  0.3279
 5822W        W22669  16.577  16.594   3.982 -0.0125  0.0944  0.0071
 5823W        W22670   3.490   2.168   1.469 -0.2186 -0.3224  0.3103
 5824W        W22671  10.315  11.919  12.867 -0.3731  0.4625 -0.5389
 5825W        W22672  14.987   3.029  14.008  0.1639 -0.0998  0.0815
 5826W        W22673   8.930  12.111  16.222 -0.1845  0.0693  0.1724
 5827W        W22674   6.193  15.930   1.699 -0.0584  0.2525  0.0064
 5828W        W22675  10.863  11.152  13.306  0.1645 -0.0240  0.1052
 5829W        W22676   8.591   4.441   4.783 -0.2720 -0.0493  0.0970
 5830W        W22677   9.438   6.427   3.780 -0.2815  0.1555 -0.1782
 5831W        W22678   9.077  14.789  15.915  0.0058 -0.0839 -0.2685
 5832W        W22679   7.269   1.374  12.964  0.1985 -0.0581 -0.0960
 5833W        W22680   2.367   6.848   0.031 -0.2494 -0.2446 -0.0247
 5834W        W22681   7.086   0.907  16.285 -0.1908  0.1403 -0.0539
 5835W        W22682   5.051   1.973  12.946  0.2936 -0.0412 -0.3453
 5836W        W22683  16.932  11.635  13.075  0.3876 -0.1287  0.1674
 5837W        W22684  12.899  17.407   0.980 -0.1346 -0.0729 -0.1201
 5838W        W22685  15.771   2.813   2.179 -0.1541  0.0294  0.2457
 5839W        W22686   5.387   9.160   3.046 -0.2579 -0.0224  0.2550
 5840W        W22687  13.431   4.442  13.705  0.1485  0.1446  0.1540
 5841W        W22688   6.004   4.165  13.161 -0.1075 -0.3359 -0.0587
 5842W        W22689  15.668   0.577  14.977  0.0766  0.3443  0.1476
 5843W        W22690   7.484  17.682  12.428 -0.2139 -0.0969 -0.1096
 5844W        W22691   3.770   7.728  15.955  0.0647 -0.3248  0.0837
 5845W        W22692  17.559   9.207  15.735  0.0353  0.2985 -0.4404
 5846W        W22693  12.134   6.356  12.713 -0.1585  0.3195 -0.0585
 5847W        W22694   1.148  14.160   3.041  0.0035 -0.2540 -0.0109
 5848W        W22695  17.207  17.797  12.111 -0.0260 -0.0399 -0.1762
 5849W        W22696   2.416  12.401  14.577  0.1964 -0.0945  0.0729
 5850W        W22697   6.484   7.750   1.742  0.0149  0.0110  0.1952
 5851W        W22698  10.884   8.478  13.784 -0.0872 -0.0924  0.1463
 5852W        W22699  16.461  10.945  16.570  0.2601  0.0558 -0.3503
 5853W        W22700   9.698   6.713  14.386  0.0180 -0.2103 -0.0142
 5854W        W22701   2.999   5.289  14.385 -0.1195 -0.2363  0.1486
 5855W        W22702  10.007   4.401   3.955 -0.2843 -0.0589 -0.2387
 5856W        W22703   8.117   3.689   4.210  0.2907 -0.0671 -0.0210
 5857W        W22704  17.391  13.322  15.657  0.3495  0.2325  0.0938
 5858W        W22705  17.186   5.098   4.698 -0.0234  0.3825 -0.2641
 5859W        W22706  14.150   8.245   4.675  0.2865 -0.0255 -0.0858
 5860W        W22707  17.673   1.531   4.733 -0.1159 -0.1113 -0.1083
 5861W        W22708  11.347   1.963   2.262  0.3935 -0.0604 -0.0014
 5862W        W22709  10.999  11.715   0.629 -0.1787 -0.1721 -0.1178
 5863W        W22710   7.384  17.229  11.612 -0.1236  0.0968 -0.1614
 5864W        W22711  16.254  16.812   0.154  0.0239  0.0114 -0.0380
 5865W        W22712  14.716  16.523  11.210  0.1734  0.0281 -0.0595
 5866W        W22713  17.779  11.184   2.785 -0.1448  0.1139 -0.1803
 5867W        W22714   8.287   5.709  13.921  0.2827  0.0317 -0.1936
 5868W        W22715  11.492  13.949   2.186  0.4076  0.3308 -0.0371
 5869W        W22716   2.939   2.822  11.336 -0.1546 -0.0849  0.2432
 5870W        W22717  10.195  11.429   6.034 -0.3898 -0.1773 -0.4068
 5871W        W22718   1.753   5.027  12.926  0.0689  0.0605 -0.1176
 5872W        W22719   2.637  11.988   0.877 -0.0180  0.0324 -0.1033
 5873W        W22720  16.866  16.282   3.591 -0.0544 -0.3277  0.0084
 5874W        W22721   6.440  15.838  13.808 -0.0025 -0.2462  0.1426
 5875W        W22722   3.296  13.167   0.182  0.0259  0.2182  0.0166
 5876W        W22723   2.918   2.685  13.916 -0.0654  0.1719 -0.2071
 5877W        W22724   6.510   0.365  12.781  0.0920  0.0479  0.1256
 5878W        W22725  14.188   9.521  15.188 -0.1812 -0.2166 -0.0167
 5879W        W22726  12.589   5.758   4.779  0.0312 -0.0703 -0.2185
 5880W        W22727   3.185  13.459   1.155  0.1316  0.2394 -0.1577
 5881W        W22728  16.870   7.051  13.284  0.1408  0.0432 -0.3065
 5882W        W22729   3.039   9.041  13.593  0.0017 -0.1971  0.2423
 5883W        W22730   7.024   3.210  15.779 -0.0675  0.4775  0.0408
 5884W        W22731   7.723   0.758   2.076 -0.0953 -0.2410  0.0706
 5885W        W22732  11.648   9.218  16.431  0.1113  0.1924 -0.0355
 5886W        W22733   0.799   6.309  14.057 -0.0081 -0.0115  0.0540
 5887W        W22734   4.809   8.824   0.811  0.2082 -0.0754 -0.0836
 5888W        W22735  17.658   2.774   1.070  0.4240  0.0592  0.0503
 5889W        W22736  12.140  16.913   4.931  0.4031 -0.0738  0.0432
 5890W        W22737  12.813  16.234  16.381  0.1271  0.0090  0.3722
 5891W        W22738  10.643  15.304   5.948  0.0099 -0.0345 -0.0233
 5892W        W22739   5.140  17.382  13.338 -0.0929  0.2112 -0.1465
 5893W        W22740   3.364   7.229  16.379 -0.0655 -0.0119  0.1882
 5894W        W22741   0.854  11.307  13.344 -0.1622 -0.1783 -0.3108
 5895W        W22742   1.182   9.442  15.889  0.0591 -0.0036 -0.1770
 5896W        W22743   9.478   2.050  15.636  0.3819 -0.2416  0.1510
 5897W        W22744   3.631   7.869   0.409 -0.0180  0.2652 -0.0471
 5898W        W22745  10.791  17.032  13.840  0.2296  0.1060  0.0131
 5899W        W22746   4.365   0.192  13.901 -0.0589 -0.1042 -0.2864
 5900W        W22747  16.121   0.593   0.179  0.0121  0.1655 -0.2099
 5901W        W22748   2.709  17.549   5.334  0.0276  0.1301 -0.0516
 5902W        W22749  14.938   2.468   0.159 -0.0207 -0.1941  0.0939
 5903W        W22750  16.465   5.157   1.751 -0.3224 -0.1139  0.0612
 5904W        W22751   2.954   0.462  16.429 -0.0311 -0.0818  0.1117
 5905W        W22752   0.183   3.745   4.489 -0.0095  0.2435  0.1058
 5906W        W22753  13.354   2.422  15.746  0.3476  0.0722 -0.2496
 5907W        W22754  13.871   5.059   4.621  0.1054  0.0623 -0.1787
 5908W        W22755  12.809   7.188  15.164  0.1477 -0.0824  0.0838
 5909W        W22756   3.120   5.530   1.863  0.0343 -0.1406 -0.1345
 5910W        W22757   4.260  10.662  13.968  0.2814 -0.2089 -0.0770
 5911W        W22758  10.899   4.097  14.099  0.1245 -0.2256  0.0320
 5912W        W22759   8.620   7.938  14.092 -0.3041  0.0309 -0.0696
 5913W        W22760   3.585  10.741  14.719  0.1958 -0.2675 -0.1588
 5914W        W22761   8.524   0.085   4.282 -0.0758  0.0044  0.0844
 5915W        W22762   8.614   1.370  15.804 -0.1021  0.2082  0.2387
 5916W        W22763  10.559   6.856   5.666 -0.2964 -0.1420  0.1291
 5917W        W22764  15.223  13.710   4.671 -0.2051  0.2033  0.0675
 5918W        W22765   3.410   5.235  16.643  0.3173 -0.2081  0.3603
 5919W        W22766   1.739  13.483   1.302 -0.1255 -0.0329 -0.0419
 5920W        W22767   5.275   9.409   3.885  0.1722 -0.2206 -0.0065
 5921W        W22768   7.299   4.365   4.558 -0.0198  0.1586  0.3399
 5922W        W22769   8.888   4.859  16.396  0.1824  0.1584 -0.2220
 5923W        W22770  12.647  17.513   3.224  0.0475 -0.0298 -0.0825
 5924W        W22771   5.863   0.933   4.460 -0.1595 -0.2011 -0.0394
 5925W        W22772   2.862   1.994   4.940  0.0448  0.3954  0.0035
 5926W        W22773   6.276   8.695   5.689  0.0869 -0.1274  0.1494
 5927W        W22774   4.204   3.128  14.916  0.1047  0.2153 -0.2070
 5928W        W22775  17.213   4.555   4.662  0.0655  0.2319  0.2127
 5929W        W22776  13.614  16.678  14.314  0.1068 -0.2029 -0.2626
 5930W        W22777   5.650   4.144  12.453  0.1249  0.0156  0.1051
 5931W        W22778   4.702  17.074   0.645  0.2249 -0.0780  0.0447
 5932W        W22779  12.049   7.813   4.334 -0.1008  0.0198  0.2242
 5933W        W22780   6.694  10.886  15.499  0.1449  0.0624  0.0158
 5934W        W22781  14.839   5.883   1.076 -0.6042 -0.2210 -0.2218
 5935W        W22782   6.457   1.612   1.741 -0.1433  0.3445  0.2342
 5936W        W22783  17.472  16.119   2.078 -0.0322  0.1220 -0.0362
 5937W        W22784   7.625  13.821  11.756 -0.1975 -0.0592 -0.3791
 5938W        W22785  12.032  17.331  15.881  0.1717 -0.4336  0.0417
 5939W        W22786   0.458  13.656   4.143 -0.3349 -0.1757 -0.2529
 5940W        W22787  14.216  11.316  14.597 -0.0291  0.0633 -0.1164
 5941W        W22788   3.231  16.570  14.365  0.0281  0.0615  0.1651
 5942W        W22789  12.650   0.544   0.178 -0.0697  0.0097 -0.0666
 5943W        W22790  16.869   3.467   2.697 -0.1013 -0.1147 -0.0141
 5944W        W22791  15.622  14.402  15.457  0.0851  0.1690 -0.1686
 5945W        W22792   0.584  10.547   3.221 -0.0095  0.1824  0.1087
 5946W        W22793   1.428   6.851   4.145  0.1345 -0.3400 -0.2396
 5947W        W22794  10.437   8.447   0.087 -0.1724 -0.0401  0.0168
 5948W        W22795  14.343   2.610  11.896 -0.0644  0.3188 -0.1001
 5949W        W22796   7.538   9.863  16.191 -0.0800 -0.3161  0.1745
 5950W        W22797  13.418  14.323  11.671 -0.2721 -0.1836  0.1461
 5951W        W22798  17.772  16.209   4.203 -0.0294  0.0020 -0.0730
 5952W        W22799  11.590  17.686   6.036  0.0896  0.1429 -0.0044
 5953W        W22800  15.816  11.215  12.152 -0.1644  0.0867  0.1301
 5954W        W22801  15.410  15.946  12.653 -0.1612 -0.4541  0.1220
 5955W        W22802   7.735   8.904  12.261  0.0172 -0.0714 -0.1438
 5956W        W22803   9.291   9.087  15.577  0.1882 -0.0246 -0.1026
 5957W        W22804   8.525   3.917  14.841  0.1771  0.1737 -0.2881
 5958W        W22805   0.655   6.140  13.593  0.0194  0.0340  0.0003
 5959W        W22806   1.073  15.348   6.045  0.0651  0.2037  0.5046
 5960W        W22807   7.191   3.494  12.842 -0.0099  0.0353  0.2108
 5961W        W22808  15.574  11.467   0.784  0.2241  0.0293  0.1287
 5962W        W22809   1.638  14.930   0.493  0.0402 -0.1398  0.1719
 5963W        W22810   3.839   2.683   3.639 -0.2608 -0.1251  0.4565
 5964W        W22811  14.882   0.936  11.282  0.2976 -0.1428  0.2590
 5965W        W22812  13.785   4.909  12.632 -0.6144  0.2911 -0.1054
 5966W        W22813   5.549   8.967  12.394  0.0855 -0.0481  0.0126
 5967W        W22814  14.062  10.666  16.214  0.1157  0.3008 -0.0300
 5968W        W22815  16.142   6.296  13.133  0.1454 -0.0510 -0.0177
 5969W        W22816   2.632   8.638   1.269 -0.3235 -0.0541  0.1869
 5970W        W22817   9.399   2.050   4.710  0.1318 -0.0577  0.1040
 5971W        W22818  12.475   1.802  15.894  0.1152  0.1790  0.0267
 5972W        W22819  11.180  17.555   4.476  0.4044 -0.3633 -0.0361
 5973W        W22820  10.230   0.493  12.488  0.3786 -0.0130  0.0134
 5974W        W22821   4.014   2.607  12.370  0.0639  0.1269 -0.0735
 5975W        W22822  11.182   1.433   4.208 -0.0713  0.1716 -0.1675
 5976W        W22823  12.394  11.096  13.023 -0.0180  0.0144  0.1818
 5977W        W22824  17.066   5.573   3.175  0.0830 -0.4039  0.3053
 5978W        W22825  11.958  16.038  13.068  0.0662 -0.0831 -0.0409
 5979W        W22826   4.292   2.929  11.457 -0.0086 -0.0892  0.0197
 5980W        W22827  14.203  13.143  14.549 -0.0807  0.1968  0.2326
 5981W        W22828  13.650   8.235   1.181  0.0218  0.1326 -0.1112
 5982W        W22829   3.798  17.906  16.062  0.0230 -0.2478  0.1741
 5983W        W22830  17.954   3.390   4.719  0.2779 -0.1848  0.1403
 5984W        W22831   0.489  14.166  15.977 -0.0511  0.0583 -0.0151
 5985W        W22832  13.863  17.746   2.493 -0.0724  0.1051  0.1227
 5986W        W22833   6.587   1.105   3.839  0.1447  0.2297 -0.0288
 5987W        W22834  15.889  14.358   4.214 -0.2207 -0.1661 -0.1642
 5988W        W22835  10.511  15.906  15.017  0.0496 -0.2129 -0.2256
 5989W        W22836   7.080  12.226  14.462  0.0855  0.0441 -0.1834
 5990W        W22837  11.647   3.375   2.910 -0.1181 -0.1892 -0.0617
 5991W        W22838   5.005   4.254   2.935  0.0538  0.0060 -0.0319
 5992W        W22839   2.883  17.471  11.557  0.2033 -0.2282  0.1602
 5993W        W22840   3.933   5.173   1.847  0.3812 -0.1013  0.2374
 5994W        W22841  12.607   0.679  13.464  0.3016  0.1158 -0.1428
 5995W        W22842   8.664  13.822   4.387 -0.0594  0.0822 -0.3884
 5996W        W22843  13.724   9.176   3.219 -0.0253 -0.0752 -0.0163
 5997W        W22844   1.043   2.898  12.206  0.2007 -0.1174 -0.0527
 5998W        W22845   7.183   8.602  15.212 -0.5341 -0.0999  0.0529
 5999W        W22846   5.641   8.365   6.186  0.0218 -0.0753  0.1797
 6000W        W22847   8.529  14.543  12.631  0.2639  0.0842 -0.2251
 6001W        W22848   9.510   4.866   5.294 -0.2176  0.0357  0.0573
 6002W        W22849   0.209   8.401  16.659  0.0805  0.1549  0.1139
 6003W        W22850   1.149   9.694   1.329 -0.1600  0.1685 -0.3793
 6004W        W22851   0.794   1.938  11.457 -0.1703  0.1003  0.1133
 6005W        W22852   9.289  10.485  16.022  0.0600 -0.2471  0.2185
 6006W        W22853  12.538   6.210  15.857 -0.0406 -0.1306 -0.1685
 6007W        W22854  11.304  15.742  14.572  0.2572  0.1917  0.2570
 6008W        W22855  17.576  15.559   3.715 -0.0716  0.2032  0.0743
 6009W        W22856   9.902   4.606  15.525 -0.0714  0.0666  0.1223
 6010W        W22857   7.046  13.809   3.967 -0.0607  0.1104 -0.0460
 6011W        W22858   3.925   9.516   0.773 -0.1184  0.2404  0.0633
 6012W        W22859   2.077  10.045   2.882  0.2030 -0.1580 -0.0030
 6013W        W22860   9.548   8.139  15.426  0.2170  0.0839  0.3939
 6014W        W22861  15.549  17.333   4.869  0.1648 -0.0890  0.1993
 6015W        W22862  12.014  10.530   2.281 -0.1287 -0.0829  0.0351
 6016W        W22863  16.407  13.785  14.265 -0.1188 -0.1922 -0.0055
 6017W        W22864   0.771  15.873  13.689  0.0668  0.2467  0.0184
 6018W        W22865  12.578   6.804   3.339  0.1417 -0.0123 -0.3501
 6019W        W22866  13.699   2.500  13.603  0.1101  0.0772 -0.3341
 6020W        W22867  13.015   1.331   2.862 -0.1722  0.3062  0.3278
 6021W        W22868  16.966   1.947  12.932 -0.3448 -0.0530  0.2800
 6022W        W22869  15.379   5.538   1.959  0.2893  0.1463  0.0386
 6023W        W22870  10.591   6.854   2.213  0.0590  0.1207 -0.1618
 6024W        W22871  16.284  13.563   2.718  0.3025  0.4223 -0.3687
 6025W        W22872   2.957   9.037   1.342 -0.0436 -0.0882 -0.2132
 6026W        W22873  14.851  17.570   2.035  0.2739  0.1183  0.1336
 6027W        W22874  10.198  17.025   3.369 -0.1583  0.1577 -0.0460
 6028W        W22875   6.323   9.286   4.233  0.0418 -0.2174  0.1257
 6029W        W22876  15.574   3.324   0.330  0.0838 -0.4550 -0.3583
 6030W        W22877  14.489   7.511  15.713 -0.3114  0.0937 -0.3226
 6031W        W22878   8.842  18.035  15.738 -0.1765  0.3136  0.0289
 6032W        W22879   3.695  10.448  15.858 -0.3454  0.1427 -0.1909
 6033W        W22880   6.470   4.200   1.279  0.1837  0.2643 -0.2326
 6034W        W22881   5.366   8.205   4.941 -0.2134  0.0189 -0.2393
 6035W        W22882  15.778   5.281  12.652  0.0380 -0.0270 -0.2983
 6036W        W22883   4.202  13.086  14.468 -0.0867 -0.1440 -0.1726
 6037W        W22884   5.375  17.078   3.612 -0.1757  0.3464  0.4113
 6038W        W22885   9.198  10.922  16.249 -0.0146  0.1165  0.1354
 6039W        W22886  15.017  13.900  16.086 -0.1823  0.3687  0.1432
 6040W        W22887   9.985   3.142  12.234  0.0739 -0.0297 -0.1499
 6041W        W22888   5.424   6.163   2.736 -0.1253 -0.2154 -0.1960
 6042W        W22889  13.645   6.640   3.390 -0.0311 -0.0779  0.0781
 6043W        W22890   4.433  16.854  16.594 -0.0057  0.0936 -0.2286
 6044W        W22891   4.824   7.997  13.670  0.2482  0.0208 -0.0040
 6045W        W22892   2.173  13.911   2.176  0.2583  0.0853  0.0343
 6046W        W22893   2.713   5.485   2.898  0.0557  0.1192  0.0283
 6047W        W22894  11.561  15.309  14.578 -0.2644  0.1860  0.2905
 6048W        W22895  13.526  10.046   2.567  0.0542  0.0127  0.2773
 6049W        W22896   1.805   1.833  14.155  0.2399 -0.0706 -0.0252
 6050W        W22897  11.830   9.106  15.869 -0.1159 -0.1438 -0.1198
 6051W        W22898  13.088   3.565   2.237 -0.4510  0.2433  0.1188
 6052W        W22899   3.182   8.100   0.147 -0.1421 -0.2012  0.0242
 6053W        W22900  11.924  13.605   3.095  0.0803  0.0895 -0.2036
 6054W        W22901  16.362  14.662   0.649  0.2713 -0.2772  0.0570
 6055W        W22902   0.602  10.132   0.517 -0.0433  0.0041  0.0426
 6056W        W22903  12.073   1.137  11.363  0.1419  0.1755 -0.1938
 6057W        W22904  15.944   8.901  14.974  0.0855  0.1922 -0.2031
 6058W        W22905   2.652   6.669  15.855  0.0125 -0.0855 -0.2358
 6059W        W22906   9.945   5.764  14.194  0.0980  0.2153 -0.0752
 6060W        W22907  12.730   6.013   5.616  0.1714  0.1795  0.2332
 6061W        W22908   9.275  12.686   4.821  0.4027 -0.4616  0.0694
 6062W        W22909   5.888   8.878  14.446 -0.2219 -0.0744  0.2935
 6063W        W22910  10.497  11.325   3.053 -0.0565 -0.1351 -0.1075
 6064W        W22911  15.632   3.888   0.954  0.1492  0.3554  0.1152
 6065W        W22912  15.181   4.252   1.815 -0.0714 -0.2004 -0.0159
 6066W        W22913   8.067   9.490   5.396  0.2495 -0.1790  0.3319
 6067W        W22914   7.385  16.078   2.258  0.1662 -0.1390  0.2048
 6068W        W22915   2.893  14.669  12.273  0.0621  0.0733 -0.1845
 6069W        W22916   1.665  11.620  14.491 -0.0262  0.1416 -0.1244
 6070W        W22917   8.684   0.174   3.756 -0.1309  0.1243 -0.0751
 6071W        W22918  11.036   2.937   4.762 -0.0570  0.0654 -0.3693
 6072W        W22919   7.295   6.576  14.572 -0.3114  0.0285  0.1103
 6073W        W22920  17.904  12.125  14.363 -0.0787  0.3557 -0.2026
 6074W        W22921   4.731   7.306   0.970  0.3286 -0.0521 -0.0385
 6075W        W22922  15.492  13.980  12.657  0.3097  0.0643 -0.1101
 6076W        W22923   8.854  14.829  13.160 -0.1366 -0.2483 -0.1223
 6077W        W22924  15.040  12.008   0.431 -0.0190  0.1787  0.0187
 6078W        W22925  17.818  10.625  15.387  0.0652  0.0610  0.0057
 6079W        W22926  14.529   4.807  15.769  0.2386  0.3163  0.0292
 6080W        W22927  13.811  13.338   1.041  0.0235  0.1459 -0.0210
 6081W        W22928   0.029   7.194   1.149 -0.0700  0.0785 -0.0454
 6082W        W22929   8.620   5.252  14.561 -0.0944  0.0067  0.0577
 6083W        W22930   7.974  12.189  14.481  0.2611 -0.3564 -0.0351
 6084W        W22931   8.662   1.106  11.139  0.1452  0.2420 -0.0728
 6085W        W22932   9.248   1.448   2.972 -0.2002 -0.0601 -0.0424
 6086W        W22933  15.778  14.940  13.574  0.0133  0.1725  0.0614
 6087W        W22934   9.118  16.925  11.932 -0.1608 -0.2958 -0.2318
 6088W        W22935   1.383  11.603   1.948 -0.1560 -0.1657  0.4108
 6089W        W22936   9.836   0.319  16.605 -0.0504  0.0384 -0.2257
 6090W        W22937  10.853   7.793   0.715 -0.2451 -0.2553  0.0076
 6091W        W22938   7.627   2.657   1.907  0.2240  0.2464  0.0331
 6092W        W22939   9.149   7.307   4.077  0.2370  0.3164 -0.1295
 6093W        W22940  17.752   2.180  13.844 -0.0375 -0.0622  0.0903
 6094W        W22941   6.560   9.658  12.494  0.1187 -0.2722  0.1989
 6095W        W22942   4.076   4.161  14.997  0.1215 -0.2202  0.0606
 6096W        W22943   2.194   4.806  14.629 -0.0075  0.0089 -0.1217
 6097W        W22944   4.131  16.420   1.201  0.0651 -0.0230  0.0068
 6098W        W22945   5.679  14.571   4.900 -0.1076 -0.0404  0.0276
 6099W        W22946  14.403   4.078   4.486 -0.1280  0.1038 -0.0048
 6100W        W22947   9.120  15.540   4.233 -0.3884  0.3585 -0.0025
 6101W        W22948   9.272  17.890  13.011 -0.0936 -0.1807 -0.0324
 6102W        W22949  17.547  13.340   6.085  0.2277 -0.2089 -0.0969
 6103W        W22950  14.937   7.404   1.179  0.0271 -0.1190  0.0093
 6104W        W22951   2.480   0.992  15.730 -0.2844 -0.3225  0.1123
 6105W        W22952   8.621   2.178  14.244 -0.1420  0.2856 -0.2931
 6106W        W22953   7.044  17.883  11.734 -0.0912  0.0006  0.2703
 6107W        W22954   8.280   1.213   5.776  0.1172  0.0209  0.2213
 6108W        W22955   8.595   1.430   3.208 -0.3554 -0.2751 -0.0131
 6109W        W22956   1.627  11.261   3.592 -0.0318 -0.2300  0.2206
 6110W        W22957   4.747   5.653   4.361  0.1507 -0.0501  0.1030
 6111W        W22958  14.721  15.579   2.982 -0.1169 -0.4383  0.0395
 6112W        W22959   0.247  17.007   4.822  0.0424  0.1587  0.1223
 6113W        W22960   3.392   9.897   5.426  0.0955  0.3881 -0.0776
 6114W        W22961  16.886   4.054  11.323 -0.0182 -0.0556 -0.1373
 6115W        W22962   4.659   4.140   0.887  0.2853 -0.0674  0.2279
 6116W        W22963  12.433   8.593   4.211  0.0547  0.0719  0.0949
 6117W        W22964   9.481  11.774  14.961 -0.1078  0.0013  0.1919
 6118W        W22965   3.884  11.741  12.081 -0.1666 -0.1796  0.2785
 6119W        W22966   8.576   0.762  15.313  0.1089  0.4380 -0.0171
 6120W        W22967   8.280  12.323   2.319 -0.0377  0.0549 -0.0506
 6121W        W22968   3.152   8.546   2.611 -0.0174 -0.0688  0.0788
 6122W        W22969  12.488   6.711  13.818 -0.0936 -0.2798 -0.1608
 6123W        W22970   8.073  13.757  12.739  0.1359  0.2834  0.0308
 6124W        W22971   5.479   4.910  15.792 -0.2036 -0.5154  0.0322
 6125W        W22972   2.940  10.317   4.695  0.1579  0.0770  0.1765
 6126W        W22973  10.487  13.424   2.195 -0.0029  0.1135  0.1321
 6127W        W22974   6.640  13.060  12.135 -0.0200 -0.1016 -0.1029
 6128W        W22975  10.402  11.354   1.328  0.3679  0.0788 -0.2616
 6129W        W22976  10.744  12.420   3.421  0.0539 -0.0244  0.2413
 6130W        W22977   5.213   3.151  14.354  0.0045  0.0448 -0.0932
 6131W        W22978   6.863  14.791   1.270  0.0402 -0.1986 -0.2657
 6132W        W22979   4.600  15.828  15.088 -0.1225  0.2407  0.1508
 6133W        W22980  17.104   3.169  11.843 -0.1525 -0.0545 -0.0590
 6134W        W22981  16.478   6.208  12.036 -0.3727  0.0991 -0.0529
 6135W        W22982   7.191   8.707   0.378  0.0183 -0.1420  0.1775
 6136W        W22983   7.474  12.079  14.236 -0.0400  0.0690 -0.1070
 6137W        W22984  15.144  13.700  13.110 -0.0417  0.0699 -0.1217
 6138W        W22985  14.118   2.439   5.001 -0.3520 -0.0890  0.0881
 6139W        W22986  11.544   4.990  12.019 -0.2628 -0.0839  0.0499
 6140W        W22987   7.871  14.247   0.352  0.1594  0.1895  0.0230
 6141W        W22988  17.553  15.673  13.019  0.1022  0.1435  0.0833
 6142W        W22989   2.727   8.001   4.509  0.1454  0.2551 -0.1048
 6143W        W22990   1.027  14.104  14.312 -0.1382 -0.1172  0.1770
 6144W        W22991   9.597  17.144   1.909  0.1337 -0.0467 -0.0848
 6145W        W22992  12.176   7.701  13.771 -0.0484  0.1915 -0.1945
 6146W        W22993  16.767   3.803  15.310  0.0707  0.2432 -0.1533
 6147W        W22994  16.944   9.589  11.952  0.2011  0.1658  0.2574
 6148W        W22995   2.493   0.507   3.917  0.2219 -0.0236 -0.2397
 6149W        W22996   5.322   0.194  16.116 -0.3016  0.3391  0.0641
 6150W        W22997  12.181   0.890  14.841 -0.3836 -0.2545  0.1227
 6151W        W22998   6.067  12.101   0.256  0.1187 -0.1697  0.2167
 6152W        W22999   4.117  17.582   2.599  0.7337 -0.0588  0.0670
 6153W        W23000   8.088   7.371  16.527  0.1354  0.0647 -0.0067
 6154W        W23001  14.693   8.112   1.554 -0.2036 -0.0790 -0.0561
 6155W        W23002   8.566  14.840   4.794  0.0285 -0.2170  0.0153
 6156W        W23003   2.443  11.374   4.707 -0.0315  0.2784 -0.1596
 6157W        W23004   6.506   9.042  11.978 -0.2031 -0.0089 -0.1154
 6158W        W23005   4.762  13.663   0.557 -0.0023 -0.0129 -0.1500
 6159W        W23006  12.052   2.657  15.623  0.0117 -0.0900 -0.3777
 6160W        W23007  16.385  14.322  11.643  0.0678 -0.1521  0.2363
 6161W        W23008   0.377   1.244  15.042 -0.0606  0.0176 -0.0085
 6162W        W23009   9.112  14.148  16.177  0.0040  0.0260  0.0118
 6163W        W23010   7.775  12.388   2.733  0.4587  0.1534  0.1523
 6164W        W23011   9.798  17.479   4.139 -0.0236  0.2188 -0.1416
 6165W        W23012   4.005  12.850  13.705  0.2851  0.0550 -0.0630
 6166W        W23013  14.003   0.284  12.043  0.0095  0.1481  0.1798
 6167W        W23014   0.423  13.655  15.854  0.2889  0.1925  0.0742
 6168W        W23015   4.216   5.399  13.660  0.1195  0.0038  0.1083
 6169W        W23016  11.673  16.182  16.638 -0.2733  0.0731  0.1102
 6170W        W23017   6.776   2.177  15.008  0.0468 -0.1072 -0.1022
 6171W        W23018  17.515  11.164  13.444 -0.0261 -0.1524  0.4128
 6172W        W23019   9.574  13.647  12.991 -0.0143 -0.0179 -0.1664
 6173W        W23020   3.153   3.244  12.982 -0.2090 -0.1920 -0.1619
 6174W        W23021   0.038   2.747   5.454  0.3101 -0.0420  0.0277
 6175W        W23022  17.896  12.989   6.201 -0.0183 -0.0178 -0.2056
 6176W        W23023  12.634  12.452  15.753  0.0875 -0.1502  0.0089
 6177W        W23024   0.468  17.217  12.766 -0.0462  0.0202  0.0808
 6178W        W23025  17.850   1.253  13.674 -0.0384  0.0135 -0.0850
 6179W        W23026   9.867   8.761  15.996  0.1637  0.2056  0.4001
 6180W        W23027   1.186   4.766  15.181  0.2737  0.0635  0.0654
 6181W        W23028   1.760   9.470  16.612  0.0138 -0.1484 -0.6254
 6182W        W23029   3.398   5.996   1.896  0.2507 -0.0462 -0.0908
 6183W        W23030  14.139   0.433  15.218 -0.0132 -0.3190 -0.2142
 6184W        W23031  18.023  12.983  14.263  0.1372  0.0545 -0.1176
 6185W        W23032   2.720   2.346  12.178 -0.2878  0.4033 -0.0629
 6186W        W23033   7.182   7.490  12.018  0.2851  0.1936  0.3185
 6187W        W23034  15.559  11.187   5.407 -0.0418 -0.1684 -0.2166
 6188W        W23035  14.582   5.640  13.269 -0.4439 -0.1963 -0.1224
 6189W        W23036   1.163  17.117  11.878 -0.0017  0.0026  0.0036
 6190W        W23037   7.697  16.630   3.897 -0.0998 -0.0701 -0.2033
 6191W        W23038   2.251  16.408  14.585  0.0262 -0.0312 -0.1270
 6192W        W23039  10.957  10.949  15.878 -0.2354  0.0770 -0.0207
 6193W        W23040  15.590  16.321   4.990 -0.1892 -0.2294  0.0214
 6194W        W23041  13.366  12.242   0.580  0.1894 -0.0262  0.0559
 6195W        W23042   7.408  10.454   3.261  0.0366 -0.0695  0.0021
 6196W        W23043   7.086  12.858   5.495  0.1334  0.1200 -0.2822
 6197W        W23044   9.672   5.991   3.859 -0.1345 -0.0930  0.2495
 6198W        W23045  11.896   8.039   2.031  0.0194  0.1851 -0.2438
 6199W        W23046   3.072  16.465  14.883  0.1507 -0.1380  0.0131
 6200W        W23047  11.074   6.590   5.271  0.2631 -0.0256  0.0577
 6201W        W23048   4.064  12.848   0.248  0.1816 -0.0514 -0.0628
 6202W        W23049   8.169  15.473  14.366  0.2183  0.0638  0.2072
 6203W        W23050  12.539   5.481   0.239  0.0818 -0.0302 -0.2157
 6204W        W23051   0.190  11.355   3.075  0.2100 -0.3744 -0.2032
 6205W        W23052   5.129   1.059  13.022  0.0729 -0.1825 -0.1634
 6206W        W23053   3.213   2.496   0.860  0.2438 -0.0800 -0.1783
 6207W        W23054  17.926   6.650  14.656 -0.2060  0.2682 -0.0309
 6208W        W23055   2.763  18.006  16.325  0.0012  0.3545  0.2280
 6209W        W23056   6.014   3.803   4.525 -0.1005  0.2088  0.0339
 6210W        W23057   1.852  14.490  12.990  0.0908  0.2156  0.0163
 6211W        W23058   8.419  10.960   0.790  0.0978  0.4063  0.1149
 6212W        W23059   7.003   9.134  15.090  0.2839 -0.0912  0.1152
 6213W        W23060   8.809  13.499   2.929 -0.0373  0.0624 -0.0065
 6214W        W23061  17.075   4.837  13.544 -0.0892 -0.0519 -0.1949
 6215W        W23062  15.880   2.265  16.418  0.1372  0.0391 -0.0922
 6216W        W23063   7.091   5.759   0.903  0.1644 -0.0662  0.0391
 6217W        W23064   3.639   7.531  14.661  0.0826  0.1119  0.1351
 6218W        W23065   2.995   3.313  10.920  0.1862  0.1377 -0.0315
 6219W        W23066  13.697  10.299  15.287 -0.3938  0.3647  0.0486
 6220W        W23067  16.246   1.302  13.922  0.2230 -0.0332  0.0743
 6221W        W23068   8.261  14.532  15.578 -0.0773 -0.2651  0.0177
 6222W        W23069   6.556  17.223   4.397  0.2043  0.1250  0.2077
 6223W        W23070   8.594   2.520   0.558  0.1419 -0.0185 -0.0943
 6224W        W23071  16.951  14.629  13.621  0.0647 -0.3032  0.2903
 6225W        W23072   1.854  14.529   4.362  0.0613  0.1383 -0.1458
 6226W        W23073   6.208  11.531  13.458 -0.2073 -0.3404  0.1247
 6227W        W23074   9.928   8.222   2.375 -0.1352 -0.0809  0.4638
 6228W        W23075  14.706   1.381   4.129  0.0701  0.0044  0.2785
 6229W        W23076  12.482  10.845   0.551  0.2076  0.1095  0.2041
 6230W        W23077  10.928  13.132  13.157  0.1575  0.0072  0.1716
 6231W        W23078   1.786  10.526  13.488  0.0290 -0.0185  0.1880
 6232W        W23079   7.835   3.018  12.366 -0.1384 -0.1573 -0.0429
 6233W        W23080   8.254   3.223  12.592 -0.1759 -0.2441  0.4002
 6234W        W23081  16.738   1.566  14.009  0.1956 -0.0834  0.0584
 6235W        W23082   9.178  17.683  14.652  0.0065  0.1176 -0.0723
 6236W        W23083   9.520   1.739   4.261  0.0126 -0.3441 -0.1730
 6237W        W23084  14.056   0.423   9.913  0.0143  0.0275  0.1686
 6238W        W23085   4.476  11.735  14.653  0.0862 -0.1845 -0.1407
 6239W        W23086   4.317   9.775   4.639  0.2080  0.3388  0.1517
 6240W        W23087  13.515  11.374   4.731 -0.2002  0.1224  0.0335
 6241W        W23088   9.843  15.140   4.680  0.2197 -0.0592  0.2696
 6242W        W23089   1.262  10.249   1.348 -0.0079 -0.2987  0.0911
 6243W        W23090   1.119  11.832  15.698 -0.0387  0.3755  0.0064
 6244W        W23091  12.679  14.884   3.155  0.0061 -0.1297 -0.0854
 6245W        W23092  17.277   5.884  15.328 -0.1931  0.1580  0.1916
 6246W        W23093   4.095  10.127  11.833  0.0994  0.0552 -0.1161
 6247W        W23094  14.933   4.133   0.682  0.1073  0.2489  0.0106
 6248W        W23095   3.472   2.640   1.262  0.1348 -0.1577 -0.0411
 6249W        W23096   2.634  16.751  12.481  0.1453 -0.0492 -0.0657
 6250W        W23097  13.946  17.438  16.641 -0.0893 -0.0785  0.1010
 6251W        W23098   5.027  11.693   2.421 -0.3065  0.1843  0.1579
 6252W        W23099  15.044  16.037  13.908 -0.1084 -0.1170  0.0843
 6253W        W23100  14.567  13.011   4.752  0.4053  0.4332  0.1414
 6254W        W23101   6.589   5.157   3.448  0.0020  0.1539 -0.0121
 6255W        W23102  11.597   3.775  14.704 -0.1364 -0.0158  0.1576
 6256W        W23103   2.037   1.984   3.719  0.2222  0.4043 -0.0409
 6257W        W23104  16.802  11.777   4.256 -0.3220  0.2418  0.1232
 6258W        W23105   2.820  12.435   0.978 -0.2040 -0.2328  0.0173
 6259W        W23106  11.290   9.779   5.430 -0.0342 -0.2941  0.0131
 6260W        W23107  15.800  12.153  12.469 -0.2538  0.0075  0.1037
 6261W        W23108   6.742  12.845   1.198  0.3848 -0.1526 -0.1466
 6262W        W23109  13.267   1.603  13.220  0.2341 -0.0256  0.0794
 6263W        W23110   2.395   7.180   5.122 -0.1277  0.3024 -0.3079
 6264W        W23111   9.732   1.023  14.471 -0.0480 -0.1355 -0.3657
 6265W        W23112  12.366   1.808  11.841 -0.0619  0.1183 -0.1726
 6266W        W23113   1.667   1.328  12.255 -0.2689 -0.1279 -0.1596
 6267W        W23114  15.450  12.264   0.532  0.2271  0.0895 -0.1689
 6268W        W23115   6.767  15.616  15.557 -0.0182 -0.1557 -0.1249
 6269W        W23116   4.621   1.818  12.618  0.0788  0.2657 -0.0064
 6270W        W23117  11.762   0.584   2.651 -0.2317 -0.0860  0.0603
 6271W        W23118   9.226  11.377  15.231  0.2200  0.0548  0.0954
 6272W        W23119  15.047   5.296  15.313  0.0576 -0.0695 -0.2692
 6273W        W23120  14.299  17.565   1.494  0.1035 -0.1724  0.2131
 6274W        W23121   5.363   0.827  16.579  0.0986  0.0572  0.0193
 6275W        W23122  15.473  17.926   1.408  0.2675 -0.0226 -0.3212
 6276W        W23123   0.823   5.517   4.880  0.0741  0.2822 -0.1559
 6277W        W23124  17.433  17.267  15.347  0.4722  0.2883  0.2186
 6278W        W23125  14.055   3.673   2.352  0.0595  0.0470  0.2810
 6279W        W23126  10.945   1.291  12.347 -0.2851 -0.1831 -0.0442
 6280W        W23127   0.891   3.647   4.798  0.2260  0.0978  0.2893
 6281W        W23128  12.818   1.790  13.272 -0.1427  0.1427 -0.2632
 6282W        W23129   1.662  17.263  15.735 -0.0456 -0.0223 -0.2295
 6283W        W23130  13.256   1.368   0.326 -0.0779 -0.3557 -0.1674
 6284W        W23131  11.341  10.310  11.773  0.0036  0.2912 -0.0129
 6285W        W23132   5.286  14.776   4.701 -0.0898  0.1445  0.0207
 6286W        W23133  11.317   6.200   5.926  0.0662 -0.0569 -0.0201
 6287W        W23134  13.129  15.466   0.951 -0.1338  0.2464  0.0447
 6288W        W23135  14.369  10.980   4.960  0.1197  0.1642  0.1542
 6289W        W23136   8.220   0.041   1.695  0.1823  0.1703 -0.2262
 6290W        W23137   1.541  10.885  13.338  0.1631  0.0878 -0.1127
 6291W        W23138  12.857  12.233   0.694  0.1483  0.1273 -0.0866
 6292W        W23139   4.334  17.990  12.252  0.0960 -0.1122  0.0977
 6293W        W23140   8.157   1.248  13.360 -0.1331  0.0194 -0.0140
 6294W        W23141   8.531   8.826   1.242 -0.0465  0.3512 -0.0243
 6295W        W23142  15.401  10.586  13.433  0.0161 -0.1433 -0.0975
 6296W        W23143  12.600  11.228   4.722 -0.1205  0.3210 -0.0545
 6297W        W23144   4.894   3.113   1.241 -0.0684  0.2924 -0.0042
 6298W        W23145  11.363  13.681   3.925  0.1981  0.0621  0.2818
 6299W        W23146   1.105   0.251  13.894  0.3630 -0.0121  0.3045
 6300W        W23147  14.715   5.146  11.763 -0.0354  0.1350 -0.0855
 6301W        W23148  14.011   4.412  12.123 -0.1097  0.1537  0.0765
 6302W        W23149  14.950  13.768  14.291 -0.1282 -0.2662 -0.1473
 6303W        W23150   4.486  11.200   5.021 -0.0764  0.3284 -0.2540
 6304W        W23151   1.614  12.104   1.052  0.2639 -0.2769  0.0813
 6305W        W23152   0.464   6.686  13.952  0.1422  0.4001  0.3484
 6306W        W23153   2.435  17.009   0.826  0.2241 -0.0104  0.1168
 6307W        W23154   1.643   4.846  14.921 -0.0248  0.3034  0.4937
 6308W        W23155   0.386  13.014   3.604  0.0063  0.3131 -0.1052
 6309W        W23156   5.098   3.820   1.723 -0.0348 -0.1064  0.0209
 6310W        W23157   0.225  11.472  15.663 -0.0349 -0.1865  0.0547
 6311W        W23158  14.861  15.905  15.788 -0.1014 -0.2817  0.1037
 6312W        W23159  12.074  13.184   2.261  0.1821  0.2649 -0.3452
 6313W        W23160   9.723   6.082  14.743  0.1466  0.2704 -0.2708
 6314W        W23161   0.985   0.875  13.273  0.0824 -0.2167 -0.2129
 6315W        W23162   6.681   1.475  15.857  0.1044  0.0789  0.1587
 6316W        W23163   7.150  17.479  12.019 -0.0456  0.1281  0.3256
 6317W        W23164   9.231  14.012   2.883  0.1030 -0.0274 -0.3774
 6318W        W23165   2.372  13.012   0.299  0.1297 -0.0353  0.1806
 6319W        W23166   9.956  11.682   2.636 -0.1644  0.0312  0.1300
 6320W        W23167  11.198   2.745  13.074  0.0401  0.1513  0.3061
 6321W        W23168   4.588   6.485  14.538 -0.1559  0.3181 -0.0766
 6322W        W23169  11.514  12.107  12.435  0.1186  0.3649  0.2077
 6323W        W23170   4.185   0.717   5.541  0.1745  0.0402  0.1312
 6324W        W23171   8.564   9.227   0.598  0.1930  0.2849  0.1844
 6325W        W23172  16.142   1.561   3.092  0.3083  0.3423  0.1080
 6326W        W23173  15.152  14.347  12.558  0.1816  0.0718 -0.1507
 6327W        W23174  11.466   6.927   6.494 -0.3793  0.0779  0.2018
 6328W        W23175   7.806  17.617  12.061 -0.3097  0.1885  0.1279
 6329W        W23176   7.460  14.545   4.727  0.0994 -0.1425 -0.0072
 6330W        W23177   2.068   9.521  15.772 -0.1037  0.0014  0.1025
 6331W        W23178   4.037   8.860   4.305  0.0874 -0.0094  0.0292
 6332W        W23179   3.157   2.381  14.250  0.0650 -0.2476  0.1663
 6333W        W23180   5.843  17.178  15.524  0.0225 -0.0509  0.2521
 6334W        W23181   5.838  12.989  14.855 -0.1153 -0.4194  0.0437
 6335W        W23182  14.989  14.998  15.863 -0.0078 -0.1504 -0.0457
 6336W        W23183   2.599   3.444  16.454  0.1718 -0.1317  0.0509
 6337W        W23184  15.115  16.789  14.473 -0.3157 -0.0796 -0.1754
 6338W        W23185  17.677  15.608  12.201  0.0034  0.0484 -0.1701
 6339W        W23186   5.912   8.166   3.687 -0.0611 -0.2769  0.0368
 6340W        W23187   3.490   3.029   5.115  0.0657  0.1280  0.2276
 6341W        W23188  12.939   5.357  15.569 -0.1509  0.0194  0.0419
 6342W        W23189   3.436   5.739  15.042  0.1093 -0.0732 -0.3453
 6343W        W23190  13.008  12.877  13.362  0.0106 -0.1042 -0.2406
 6344W        W23191   9.629   0.419  12.559  0.1190 -0.2579 -0.1517
 6345W        W23192  16.066  11.529  15.794 -0.1978  0.1588 -0.0629
 6346W        W23193   9.134   7.932   1.652 -0.2946 -0.0987 -0.2410
 6347W        W23194   8.687  17.024  11.746  0.1411 -0.4966  0.4208
 6348W        W23195   2.572   5.017  14.283  0.0310 -0.0571  0.0107
 6349W        W23196   2.874  13.652  16.037  0.1041  0.0746  0.1276
 6350W        W23197   1.822   1.115   5.389  0.3667 -0.0638 -0.1146
 6351W        W23198  11.052   6.356  13.957 -0.0873  0.0284 -0.3197
 6352W        W23199  11.565  11.103  11.322  0.1141 -0.0072 -0.2124
 6353W        W23200  11.208  14.029  13.004 -0.3547  0.1151 -0.2060
 6354W        W23201   8.260   5.529   5.276  0.2635 -0.1369 -0.0176
 6355W        W23202   2.499   4.892  16.126 -0.1715  0.0955 -0.0994
 6356W        W23203   7.182   8.169   2.229 -0.1477  0.0750 -0.1728
 6357W        W23204   3.507   1.582  15.916 -0.1098 -0.0299  0.1124
 6358W        W23205  12.531   9.114  12.496 -0.2786 -0.1177  0.0913
 6359W        W23206   1.235  18.029   0.495  0.1986 -0.1097  0.1613
 6360W        W23207  10.710   5.170   0.866 -0.0769  0.2519  0.1849
 6361W        W23208  14.215  17.461  11.944 -0.2173  0.0470 -0.3516
 6362W        W23209  10.984   9.259  16.440 -0.3546  0.1910  0.1040
 6363W        W23210  10.653   1.946  14.913 -0.0216  0.0366  0.1230
 6364W        W23211   7.200   7.572  12.977 -0.4241  0.1197 -0.5327
 6365W        W23212   4.067  14.609  13.197  0.1415 -0.2522 -0.0288
 6366W        W23213   9.739   1.879   0.768 -0.0396  0.0862  0.1681
 6367W        W23214  15.728   2.406  11.771  0.0556  0.0471 -0.0494
 6368W        W23215  12.659   8.639  12.640 -0.1118  0.1890 -0.2507
 6369W        W23216  11.680  11.908  15.961 -0.2083 -0.1434 -0.0932
 6370W        W23217   6.326  11.482   4.080 -0.0956  0.1686  0.0549
 6371W        W23218  13.374   9.644   3.098 -0.0696  0.2346 -0.1061
 6372W        W23219   6.029   4.754   2.011  0.1864  0.1072  0.3943
 6373W        W23220   1.771  10.303   5.754 -0.1568 -0.1083 -0.1287
 6374W        W23221  13.878   1.475   3.152  0.2015 -0.0102  0.0594
 6375W        W23222   5.500  11.260  12.197 -0.0896 -0.1918  0.1231
 6376W        W23223   0.804   0.781  15.447  0.2433  0.0045  0.1018
 6377W        W23224   8.025  16.502   1.309 -0.0737 -0.1405  0.1189
 6378W        W23225   7.303   4.057  15.944 -0.0952  0.1766  0.1043
 6379W        W23226  13.643   4.186  15.407  0.1266 -0.1204 -0.1863
 6380W        W23227  12.035  16.171  14.065 -0.0024  0.3186  0.1187
 6381W        W23228  16.609  12.187   1.920  0.0505 -0.1281  0.0051
 6382W        W23229   7.664   5.793   4.153  0.0448 -0.0595  0.2295
 6383W        W23230  15.067   1.092  13.435  0.0529 -0.1361  0.1775
 6384W        W23231   2.827   6.482   1.263  0.3820 -0.1157  0.4383
 6385W        W23232  16.309   9.819  12.839  0.1895 -0.0735 -0.1351
 6386W        W23233  15.442  17.176  10.217  0.0846  0.0567  0.2250
 6387W        W23234  10.523   9.897  11.458 -0.0949  0.0607  0.1094
 6388W        W23235   5.752   3.708  16.631 -0.0508  0.2952  0.0913
 6389W        W23236   5.601   7.844   4.742 -0.3915 -0.0777 -0.3762
 6390W        W23237  15.976  16.468  13.192  0.2722 -0.1820  0.1658
 6391W        W23238   1.112  11.422  12.348 -0.1398  0.2019 -0.1710
 6392W        W23239  14.748  11.687  13.677  0.0692 -0.1515 -0.1909
 6393W        W23240  16.008   7.458  12.365  0.5542  0.2076  0.1436
 6394W        W23241   8.831   0.143  11.996  0.2154 -0.0859  0.0445
 6395W        W23242   8.257  14.354  15.108  0.1852 -0.1093 -0.0971
 6396W        W23243  17.864   6.993   5.420 -0.1351 -0.1379  0.0028
 6397W        W23244  10.795  17.902  11.659  0.2468 -0.1563  0.2204
 6398W        W23245   3.187   6.190   2.348  0.1229  0.1986  0.3293
 6399W        W23246   1.790   6.865   4.499 -0.2573  0.0688  0.2709
 6400W        W23247   1.115  11.840  15.180 -0.1978  0.0982  0.1465
 6401W        W23248  14.718  11.873   0.032 -0.1222 -0.1004  0.3671
 6402W        W23249  11.077  10.275   6.110  0.2093  0.1618 -0.2950
 6403W        W23250  17.855  17.949   3.918  0.0745 -0.1696  0.1001
 6404W        W23251   2.828   7.877   3.355  0.0701 -0.1410 -0.0295
 6405W        W23252   9.827   0.511   1.124  0.0364  0.0520 -0.3290
 6406W        W23253   7.546  10.395  16.223  0.0019  0.1985 -0.0842
 6407W        W23254  13.729  16.294  16.150  0.0941  0.0942  0.2370
 6408W        W23255  11.180   9.034  13.767  0.3865 -0.2265  0.0936
 6409W        W23256   8.596   1.754  13.978 -0.1455 -0.1351  0.0850
 6410W        W23257   7.987  12.892   4.872  0.0134 -0.0994  0.0155
 6411W        W23258   2.747  13.019   4.005 -0.0607 -0.0604  0.0320
 6412W        W23259  13.659   5.408   5.000  0.0631  0.2338  0.0651
 6413W        W23260   4.130  12.879  16.421 -0.1333  0.0360  0.4670
 6414W        W23261  17.809  17.594  13.835 -0.3122  0.1410 -0.0572
 6415W        W23262  15.770  13.927   5.376 -0.0985 -0.1086  0.1158
 6416W        W23263   5.788   0.120  16.356 -0.0948  0.2892 -0.1352
 6417W        W23264  12.424   0.798  12.692 -0.1674  0.3485 -0.2679
 6418W        W23265  18.072  15.394  13.040  0.1828 -0.0652  0.2441
 6419W        W23266  14.531  14.925  11.111 -0.1421  0.0526 -0.1614
 6420W        W23267   2.849  12.637  13.474  0.1994 -0.2519 -0.0492
 6421W        W23268   3.414  16.242  13.996 -0.3870 -0.0430  0.2218
 6422W        W23269   7.505  12.080   2.316  0.0340  0.0963  0.0152
 6423W        W23270  16.273   8.611  16.250 -0.1559  0.1326  0.0116
 6424W        W23271   5.993   0.069   0.462 -0.0834 -0.2448 -0.2709
 6425W        W23272   6.510   8.499  12.645  0.2870 -0.2611  0.0622
 6426W        W23273   0.557   5.086  12.059  0.2560  0.1179  0.1501
 6427W        W23274   6.887  13.018  14.650  0.0233 -0.1988  0.1427
 6428W        W23275  12.766  15.960   5.444 -0.2007  0.1379 -0.0162
 6429W        W23276   8.336  13.594   2.300  0.1419  0.0551  0.1004
 6430W        W23277  14.412   9.537   2.658  0.1521 -0.3154 -0.1584
 6431W        W23278  10.789   4.211  15.430 -0.1984 -0.0259 -0.0639
 6432W        W23279   9.459   1.819   0.231  0.0534 -0.0403 -0.0652
 6433W        W23280  16.418  16.391   4.407 -0.2915 -0.0631  0.1799
 6434W        W23281   9.570   4.693  15.962  0.0029 -0.1378  0.1524
 6435W        W23282   9.306  16.258   2.067  0.1272 -0.0848 -0.0292
 6436W        W23283  10.936   6.693  12.344 -0.2323 -0.1556 -0.3337
 6437W        W23284  11.497   2.202  16.005 -0.0557 -0.0390 -0.0748
 6438W        W23285  17.687  11.757   2.400 -0.0323  0.2270 -0.1560
 6439W        W23286  15.228  15.998   5.797  0.0287 -0.1929  0.1843
 6440W        W23287  10.332   2.143   2.190  0.0742  0.2990  0.0622
 6441W        W23288   8.494   8.543  16.073 -0.0074  0.0799 -0.1149
 6442W        W23289  14.528   3.929   0.914  0.1264  0.0453  0.0902
 6443W        W23290   8.053  13.493   3.175 -0.0583 -0.2173  0.0633
 6444W        W23291  17.132  15.987   0.540  0.2587  0.0650  0.1033
 6445W        W23292   8.060   9.932   6.328 -0.0087  0.1190 -0.4498
 6446W        W23293   7.108   7.197  16.215  0.0862 -0.2012  0.4172
 6447W        W23294   8.033   8.846  14.460 -0.1594 -0.1261  0.1973
 6448W        W23295  12.831   4.631  14.703  0.0019  0.1303 -0.2558
 6449W        W23296  12.066   1.775  11.443 -0.3071 -0.1269 -0.0515
 6450W        W23297  16.738  17.854   4.659  0.0367 -0.1375 -0.1741
 6451W        W23298   6.704  11.929  14.358 -0.0099 -0.0329  0.1601
 6452W        W23299  14.746   9.964   3.012 -0.0191 -0.2234 -0.2439
 6453W        W23300  11.925  12.629  14.983 -0.1303 -0.1245 -0.0980
 6454W        W23301   3.621  13.484   4.317  0.0331  0.1121 -0.1058
 6455W        W23302  13.081   1.727  11.292  0.1019 -0.2319  0.2420
 6456W        W23303  11.198  13.139   2.165  0.0942  0.0305 -0.1721
 6457W        W23304   0.699  15.235   4.364  0.3182  0.0798 -0.0655
 6458W        W23305   4.306  10.762  15.148  0.0250 -0.0075 -0.0352
 6459W        W23306   7.014  10.648  13.163  0.1436 -0.2249 -0.1759
 6460W        W23307   0.917  10.540   0.393  0.1321 -0.0737 -0.1602
 6461W        W23308   9.962  14.296  12.445 -0.0330 -0.2788  0.2584
 6462W        W23309  11.981   4.281  16.156  0.1137  0.0165  0.0230
 6463W        W23310   9.741  15.454   3.465 -0.0887  0.4164  0.1948
 6464W        W23311   6.262   0.017  15.591 -0.1396  0.3082 -0.0560
 6465W        W23312   6.081  13.362  15.714 -0.1854 -0.0417  0.2941
 6466W        W23313   2.921  16.148  16.534  0.2254 -0.0358  0.2416
 6467W        W23314  17.512  10.585   1.702 -0.3943 -0.0848  0.2534
 6468W        W23315   5.834  10.538   4.093 -0.0733  0.0440 -0.1585
 6469W        W23316   1.748   2.045  11.257  0.1742 -0.0659  0.1461
 6470W        W23317  14.606   5.215   5.098 -0.1363  0.1604  0.1037
 6471W        W23318  16.551   2.319   2.059 -0.2121  0.1314  0.4822
 6472W        W23319   7.324  11.383  14.266  0.2076  0.0385  0.0048
 6473W        W23320   6.305  15.311  15.498  0.0149  0.3254  0.1166
 6474W        W23321   4.156   6.368  14.175  0.0433 -0.2488  0.1520
 6475W        W23322  16.414   7.945   2.514 -0.2773 -0.1100  0.1139
 6476W        W23323   1.431  16.459  16.031 -0.1715  0.0860  0.0174
 6477W        W23324   2.264   9.332   0.877 -0.0554 -0.0052  0.2248
 6478W        W23325   4.055  11.011  12.621 -0.2230  0.2901 -0.1483
 6479W        W23326  16.657  11.836  16.680 -0.1575 -0.2203  0.2540
 6480W        W23327  17.248  13.528   3.206 -0.0712 -0.1262  0.1836
 6481W        W23328  16.845  13.607   4.017  0.4790 -0.2183  0.1397
 6482W        W23329   2.163  16.964  14.603  0.1437  0.2517 -0.4894
 6483W        W23330   8.513  10.204  16.030 -0.0508  0.2094  0.0492
 6484W        W23331   9.391   0.569   4.732  0.5652 -0.1117  0.2680
 6485W        W23332   9.333  11.686   0.484 -0.1612  0.1325  0.5467
 6486W        W23333   8.386   9.428   0.167 -0.2357 -0.0565  0.0251
 6487W        W23334  11.842   6.562   4.973 -0.0441  0.1318  0.2122
 6488W        W23335  14.564   4.435  15.158  0.0225 -0.0955 -0.2121
 6489W        W23336   7.683  14.138  15.942  0.1076 -0.2511 -0.0616
 6490W        W23337  17.109   3.275   4.701  0.0656  0.1848  0.4195
 6491W        W23338  13.784  13.907  14.381 -0.0578 -0.0437 -0.1927
 6492W        W23339  17.218   7.492  15.448  0.2613  0.2511  0.2514
 6493W        W23340   9.719  12.390  12.257 -0.2616  0.1046  0.1147
 6494W        W23341  16.207   2.305   1.025 -0.0304 -0.1615 -0.1214
 6495W        W23342  12.020  15.630  11.155 -0.0173 -0.2387  0.0050
 6496W        W23343   8.756   5.249   1.232  0.1051  0.0579  0.0051
 6497W        W23344   3.357  12.269   5.511  0.0469 -0.2449  0.0262
 6498W        W23345   0.852  14.170  14.961  0.3079  0.0488 -0.0602
 6499W        W23346  11.121  11.832  12.300 -0.2000 -0.2223  0.2537
 6500W        W23347   6.301  10.920  14.782  0.4386  0.3056  0.1682
 6501W        W23348   9.211   8.478   0.832 -0.2057  0.1362 -0.1946
 6502W        W23349   0.249   0.607  15.472 -0.2318  0.4105  0.4271
 6503W        W23350   5.081   2.596  12.667  0.1335  0.0850  0.1786
 6504W        W23351  14.035  16.548  14.498 -0.2322  0.0957 -0.1598
 6505W        W23352  14.415  13.006   5.627 -0.2580  0.0772  0.0169
 6506W        W23353  17.771   9.653  16.015 -0.0443 -0.2096 -0.0908
 6507W        W23354   7.875   9.865   0.629 -0.3739 -0.0144  0.3693
 6508W        W23355   9.390   6.825  12.400  0.0128 -0.1459  0.0289
 6509W        W23356  12.273   5.170   0.564  0.2404 -0.0519  0.4144
 6510W        W23357   0.521   8.294   1.581 -0.1123 -0.0842 -0.0353
 6511W        W23358   1.950   2.716   3.412 -0.0182 -0.1262 -0.1414
 6512W        W23359  12.960   4.708  12.251  0.1953  0.1013 -0.0418
 6513W        W23360   9.946  11.037  13.557 -0.0732  0.0316 -0.2545
 6514W        W23361   1.560  14.333   5.942 -0.2060  0.0199  0.1256
 6515W        W23362   8.178   4.420   5.018  0.0961  0.2403 -0.2846
 6516W        W23363  16.121   4.412   2.188  0.5718  0.0580 -0.0348
 6517W        W23364  10.342   5.556  12.587 -0.2002  0.0534  0.0219
 6518W        W23365  12.415  14.221   3.823 -0.2329 -0.1044 -0.0791
 6519W        W23366   3.577  12.628   4.798  0.0443  0.2018 -0.2799
 6520W        W23367  16.096   6.419  11.724 -0.0709 -0.0104  0.0311
 6521W        W23368  13.273   3.090  14.000 -0.1516  0.1831  0.0542
 6522W        W23369  11.388   5.229   4.062 -0.5902  0.0271 -0.0194
 6523W        W23370   9.237   6.487   3.356  0.1592  0.3606 -0.0488
 6524W        W23371   4.654   9.050  12.836  0.2337  0.0046  0.0693
 6525W        W23372   6.754   7.779  12.172  0.0616 -0.1344  0.2838
 6526W        W23373   3.197   7.720   1.464 -0.3033  0.1750 -0.0452
 6527W        W23374   1.834   8.441  12.181 -0.0063 -0.0455  0.4446
 6528W        W23375   7.481   1.270  14.834 -0.0771 -0.2089  0.0337
 6529W        W23376  14.782   3.823  12.116  0.0711  0.2077  0.0497
 6530W        W23377  12.072   2.458   0.810 -0.1374  0.0765 -0.1210
 6531W        W23378   7.573  11.469   1.467 -0.0439  0.3426 -0.2106
 6532W        W23379   4.824   9.571  15.270 -0.0011  0.2534  0.2456
 6533W        W23380   8.853   0.943  15.664  0.1259  0.1098  0.2378
 6534W        W23381  15.439  14.492   0.518 -0.1350  0.2810 -0.3197
 6535W        W23382   6.306  11.852   3.192  0.1078 -0.2271  0.0170
 6536W        W23383  11.864   6.959  14.871  0.0313 -0.0543  0.2650
 6537W        W23384   4.462   2.234  15.058 -0.2007  0.1180 -0.1425
 6538W        W23385  13.397  11.679  12.973 -0.1962 -0.0608 -0.4858
 6539W        W23386  10.142  17.446   1.103 -0.3211 -0.0405  0.0228
 6540W        W23387   9.910  15.789  16.297 -0.2512  0.1074 -0.1065
 6541W        W23388  17.834  17.002   0.196 -0.1108 -0.0798 -0.0580
 6542W        W23389   4.631   7.249   4.094  0.1456 -0.1715 -0.0722
 6543W        W23390   6.478   6.650  13.392  0.1231  0.0000 -0.0559
 6544W        W23391   4.372  10.699   4.970 -0.0061  0.1911 -0.1194
 6545W        W23392   8.597  12.752  12.805 -0.2952  0.3276 -0.1185
 6546W        W23393  16.624   7.945  13.944  0.0141  0.2307 -0.0899
 6547W        W23394   3.114   4.709  12.772  0.0786  0.1737  0.0917
 6548W        W23395   8.168   9.465  15.064 -0.0910 -0.0267 -0.0124
 6549W        W23396  12.083   8.238   0.960 -0.0435 -0.0529  0.0128
 6550W        W23397  17.088   7.195  11.827  0.3040  0.0841  0.3629
 6551W        W23398   5.556  11.828   2.390  0.1232  0.0010 -0.0078
 6552W        W23399  17.538  15.564   6.068 -0.0108 -0.1795 -0.1246
 6553W        W23400  17.041   0.646   1.715 -0.1169  0.0293 -0.1966
 6554W        W23401  13.456  17.060  14.001  0.0161 -0.0693 -0.3128
 6555W        W23402   9.315   0.730  12.857  0.2416  0.3466  0.0165
 6556W        W23403   1.584   6.838  15.818 -0.3329  0.0150  0.1633
 6557W        W23404  11.846   6.092  16.378 -0.0455 -0.0987  0.0103
 6558W        W23405  16.896   4.855  15.938 -0.4855  0.0422  0.0788
 6559W        W23406   2.105  11.583  14.975 -0.1508 -0.1369  0.3483
 6560W        W23407   3.660   3.369  11.964  0.0135  0.1823  0.4244
 6561W        W23408  13.941  13.016   0.610  0.3273  0.3655 -0.4261
 6562W        W23409   2.207  12.107  14.992 -0.2503 -0.2955 -0.1730
 6563W        W23410  10.377  12.381   0.350  0.1854  0.0020 -0.0226
 6564W        W23411   3.150  12.552   0.115 -0.1750  0.0547  0.0372
 6565W        W23412   8.257  10.859   1.520  0.0670  0.1281 -0.1764
 6566W        W23413   3.080  10.638  12.984 -0.1587  0.3789  0.0547
 6567W        W23414  15.706   8.571   0.282  0.0295  0.1626 -0.2047
 6568W        W23415   2.008   0.698   4.102  0.0204 -0.0009  0.0368
 6569W        W23416   0.775   3.804   5.283  0.1173 -0.0618  0.1436
 6570W        W23417  10.892   5.657   3.631 -0.3455 -0.1023  0.1201
 6571W        W23418  15.430  14.124   4.831 -0.4746 -0.2979  0.0404
 6572W        W23419   2.263   5.523   4.892 -0.0876  0.1144  0.0011
 6573W        W23420  11.615   8.262  14.429  0.1247  0.1010 -0.1286
 6574W        W23421  11.340  13.234  12.481 -0.1688 -0.0615  0.1317
 6575W        W23422  10.387   0.015   4.548  0.0861 -0.3155 -0.0757
 6576W        W23423   3.395  17.556   0.234  0.2395 -0.1789  0.0057
 6577W        W23424   5.597   6.598   5.482  0.1035  0.1384 -0.3600
 6578W        W23425  11.259  16.305  11.152 -0.1627  0.4113  0.1554
 6579W        W23426   8.279   0.776  16.380 -0.0961  0.0719  0.0080
 6580W        W23427   3.167   7.406  12.025  0.0964  0.0197 -0.1074
 6581W        W23428   0.817  13.264  14.533  0.1346  0.1199  0.6972
 6582W        W23429  13.028   6.741  13.853 -0.2189  0.0143 -0.0218
 6583W        W23430   2.064  10.257   1.227 -0.1195 -0.1778  0.1268
 6584W        W23431  17.882   3.642   3.489  0.1044  0.1824 -0.2766
 6585W        W23432   1.475   4.757  12.322 -0.0727 -0.4445 -0.1742
 6586W        W23433  10.562  10.048  15.881 -0.1899 -0.1824  0.1141
 6587W        W23434  15.748   6.172  12.106 -0.2743 -0.0124 -0.1616
 6588W        W23435   1.165   0.493  15.645  0.0030  0.1823  0.2254
 6589W        W23436  10.843   4.609   3.155 -0.1098  0.0284  0.2224
 6590W        W23437  11.300  14.851   1.923 -0.0326 -0.1572 -0.2370
 6591W        W23438  15.992  13.988  13.016  0.1297 -0.3917 -0.1593
 6592W        W23439  16.674   9.624   0.260  0.1909  0.1718  0.1182
 6593W        W23440   0.522   2.955  12.821  0.1297 -0.1661 -0.1287
 6594W        W23441   9.936   5.707   3.324  0.0673 -0.1456 -0.1948
 6595W        W23442  16.283  15.356  13.732 -0.0623  0.0440  0.1429
 6596W        W23443  11.259  14.422   0.711  0.2076  0.2756  0.4089
 6597W        W23444   7.117   0.180  14.156 -0.1581 -0.0489  0.3968
 6598W        W23445  17.357   7.540  12.916  0.3058 -0.0129 -0.2974
 6599W        W23446   5.835  15.691  14.554  0.1923  0.0706  0.3140
 6600W        W23447   1.470   9.822  14.071 -0.0531  0.0961  0.1407
 6601W        W23448   6.849   9.652  14.471 -0.0306  0.1977  0.1041
 6602W        W23449   3.319   0.429  13.167  0.2257 -0.3095 -0.2335
 6603W        W23450   4.810   2.945   3.355  0.2765  0.1965 -0.0642
 6604W        W23451   0.069   9.764  12.746  0.3525 -0.1164 -0.1383
 6605W        W23452   4.396   7.584  13.244 -0.0522 -0.0493 -0.0229
 6606W        W23453  14.131  16.994  10.965 -0.0621 -0.2040 -0.2182
 6607W        W23454  14.813   6.777  16.423  0.1882  0.0942  0.1401
 6608W        W23455  15.964  11.523   3.629 -0.0526 -0.0914 -0.1274
 6609W        W23456   1.059   4.813   0.511  0.0384 -0.0544  0.0153
 6610W        W23457   5.070  14.003  12.123 -0.0868 -0.1430  0.0583
 6611W        W23458   6.186   1.244   5.583  0.0579  0.1124  0.3359
 6612W        W23459   7.589   9.435   5.258 -0.0741 -0.3165 -0.0216
 6613W        W23460  15.367  11.786   4.003 -0.2403 -0.0293  0.0566
 6614W        W23461   8.141   5.389   3.413  0.0395  0.0249 -0.3507
 6615W        W23462  16.820   6.726  13.681 -0.0540  0.0632 -0.1572
 6616W        W23463   1.841  14.653  12.527 -0.1069  0.1562  0.1512
 6617W        W23464   4.445  14.365  15.783 -0.0714 -0.2612 -0.1210
 6618W        W23465   4.741  11.358  11.683  0.4889  0.0067  0.0092
 6619W        W23466  12.170  13.589  15.737  0.0683  0.2961  0.3471
 6620W        W23467   2.660   3.641  11.291  0.1600  0.2035  0.0743
 6621W        W23468  11.171  12.532  11.687 -0.0691  0.0594 -0.0356
 6622W        W23469  11.219  13.010   5.145  0.3132 -0.1641 -0.0013
 6623W        W23470   7.423   3.302   3.647 -0.4007 -0.0748  0.2315
 6624W        W23471   8.126  13.996   3.171  0.3489  0.1683  0.0002
 6625W        W23472   0.773   5.536   0.766  0.1231 -0.0857 -0.0055
 6626W        W23473   4.537  10.063   1.030 -0.0695 -0.2385 -0.1439
 6627W        W23474   7.217  17.430  13.228 -0.0200  0.0365  0.1100
 6628W        W23475  10.817   5.333  14.291  0.1484  0.0846 -0.1481
 6629W        W23476  11.901  17.217  15.067 -0.0039 -0.1399  0.2176
 6630W        W23477   5.664  12.321   0.426 -0.1612 -0.2865  0.1307
 6631W        W23478   5.998  13.711  12.235  0.3734 -0.0135  0.0075
 6632W        W23479  16.062   5.440  11.564 -0.1541 -0.5847 -0.2312
 6633W        W23480   2.779   1.733   2.102 -0.0397 -0.3743  0.2552
 6634W        W23481   6.311  17.525   1.128 -0.1396 -0.0050  0.0280
 6635W        W23482  13.064   2.440  12.266  0.2170 -0.2940  0.2584
 6636W        W23483   1.262  10.308  16.577  0.2125 -0.1102 -0.1055
 6637W        W23484  12.197   0.758  13.183 -0.1741  0.2312 -0.0025
 6638W        W23485   0.380  14.637   1.017 -0.1448  0.2444 -0.2446
 6639W        W23486  15.081   9.299   5.566  0.0233 -0.1673 -0.0208
 6640W        W23487   3.733  17.314   5.556  0.0524 -0.2448  0.5371
 6641W        W23488  12.010   7.073   4.022  0.0868  0.0057 -0.0800
 6642W        W23489  13.452   0.773  13.741  0.0477 -0.2905  0.0232
 6643W        W23490  13.536  17.074  15.840  0.3312 -0.1630 -0.4130
 6644W        W23491   6.743  13.437  15.860  0.0331  0.2516  0.0657
 6645W        W23492   4.458   4.752  11.547  0.1042 -0.0083 -0.3136
 6646W        W23493   0.283  12.224   2.571 -0.1527  0.0746 -0.2028
 6647W        W23494  13.420   4.336   0.087  0.0258 -0.5007 -0.2975
 6648W        W23495  14.540   0.382   1.387  0.1427 -0.1983 -0.1115
 6649W        W23496  13.880  16.947   4.364  0.2064  0.1616  0.0670
 6650W        W23497  11.230   4.056   2.354  0.0593 -0.1083  0.1480
 6651W        W23498   7.417  12.413   5.544  0.2213  0.0144 -0.3333
 6652W        W23499   6.676   4.127  15.207  0.1738  0.0751  0.0775
 6653W        W23500   3.120  15.552  12.781 -0.1856 -0.2491 -0.0796
 6654W        W23501  16.406   7.044  13.724  0.0622  0.0493  0.0749
 6655W        W23502   7.814  10.776  12.371  0.0635  0.0650 -0.0485
 6656W        W23503   5.968   4.855  16.019  0.1699  0.1751  0.1045
 6657W        W23504   8.692  16.077  15.573  0.2354 -0.2309 -0.0018
 6658W        W23505   6.562  12.798   5.595 -0.0920  0.0967  0.0374
 6659W        W23506   6.363   3.815  12.366 -0.1322  0.0394 -0.5512
 6660W        W23507   3.285  13.921  15.982  0.0747  0.1396 -0.0932
 6661W        W23508  14.094   9.585   1.728  0.1078 -0.1709  0.0734
 6662W        W23509  10.082  17.572  16.195  0.0571 -0.1188  0.0519
 6663W        W23510  15.179   4.514   0.978 -0.0519  0.0634 -0.1606
 6664W        W23511  13.215   6.725  15.348  0.0159  0.0539  0.0861
 6665W        W23512  10.951  15.508  11.255  0.0766 -0.2482 -0.1456
 6666W        W23513  14.662   9.696  16.617  0.0642  0.0782  0.1738
 6667W        W23514   1.036   5.338  16.117  0.0428  0.4605 -0.2820
 6668W        W23515   3.605   3.210  13.975 -0.2820 -0.2660 -0.3164
 6669W        W23516   9.159  12.033   0.044 -0.1320 -0.3997 -0.0425
 6670W        W23517   6.754   1.432   4.446 -0.0481  0.2340  0.1941
 6671W        W23518   2.552   5.366  16.111 -0.0853 -0.0969  0.1203
 6672W        W23519   6.537  12.474   1.504  0.0097  0.0696 -0.0577
 6673W        W23520   0.273   8.146   1.144 -0.0716  0.1168  0.3002
 6674W        W23521   5.122   9.390   1.443 -0.1300 -0.0302 -0.1656
 6675W        W23522   9.213   2.024  13.005 -0.1619 -0.0304 -0.2815
 6676W        W23523  14.756   3.756   1.349  0.0275  0.2391  0.1442
 6677W        W23524   7.739  15.372  16.173  0.0030  0.3521  0.0206
 6678W        W23525   4.756  17.974  15.283  0.2717 -0.1663 -0.2738
 6679W        W23526  12.544   9.704   4.546  0.0940  0.0078  0.0128
 6680W        W23527  15.903  11.828   4.037  0.0346  0.1258 -0.0377
 6681W        W23528   9.371   5.088  16.185  0.2457  0.2419  0.0194
 6682W        W23529  10.116   1.217   0.246 -0.0580 -0.1113 -0.1932
 6683W        W23530  11.319   9.553   3.047  0.1869  0.0676  0.2125
 6684W        W23531  13.676   0.276   2.451 -0.2007 -0.0822 -0.1798
 6685W        W23532   1.775  17.715  12.586  0.2484 -0.3509 -0.2232
 6686W        W23533  14.732  17.250   2.461  0.0769 -0.0918 -0.1898
 6687W        W23534  13.614   8.815   1.211 -0.1905  0.1366  0.0310
 6688W        W23535  10.257   3.048   4.279  0.0234  0.0501 -0.0975
 6689W        W23536   9.005  14.506   5.535  0.0341  0.3388  0.0149
 6690W        W23537   0.280   4.112  14.366  0.1547  0.0404 -0.3030
 6691W        W23538  12.916  11.363   3.834 -0.0204  0.2220  0.0893
 6692W        W23539  15.256   1.669   2.507  0.4282  0.2407 -0.3318
 6693W        W23540   2.240   7.778  14.599  0.1324  0.1370 -0.0305
 6694W        W23541   7.854  14.660  15.268  0.0103  0.2349 -0.0018
 6695W        W23542   2.576   5.011   4.665 -0.0198 -0.1001  0.1816
 6696W        W23543   2.959   7.066  15.137 -0.0209 -0.1550 -0.0886
 6697W        W23544  11.713  14.829  14.637 -0.0300 -0.0574  0.0385
 6698W        W23545  18.070  11.018  13.558 -0.0021 -0.0832 -0.2305
 6699W        W23546   6.659   7.985   0.449 -0.0162 -0.0193  0.0068
 6700W        W23547  10.142  14.630   3.909  0.2137 -0.0046 -0.5636
 6701W        W23548  11.436  11.467   0.894  0.0142 -0.0913  0.1839
 6702W        W23549   6.164  16.696  13.380  0.0694  0.3236 -0.1382
 6703W        W23550  16.479   8.929  11.530  0.0564 -0.5075 -0.3182
 6704W        W23551   7.952  13.012  16.635 -0.0056 -0.0510 -0.2013
 6705W        W23552   8.784   9.080   4.345  0.1152  0.2284 -0.1139
 6706W        W23553  11.883  13.100   3.404 -0.3470  0.1419 -0.0162
 6707W        W23554   0.438   0.410   4.540  0.2452 -0.0153 -0.1669
 6708W        W23555  13.106  10.242   2.801  0.1689 -0.2401  0.1169
 6709W        W23556  16.522   7.915   4.367  0.0835  0.0179 -0.3030
 6710W        W23557  12.285   9.840   2.630 -0.1355  0.3979  0.0120
 6711W        W23558   1.421   2.700  12.638  0.0559  0.3709 -0.0116
 6712W        W23559  16.496   3.865   5.961  0.0716  0.1942 -0.0635
 6713W        W23560  15.226  14.042   1.031 -0.0109 -0.2105 -0.0444
 6714W        W23561   9.193   7.336   1.647 -0.0799 -0.0827 -0.0253
 6715W        W23562   1.324  14.711  12.836  0.2924  0.0796  0.0894
 6716W        W23563   4.596   1.872   2.389 -0.1277  0.2010  0.0713
 6717W        W23564  10.791   8.226  15.896 -0.1517  0.2868  0.1374
 6718W        W23565   1.006   4.337  14.003 -0.0582  0.1049  0.0030
 6719W        W23566   9.535   9.636   4.597 -0.0800 -0.0957  0.1862
 6720W        W23567  15.849  13.390  16.364 -0.3232 -0.2260  0.1894
 6721W        W23568  10.380  13.796  14.243 -0.1860 -0.4405  0.1678
 6722W        W23569   7.786  11.876   2.999 -0.3612  0.2135  0.2395
 6723W        W23570   0.726   2.460  15.752  0.2463  0.1643  0.0024
 6724W        W23571  13.499   3.693   4.916 -0.5164  0.0196  0.1492
 6725W        W23572  17.027   0.963   5.465 -0.0388 -0.2026 -0.5899
 6726W        W23573   6.325  12.512   1.032 -0.1367 -0.3414 -0.1240
 6727W        W23574  16.189   1.494  12.868 -0.0299 -0.1298 -0.0255
 6728W        W23575  12.781   4.454   3.842  0.0538 -0.0658  0.0465
 6729W        W23576  14.960  10.500   0.050  0.1131 -0.0973  0.0934
 6730W        W23577   2.449   7.114   0.588 -0.1429 -0.1054  0.3905
 6731W        W23578   5.084  10.132  13.992  0.0311  0.1098 -0.1121
 6732W        W23579   6.924  15.228  15.297  0.0547  0.1536 -0.2513
 6733W        W23580   2.271   9.391   3.305  0.2677  0.3748  0.0968
 6734W        W23581   5.271  10.600  14.110  0.0329  0.4368  0.0853
 6735W        W23582  10.737   0.794  12.241 -0.0748  0.2663  0.2809
 6736W        W23583   3.113   7.365   6.515 -0.0953 -0.0793 -0.0047
 6737W        W23584   7.918   3.976   0.388 -0.0508 -0.0020  0.0801
 6738W        W23585  12.146  15.693  15.868  0.0614  0.2168  0.2164
 6739W        W23586   0.305  10.719   1.302 -0.3077  0.0933 -0.1032
 6740W        W23587   1.358  12.296  12.489 -0.0937 -0.0071  0.1081
 6741W        W23588  17.164  10.108  11.816  0.1647 -0.1887 -0.0392
 6742W        W23589  18.063  13.865  11.829  0.2061  0.0410  0.2081
 6743W        W23590   8.910   5.842   4.691  0.0888  0.0170 -0.0586
 6744W        W23591  10.405  14.379   2.183 -0.1526  0.0990 -0.0940
 6745W        W23592   4.457   1.380   2.289 -0.1272 -0.0437  0.0784
 6746W        W23593   2.986   8.950   0.507 -0.0114 -0.1409 -0.3078
 6747W        W23594  13.097  12.189   4.371 -0.1377  0.0374  0.0511
 6748W        W23595  17.546   6.936   0.854 -0.2330  0.0252 -0.1166
 6749W        W23596  15.984  16.534  15.736 -0.2575  0.0453 -0.1334
 6750W        W23597   8.241  14.910   1.897 -0.2259  0.3202  0.0359
 6751W        W23598  17.469  10.215  12.261 -0.2461  0.2576 -0.0427
 6752W        W23599   6.919  13.375   4.191  0.0140  0.1378  0.2220
 6753W        W23600   8.800   0.640  12.783  0.2334  0.3512 -0.1868
 6754W        W23601  10.572   5.105   2.750 -0.1027 -0.0468 -0.2229
 6755W        W23602  15.748   1.143   5.096 -0.1558  0.1062  0.2267
 6756W        W23603  12.603   4.188   3.323 -0.2668 -0.3807  0.2412
 6757W        W23604  13.552   8.746  16.493  0.0471 -0.2838 -0.3293
 6758W        W23605  10.011  14.656   2.217  0.0001 -0.0450 -0.0513
 6759W        W23606   4.006  12.167  11.153 -0.0853 -0.0765  0.2599
 6760W        W23607   0.419   8.624   1.181 -0.0237 -0.1973  0.0124
 6761W        W23608  10.439  16.499   0.887 -0.0832 -0.3743  0.0847
 6762W        W23609  14.264   0.069  15.715  0.2557 -0.1967  0.0902
 6763W        W23610   7.725  13.021   4.403  0.1479  0.2899  0.2127
 6764W        W23611  16.554  11.890  14.038 -0.0064  0.1707  0.0957
 6765W        W23612   0.905   7.115   2.827 -0.1576 -0.0689  0.1246
 6766W        W23613  15.624   5.959   0.065 -0.2406 -0.0444 -0.1859
 6767W        W23614   0.493  15.660   4.664 -0.0920  0.4135 -0.1683
 6768W        W23615   2.399  13.883  14.039  0.0669 -0.2402  0.1620
 6769W        W23616   5.304  12.150  12.068  0.2094 -0.1100 -0.2074
 6770W        W23617   9.273  12.798   4.278  0.0403  0.1540  0.0335
 6771W        W23618   7.893   0.049   0.929  0.3075 -0.2415  0.1379
 6772W        W23619   4.752   8.691  14.193  0.2371 -0.1275  0.0317
 6773W        W23620  16.638   5.443   1.375  0.1043  0.3159  0.2357
 6774W        W23621  17.143   2.540   0.814 -0.2506 -0.1697  0.2362
 6775W        W23622   5.467   1.599  15.546  0.2765 -0.1168 -0.0944
 6776W        W23623  15.636  17.056   2.124 -0.2778 -0.1467 -0.1810
 6777W        W23624  16.213  15.197   2.097 -0.0825  0.0328  0.1878
 6778W        W23625  11.062   6.087   5.525 -0.0013  0.1591 -0.2627
 6779W        W23626   8.201   1.067   3.201 -0.2601  0.1198  0.1811
 6780W        W23627   4.329  16.064  13.504  0.0753 -0.0703  0.0223
 6781W        W23628  13.525   8.889  15.984 -0.0338 -0.0695  0.0546
 6782W        W23629  16.746  11.311  16.335  0.3534  0.2876  0.4312
 6783W        W23630   0.827   5.709   0.326 -0.1265 -0.2175 -0.0515
 6784W        W23631   9.739   7.237  14.421 -0.0740  0.0839 -0.1202
 6785W        W23632   6.910  10.077   4.242 -0.0682  0.1511 -0.1493
 6786W        W23633  14.271  11.951  14.965 -0.2250 -0.4103  0.1384
 6787W        W23634   4.930  15.016   3.956  0.2082  0.3477 -0.3615
 6788W        W23635   3.719   2.754  11.979  0.0428  0.1952  0.1680
 6789W        W23636   2.785  14.526   4.367 -0.3479 -0.2533  0.4605
 6790W        W23637   9.210  15.190  15.218 -0.2327 -0.2946  0.4884
 6791W        W23638  14.646   2.181  15.418  0.1012 -0.1798  0.3060
 6792W        W23639  15.966   5.405   4.369  0.0273  0.1039 -0.3541
 6793W        W23640  10.998  11.581   2.914 -0.1839  0.0616 -0.0746
 6794W        W23641   2.963   7.270   2.818 -0.3589 -0.0302  0.2722
 6795W        W23642  11.337  14.912  14.300  0.0400 -0.0714 -0.1538
 6796W        W23643   6.338   6.030   0.222  0.2356 -0.0144 -0.2030
 6797W        W23644  17.895  10.194  16.151 -0.0750  0.3744 -0.0468
 6798W        W23645   3.443   6.696  12.058 -0.2361  0.3416 -0.0692
 6799W        W23646  11.603  16.978  10.729 -0.0174 -0.0672  0.0522
 6800W        W23647   6.753  12.919  16.097  0.0285  0.1283  0.1507
 6801W        W23648   6.262  11.113   0.093 -0.0197 -0.0948  0.0979
 6802W        W23649   8.763   4.466  14.192 -0.0565  0.3950  0.2064
 6803W        W23650   5.079   2.473  11.071  0.1658 -0.0913  0.0109
 6804W        W23651  12.265  12.770  13.829 -0.0117 -0.1694  0.2419
 6805W        W23652   1.881   7.456   3.520 -0.0540  0.0480  0.0811
 6806W        W23653  18.057  11.303   4.750 -0.1136  0.0342  0.0855
 6807W        W23654   3.257   6.731  16.494  0.1705 -0.0593 -0.1325
 6808W        W23655   9.695   4.354  12.361 -0.3330  0.0486 -0.3201
 6809W        W23656  12.128   9.889   0.344 -0.2301  0.0085  0.0089
 6810W        W23657   2.904   2.971  15.081  0.2222 -0.3042 -0.0025
 6811W        W23658   8.417  11.600   4.228 -0.1252 -0.1423  0.1205
 6812W        W23659   9.445   0.779  16.364 -0.3691  0.0980 -0.1847
 6813W        W23660  11.606   9.924   3.258  0.0647 -0.0752  0.0351
 6814W        W23661  14.226  15.291   1.013 -0.0065 -0.0629  0.0210
 6815W        W23662  11.365   1.109   2.032  0.2411 -0.1092  0.1111
 6816W        W23663   7.547  15.708  13.033 -0.1327 -0.0501 -0.2039
 6817W        W23664   9.741  16.032   1.045  0.1300  0.0337 -0.0673
 6818W        W23665   0.199   5.263   3.718  0.3770 -0.1978 -0.0750
 6819W        W23666  15.572   4.971  12.071 -0.3072  0.0391 -0.1790
 6820W        W23667  14.380  14.501  16.122 -0.0129  0.0390  0.1451
 6821W        W23668  12.601  15.932   1.090 -0.0313  0.1370  0.1493
 6822W        W23669  12.735   1.641  16.662  0.1264  0.0423  0.0427
 6823W        W23670   9.772   9.608   5.660 -0.3196  0.1312  0.1662
 6824W        W23671   1.816  13.969   1.802  0.3796  0.0472 -0.0194
 6825W        W23672  16.423  17.374   2.456 -0.0600 -0.1552 -0.0010
 6826W        W23673   1.886  12.268  13.232  0.1859  0.2654  0.1255
 6827W        W23674  10.551   6.714   1.311 -0.0813  0.1181  0.1190
 6828W        W23675   3.786  10.811  11.775  0.0672 -0.1096 -0.1330
 6829W        W23676   5.446  13.450  13.930  0.1460 -0.1633  0.0710
 6830W        W23677  10.318  10.303  13.300  0.0990  0.4213  0.0581
 6831W        W23678   4.149   7.480   2.114  0.3336 -0.2558  0.3248
 6832W        W23679  13.047   1.501   5.203  0.4970 -0.4192  0.0253
 6833W        W23680  10.716  11.281   0.518 -0.2751 -0.1039 -0.0662
 6834W        W23681  11.380  15.187  13.145 -0.0293 -0.1523 -0.0572
 6835W        W23682   4.586  11.537   1.025 -0.2428  0.1738 -0.2371
 6836W        W23683   6.959   8.870   4.865 -0.2296  0.0717 -0.2512
 6837W        W23684   4.247  11.457  12.350  0.0191  0.1927  0.0954
 6838W        W23685   5.237   5.822  15.655  0.2141  0.1160  0.0334
 6839W        W23686   8.673   8.270  14.752 -0.2941 -0.0712 -0.3732
 6840W        W23687   0.438   3.029  14.661 -0.2569 -0.1691 -0.0000
 6841W        W23688   9.899  11.361  15.192 -0.1731  0.0499  0.1126
 6842W        W23689   0.117   5.664  13.201 -0.1316  0.1875  0.0617
 6843W        W23690  14.212  15.173  13.528 -0.0081  0.0597 -0.4250
 6844W        W23691   3.283   0.089   2.818 -0.1201 -0.0489 -0.1324
 6845W        W23692   6.720  12.234  11.541 -0.1252 -0.1304  0.0067
 6846W        W23693  13.442   7.542   3.018 -0.1489  0.0839  0.1158
 6847W        W23694   0.660   4.226  14.780 -0.3236 -0.2671 -0.1346
 6848W        W23695   5.878  14.126  13.656 -0.2554 -0.1174  0.2751
 6849W        W23696   6.219   3.089  16.431 -0.1408  0.0131  0.0835
 6850W        W23697  12.101  16.358  15.137 -0.2057 -0.0654  0.1479
 6851W        W23698   1.688  15.833   2.060  0.2022 -0.0020 -0.0344
 6852W        W23699   8.881   4.021   4.911  0.0765 -0.0723  0.1167
 6853W        W23700  16.827  13.957  12.808 -0.3524  0.3620 -0.0007
 6854W        W23701   3.662   4.287   0.377  0.2708  0.0027  0.0504
 6855W        W23702  13.168   8.357   1.108 -0.0190  0.2218 -0.2444
 6856W        W23703   5.979   4.024   5.321 -0.0542 -0.0056  0.1594
 6857W        W23704  17.864   0.953   4.642 -0.0324 -0.1266 -0.0084
 6858W        W23705  10.397   1.370  12.544  0.1858  0.0260 -0.1706
 6859W        W23706  11.738   8.490  13.927 -0.0654 -0.1617  0.0186
 6860W        W23707  17.287   5.420  12.774 -0.1070 -0.0753 -0.0091
 6861W        W23708   8.145  11.824  15.355 -0.3688  0.3517  0.0266
 6862W        W23709  13.987   2.584   0.061 -0.4683  0.0456  0.0948
 6863W        W23710   7.132   7.394   1.455 -0.2444 -0.0658 -0.1607
 6864W        W23711  11.433  13.627  14.377 -0.2015  0.1578  0.3056
 6865W        W23712   6.144  16.252  13.778 -0.2719 -0.1339  0.1074
 6866W        W23713   0.906  13.114   1.659 -0.2114 -0.0692  0.0152
 6867W        W23714  16.601  13.018  14.956  0.0031 -0.0187 -0.1514
 6868W        W23715  15.597   6.148  11.326  0.1138  0.1342  0.1169
 6869W        W23716   6.242   0.704   5.775  0.1978 -0.1302  0.1019
 6870W        W23717  11.441  12.431   0.500  0.1813  0.1391 -0.1403
 6871W        W23718   0.200  15.367  16.597 -0.2662 -0.1898 -0.0063
 6872W        W23719   2.754  10.896   1.611 -0.0011  0.0950  0.1895
 6873W        W23720   6.684  13.846  14.093  0.1042  0.4177 -0.3765
 6874W        W23721  14.926   6.196  11.629  0.1778  0.0433  0.0210
 6875W        W23722  18.057  15.566  15.644 -0.0617 -0.1073  0.3523
 6876W        W23723   1.750   5.452  13.826  0.2017 -0.3586  0.1967
 6877W        W23724  14.767  15.879   1.630 -0.0383 -0.1808  0.2653
 6878W        W23725   7.427  12.388   1.178  0.0561 -0.1323 -0.1369
 6879W        W23726  11.620   0.517   0.476  0.0678  0.2059  0.1785
 6880W        W23727   0.552   5.748  14.777  0.1429 -0.0733 -0.2581
 6881W        W23728   9.913   2.320  16.211 -0.4517  0.4844  0.1274
 6882W        W23729  17.791   5.269   2.348  0.3095  0.1252  0.1164
 6883W        W23730  10.543   3.996   0.033  0.0325 -0.0023  0.0778
 6884W        W23731   5.131   2.425  16.684  0.2101  0.0193 -0.0797
 6885W        W23732  13.116  14.329  13.995 -0.0724  0.2276  0.0155
 6886W        W23733   4.977  13.947   2.299  0.2337 -0.0591 -0.3234
 6887W        W23734   2.442   8.053   3.049 -0.3007 -0.1096  0.2290
 6888W        W23735  16.510  14.241  14.554  0.2215 -0.0877 -0.0144
 6889W        W23736  13.282   7.102   1.672  0.0656 -0.1413  0.1209
 6890W        W23737   3.961   9.454   5.346  0.0675  0.0795  0.0820
 6891W        W23738   0.278  12.559   5.436 -0.1649  0.0233  0.0088
 6892W        W23739  11.346  15.635   3.798  0.1096 -0.1009 -0.2078
 6893W        W23740   5.254   7.906   2.306  0.3479  0.1964 -0.0138
 6894W        W23741  13.250   4.602  15.364 -0.1498 -0.1721 -0.0825
 6895W        W23742   4.861   7.913   5.122  0.1511 -0.1654 -0.2144
 6896W        W23743  13.789   1.910   3.386 -0.0651 -0.0711 -0.1532
 6897W        W23744  11.971   0.772  15.876 -0.2756 -0.2351  0.3501
 6898W        W23745   1.579   5.603   1.891 -0.1641 -0.1803 -0.1197
 6899W        W23746   4.145   9.028  15.812 -0.3545  0.1011 -0.4573
 6900W        W23747   6.001   6.885  15.797 -0.0571 -0.1608  0.0997
 6901W        W23748   0.804  12.297   1.926 -0.0581 -0.0596  0.1713
 6902W        W23749  11.844   8.907   3.240 -0.0609 -0.0752 -0.0450
 6903W        W23750   8.806   6.346   4.198  0.0190  0.0485 -0.1039
 6904W        W23751  14.449   5.765   5.099  0.0450 -0.0545 -0.3289
 6905W        W23752  17.417  12.310  14.447  0.0078  0.1945  0.2844
 6906W        W23753  11.334   9.632  16.388  0.0954  0.1997  0.1368
 6907W        W23754   5.707   7.424  16.657  0.0445  0.0428  0.1264
 6908W        W23755   5.992  15.077  13.692  0.1853  0.0669 -0.0832
 6909W        W23756   1.041   6.765  14.438 -0.2190  0.0412 -0.1758
 6910W        W23757  15.747   9.826   0.009  0.0579 -0.0046  0.0251
 6911W        W23758  14.523   8.419  13.198 -0.0798 -0.0781  0.1125
 6912W        W23759   5.567  13.738  16.334 -0.0330  0.0644  0.0848
 6913W        W23760  12.502  16.421   0.044  0.0929  0.1434 -0.0237
 6914W        W23761   3.239  12.415   3.544  0.2671  0.0450  0.0720
 6915W        W23762  11.460   4.910   0.297  0.1386 -0.1823 -0.1348
 6916W        W23763   1.435   8.148   0.489 -0.4638 -0.1495 -0.3161
 6917W        W23764   1.667   3.492  13.972  0.0641  0.0354 -0.0893
 6918W        W23765   1.937   8.707   3.794  0.1756  0.0481  0.1405
 6919W        W23766  14.605  12.450  13.041  0.0506  0.2167  0.0505
 6920W        W23767  16.570  17.284  15.623 -0.1190 -0.1898 -0.1065
 6921W        W23768   6.305   0.590  13.766  0.0745 -0.0161  0.1477
 6922W        W23769   6.002  15.254   0.877 -0.0060  0.0047 -0.0757
 6923W        W23770   8.797   1.767   5.849  0.0021 -0.1440 -0.2631
 6924W        W23771   5.360   0.512  12.994  0.0825  0.1771 -0.3259
 6925W        W23772   4.303   3.994  12.423 -0.1559 -0.0906  0.4078
 6926W        W23773   3.050  13.703   0.714 -0.0413  0.0605  0.0137
 6927W        W23774   2.156  13.381  16.649 -0.0251 -0.0041  0.0558
 6928W        W23775   9.698  16.524   2.405  0.2596 -0.4217  0.1382
 6929W        W23776   8.072   8.113  12.136  0.3029  0.3923  0.2281
 6930W        W23777   9.138   3.875  11.975  0.1168 -0.1291 -0.2934
 6931W        W23778   8.891  16.483  14.869 -0.2172  0.1722 -0.4411
 6932W        W23779   0.996   6.661   1.040 -0.1454 -0.2981  0.2005
 6933W        W23780   0.426   5.039   4.261  0.0228 -0.0651  0.1405
 6934W        W23781   5.113   9.261  12.977 -0.0156 -0.1306 -0.1544
 6935W        W23782   0.849   9.027  15.595  0.0555 -0.0796  0.1352
 6936W        W23783   6.407  11.254   2.275 -0.0355 -0.1041  0.1467
 6937W        W23784   7.230   7.230  12.576 -0.0551  0.1169  0.1882
 6938W        W23785  17.704   3.864   2.003  0.1723 -0.2717 -0.0882
 6939W        W23786  15.373   8.099  14.772  0.0728  0.0642 -0.0236
 6940W        W23787   7.069   1.352   5.376  0.2341 -0.0694 -0.0599
 6941W        W23788   5.932   5.950  11.737 -0.0768 -0.1578  0.1952
 6942W        W23789  12.850  16.939   4.691 -0.1736 -0.0341 -0.0017
 6943W        W23790   5.446   0.615  15.020  0.0726  0.0825  0.0729
 6944W        W23791   4.769  15.519  13.484  0.1749 -0.0513 -0.1929
 6945W        W23792  11.155  16.159  14.081 -0.1957 -0.0280  0.1496
 6946W        W23793   6.183  14.124  16.122 -0.0853  0.1150  0.1271
 6947W        W23794   7.330   0.038   0.143 -0.2075 -0.1411 -0.0034
 6948W        W23795   5.829   2.523  13.964  0.0521 -0.0710 -0.2954
 6949W        W23796   2.985   5.313  12.447  0.1264  0.2810 -0.0660
 6950W        W23797   0.180  11.678   4.991 -0.0469  0.2409 -0.1262
 6951W        W23798  17.105   0.399  16.524 -0.0079  0.2638  0.1179
 6952W        W23799   8.372   8.361   0.622 -0.0782  0.0712 -0.0129
 6953W        W23800   0.215  15.238   4.621 -0.0015 -0.1642  0.0387
 6954W        W23801   5.585  14.251  13.275  0.2582 -0.1177  0.0274
 6955W        W23802   7.476  17.506   0.108 -0.4076  0.1270 -0.0145
 6956W        W23803  13.621   8.746  14.760  0.1035  0.0188 -0.1501
 6957W        W23804   3.674  16.377  14.387  0.1212 -0.3056  0.1584
 6958W        W23805  13.840   1.156  13.770  0.2330  0.2249  0.5529
 6959W        W23806  12.866   3.115  12.878  0.1072 -0.0432 -0.0814
 6960W        W23807   4.930  17.757   4.087 -0.3955  0.0200  0.0341
 6961W        W23808   0.490   1.233  16.089 -0.1916 -0.3894  0.0284
 6962W        W23809   9.650  11.136   1.140  0.4333 -0.0759  0.0745
 6963W        W23810  16.888  12.853  16.303 -0.0482 -0.0148  0.0310
 6964W        W23811   1.872   1.735  11.640  0.0089 -0.1385  0.2044
 6965W        W23812   0.636   2.765  11.115 -0.1462 -0.0081  0.1353
 6966W        W23813   7.800   3.610  14.173 -0.2536  0.0252  0.0596
 6967W        W23814   3.425   2.878  14.289 -0.0095 -0.0539 -0.1320
 6968W        W23815  15.845   7.828  12.766  0.0032 -0.3472 -0.0554
 6969W        W23816  10.223   0.907  14.228  0.0990  0.1661  0.0485
 6970W        W23817   2.716   2.651   2.460 -0.2018 -0.2779  0.0506
 6971W        W23818  12.587  17.321  14.360 -0.0888  0.0395 -0.2931
 6972W        W23819  15.199   7.235   2.748 -0.1293  0.0550  0.3451
 6973W        W23820   5.799   0.468   4.077  0.2188 -0.1254  0.1915
 6974W        W23821   8.587   4.095   1.577 -0.1670 -0.0481 -0.0269
 6975W        W23822   9.972   5.815   4.585  0.0661 -0.2064 -0.1879
 6976W        W23823   2.232   7.799   0.356  0.2291  0.0807 -0.2969
 6977W        W23824  15.643   3.573   1.386  0.0050 -0.0874  0.1896
 6978W        W23825   7.013   2.885   5.759 -0.1149 -0.3538 -0.2018
 6979W        W23826   6.089   5.179  12.389  0.1746  0.1356  0.0921
 6980W        W23827   0.997  12.333   0.326  0.1182  0.3342 -0.0280
 6981W        W23828   5.342   6.596   1.210  0.1782 -0.0270  0.1356
 6982W        W23829   3.215  15.432   0.734  0.0132 -0.0004 -0.3068
 6983W        W23830  16.185   6.167   5.536  0.0005 -0.1632  0.1369
 6984W        W23831  11.646  13.149   1.934 -0.0149  0.3180  0.0623
 6985W        W23832  10.756   3.435  15.039  0.3369 -0.1344 -0.4736
 6986W        W23833  12.402   9.047   3.981 -0.0577  0.1545  0.0683
 6987W        W23834   4.648   6.142  13.665  0.2186  0.0342 -0.0763
 6988W        W23835  12.232   8.177   3.894  0.2375  0.0148 -0.2807
 6989W        W23836  13.185  13.766  12.235  0.0548 -0.1897  0.0223
 6990W        W23837   8.878   7.055   4.773  0.1879 -0.1157 -0.2155
 6991W        W23838   4.009   2.720   1.801 -0.0176 -0.1297 -0.1785
 6992W        W23839   2.333   2.991   2.752  0.1849  0.3097  0.2885
 6993W        W23840  10.295   9.008  11.982 -0.0956 -0.1920 -0.3728
 6994W        W23841  14.741  17.080   4.617 -0.0619  0.1501  0.4259
 6995W        W23842   0.316  15.462   5.113  0.3372 -0.2952 -0.0922
 6996W        W23843   5.547   8.562  12.664 -0.1428  0.0113 -0.1874
 6997W        W23844   2.259   0.820   3.086 -0.1044  0.1860  0.4433
 6998W        W23845   4.958  14.596   3.162  0.1326 -0.0661 -0.0897
 6999W        W23846   4.524  15.380   3.829 -0.0152  0.1898  0.1411
 7000W        W23847   5.353  10.081  15.739  0.2652 -0.1626 -0.2166
 7001W        W23848  15.715   2.770  15.122 -0.0957  0.2060  0.1430
 7002W        W23849   0.305   3.477   2.464  0.1770 -0.0193 -0.0361
 7003W        W23850   9.922   2.555   3.256  0.0493  0.0789 -0.1503
 7004W        W23851   5.637   7.282  14.879  0.2311 -0.0940  0.2069
 7005W        W23852   7.513   8.410  15.809 -0.2778 -0.0933  0.0766
 7006W        W23853   2.991  14.403  11.771 -0.0175  0.4172  0.2177
 7007W        W23854  10.084   4.402  14.978  0.0575  0.2493  0.0569
 7008W        W23855   9.970   9.414  12.126 -0.0350  0.3719  0.0762
 7009W        W23856   1.707   9.566  13.692  0.1228  0.1569  0.3712
 7010W        W23857   2.213  16.246   4.173  0.2278 -0.0572 -0.1627
 7011W        W23858   0.574  10.023  15.044 -0.1484  0.0061  0.3785
 7012W        W23859  16.660   0.164  11.672 -0.0558  0.1565  0.3526
 7013W        W23860   8.401   7.188   5.182 -0.6196 -0.4216  0.0374
 7014W        W23861   4.471   4.202   5.790  0.1874 -0.1210  0.3065
 7015W        W23862  12.168   8.766  12.733  0.2536  0.0605 -0.1938
 7016W        W23863   1.331   4.014  12.970 -0.2617 -0.0011  0.1873
 7017W        W23864  11.326  10.422   0.172 -0.0495 -0.3269  0.0746
 7018W        W23865   7.508   6.735   5.181 -0.0412 -0.0186  0.0777
 7019W        W23866   5.529   1.608   4.845  0.0595  0.1159 -0.0530
 7020W        W23867  16.964  14.434  14.723  0.0395 -0.1938  0.2714
 7021W        W23868   9.819  17.720   1.329  0.1781  0.4084 -0.4199
 7022W        W23869   3.236   0.779  14.159  0.2461 -0.0893  0.0413
 7023W        W23870  16.592   5.829   6.218 -0.1191  0.1932  0.3689
 7024W        W23871   6.218  15.327   1.454  0.2768  0.0553 -0.2322
 7025W        W23872  16.031   9.434  12.097  0.1029  0.0653 -0.1716
 7026W        W23873   0.537  13.526   1.714 -0.1371 -0.1084 -0.0020
 7027W        W23874  12.974   7.544   3.674  0.3153  0.0269 -0.2521
 7028W        W23875   6.492  12.877  16.548 -0.2042  0.0395  0.1545
 7029W        W23876   4.720  13.033  14.352 -0.2850  0.1980 -0.0078
 7030W        W23877  16.123   8.548   3.631  0.3404  0.0535  0.1203
 7031W        W23878  10.531  14.958  13.564  0.1864  0.1898 -0.1329
 7032W        W23879   9.245   6.451  14.257 -0.0837 -0.3608  0.0314
 7033W        W23880   2.145  13.433   1.985 -0.2026 -0.0098 -0.0334
 7034W        W23881  13.827   6.193  16.251  0.2197  0.1418  0.0939
 7035W        W23882  13.287   5.683  13.661  0.1036 -0.1422 -0.4390
 7036W        W23883   9.287   8.833   3.120  0.1027  0.1321 -0.1997
 7037W        W23884   7.540  16.940   0.342  0.1223  0.2650  0.0507
 7038W        W23885   9.415  15.561   0.617 -0.0392  0.0075  0.0400
 7039W        W23886   5.582   5.663  11.892  0.2130  0.1951  0.0848
 7040W        W23887   8.396  12.948   1.883 -0.3727  0.2535  0.1876
 7041W        W23888  11.618   4.210  14.438 -0.0352  0.0322  0.2360
 7042W        W23889   4.304   1.872  15.439  0.2812 -0.3040  0.0923
 7043W        W23890   3.346  10.136   5.007  0.3348 -0.0685  0.0222
 7044W        W23891  16.908  11.486   0.955 -0.0167 -0.1671 -0.0510
 7045W        W23892  10.471   3.663  14.143 -0.1426  0.1420 -0.3580
 7046W        W23893   0.852  11.526  14.412 -0.2319  0.0775  0.1491
 7047W        W23894  14.933  17.950   4.153 -0.0139  0.0712 -0.0374
 7048W        W23895   9.935   5.237  12.530 -0.0907 -0.1773  0.2152
 7049W        W23896  15.234  17.394   1.678 -0.1582 -0.2633 -0.1082
 7050W        W23897   0.973  10.212   5.231  0.0597 -0.1309 -0.0203
 7051W        W23898   2.107  14.025   4.785  0.0002 -0.1503 -0.1577
 7052W        W23899   7.496   5.302  14.201  0.2672  0.2222 -0.0586
 7053W        W23900  15.998   9.800   2.340 -0.1177 -0.2102 -0.1858
 7054W        W23901  15.858   9.351  14.249 -0.0206 -0.2734  0.2273
 7055W        W23902   1.583   5.057  11.904  0.1095  0.0762 -0.3212
 7056W        W23903   2.108  15.537  12.768  0.0813  0.0674  0.2771
 7057W        W23904  10.657  11.949   0.364  0.2025  0.2037 -0.2423
 7058W        W23905   4.959   6.929   5.091  0.0789 -0.0906 -0.0870
 7059W        W23906   6.989  11.737   4.857 -0.1869 -0.0101  0.1214
 7060W        W23907   8.087   4.022  14.100 -0.1725 -0.3206 -0.0412
 7061W        W23908   7.414   5.463   2.927 -0.1967 -0.0868  0.1817
 7062W        W23909   1.312  14.105  11.802 -0.4448  0.0163  0.2001
 7063W        W23910   0.208   8.627   5.247  0.2881 -0.2823  0.0075
 7064W        W23911  17.009   6.248  14.491 -0.1536 -0.1205 -0.0968
 7065W        W23912   3.332   1.661   4.204  0.0684  0.3004  0.3618
 7066W        W23913  10.727   0.555  15.038  0.0443 -0.0161 -0.0124
 7067W        W23914   9.192  14.523  13.963 -0.1300  0.0289 -0.1068
 7068W        W23915   3.600   6.331  12.390  0.0639  0.2771  0.1116
 7069W        W23916  12.689  13.925  12.890 -0.0218  0.1968 -0.1147
 7070W        W23917  12.909  14.483  13.527  0.2081  0.2494  0.0203
 7071W        W23918  14.215   5.632  15.602  0.0949  0.3054 -0.2927
 7072W        W23919  14.446  13.800  15.301 -0.2257  0.1816 -0.1408
 7073W        W23920   6.064   0.261  11.691 -0.2263  0.2056  0.0128
 7074W        W23921   9.977   7.599  14.916 -0.1625 -0.3245  0.1073
 7075W        W23922   3.154   2.601  13.426 -0.2537  0.1364 -0.4027
 7076W        W23923   3.875   2.042   2.855  0.1395  0.0247 -0.1426
 7077W        W23924   5.953   7.363  13.962 -0.1439  0.3006 -0.1658
 7078W        W23925   1.412   8.377   0.011  0.0656  0.1596 -0.0383
 7079W        W23926   1.638   9.286   4.817  0.2654 -0.1151  0.0613
 7080W        W23927  13.286  14.773  13.843 -0.2466 -0.2421  0.1991
 7081W        W23928   4.335  13.745  13.680 -0.0829 -0.0316 -0.0466
 7082W        W23929  16.848  10.094  16.009 -0.0977 -0.0764 -0.0320
 7083W        W23930   8.788  12.580  11.914  0.0642 -0.1736 -0.1021
 7084W        W23931   0.012   7.543  13.872  0.1954 -0.1756 -0.2996
 7085W        W23932  16.984  16.765   3.449 -0.3131 -0.0055 -0.0902
 7086W        W23933   1.893   9.821  14.541  0.1443  0.1245  0.0844
 7087W        W23934   0.640  13.344  11.489  0.1088 -0.0524  0.0311
 7088W        W23935  12.003   0.627   3.499 -0.3329 -0.2418  0.1465
 7089W        W23936  13.719  15.846  13.229  0.3324 -0.0919  0.0407
 7090W        W23937  17.867   1.836   1.977  0.0258 -0.0658 -0.0883
 7091W        W23938   9.646   9.478  15.642 -0.0093  0.0043  0.2716
 7092W        W23939   6.371   9.687   3.807 -0.1929  0.1523 -0.0804
 7093W        W23940  15.481   7.095  15.984  0.0987  0.2049 -0.2027
 7094W        W23941  15.282  16.179   1.021  0.2221  0.1383 -0.0212
 7095W        W23942  14.026  13.499   2.242  0.1438  0.2945  0.1765
 7096W        W23943   6.964   2.405   3.976  0.0599 -0.2353 -0.0165
 7097W        W23944  16.389  12.762   3.353 -0.0632  0.0780 -0.3059
 7098W        W23945   0.447   5.167   4.767 -0.0305 -0.3533  0.1378
 7099W        W23946  12.974   0.946   4.417 -0.2595 -0.2145  0.0574
 7100W        W23947   1.494   5.254  12.418  0.0944 -0.1184  0.0359
 7101W        W23948   3.449   9.074  16.364 -0.1487 -0.2538  0.0427
 7102W        W23949  17.147  11.430   1.467 -0.2510 -0.3031 -0.2754
 7103W        W23950   8.642   2.396   4.984  0.2850  0.1954 -0.2569
 7104W        W23951   9.394  10.414  14.745 -0.0703 -0.1659 -0.2526
 7105W        W23952   7.891  10.323   5.344  0.1079 -0.0586  0.3999
 7106W        W23953  17.048   6.434   1.504 -0.0254  0.0517  0.0856
 7107W        W23954   5.028   3.508  11.740  0.0671 -0.2473  0.2813
 7108W        W23955   9.627  17.387  13.022 -0.0175  0.2694 -0.0787
 7109W        W23956   3.451   3.468  10.984  0.1238 -0.1774  0.0456
 7110W        W23957   5.223   7.058  16.050 -0.0025 -0.2060 -0.2183
 7111W        W23958  13.482   4.868   1.743 -0.3562  0.3082  0.0561
 7112W        W23959  14.851   5.184   1.742  0.0814 -0.1679 -0.2118
 7113W        W23960   9.484  16.514  15.634 -0.2044 -0.1294 -0.0568
 7114W        W23961   7.777  12.812   3.921  0.1073 -0.3382  0.0398
 7115W        W23962   1.753  14.996  13.102 -0.3114  0.2711  0.0976
 7116W        W23963   5.298   9.726  13.708  0.0852 -0.0903  0.2048
 7117W        W23964   1.174   3.919  11.324  0.0436 -0.0674 -0.0247
 7118W        W23965  10.804  15.995   2.809 -0.1088 -0.1258  0.1727
 7119W        W23966  17.210  16.540   2.016 -0.4089  0.3272 -0.2304
 7120W        W23967   4.143   2.169   5.199  0.2509  0.3360 -0.0878
 7121W        W23968   9.322  11.225   3.946 -0.0869  0.0401 -0.0105
 7122W        W23969  10.253   7.304   4.896  0.0244  0.1548 -0.1385
 7123W        W23970  15.123   7.235   4.154  0.0269  0.2162 -0.2196
 7124W        W23971  15.500   6.812  13.527  0.1582  0.2274 -0.0969
 7125W        W23972   7.435  16.130  13.447  0.0041  0.1334 -0.0596
 7126W        W23973   6.831   2.650  14.040 -0.0594  0.0274 -0.0735
 7127W        W23974  17.994   3.401  16.519  0.0823 -0.2211 -0.2823
 7128W        W23975   2.034   5.330   3.310 -0.0329 -0.3343  0.2353
 7129W        W23976  15.187  10.826  12.728  0.0650 -0.0041 -0.0787
 7130W        W23977  14.985  15.804  14.906 -0.0112  0.1554 -0.0273
 7131W        W23978   6.958  16.920  13.991  0.0005  0.1460  0.0917
 7132W        W23979  14.033  14.369   5.610 -0.1135 -0.2152  0.0916
 7133W        W23980   4.394  15.922  12.782 -0.2272  0.0511  0.0032
 7134W        W23981  16.216   1.742   2.630 -0.0264 -0.1231  0.0679
 7135W        W23982  12.809   1.111   5.357  0.1334 -0.0395 -0.1404
 7136W        W23983  13.158   8.606  15.662  0.4048  0.1546  0.1388
 7137W        W23984   2.910  15.280  15.339 -0.2283  0.2470  0.4010
 7138W        W23985  17.456  12.039   5.293 -0.1558 -0.2722 -0.0182
 7139W        W23986  10.734  12.807   4.736  0.3541 -0.2061  0.0245
 7140W        W23987   5.070  16.474  14.638  0.4999  0.1469  0.0047
 7141W        W23988   1.726  10.979   2.435  0.2752  0.1449  0.0143
 7142W        W23989  17.380  14.874   5.397  0.3158 -0.0052 -0.1059
 7143W        W23990  10.727   7.990   1.166  0.2138  0.1553  0.1297
 7144W        W23991   6.624  10.225   2.836 -0.1434 -0.2172 -0.2055
 7145W        W23992  11.395   3.774   5.636 -0.1496  0.0824  0.1018
 7146W        W23993  16.247   6.511  15.550  0.1202  0.1496  0.1738
 7147W        W23994   6.657  16.506  14.001 -0.0225  0.1023 -0.0448
 7148W        W23995  11.009   4.682   2.706  0.2212 -0.2159  0.0648
 7149W        W23996   0.444  12.046   4.719  0.0042  0.1311  0.3612
 7150W        W23997   1.421  10.578   3.357 -0.0073 -0.1619  0.0265
 7151W        W23998  13.045   0.324  13.187  0.0415  0.2329  0.3762
 7152W        W23999  17.891   6.072   1.456 -0.2401 -0.0472 -0.2399
 7153W        W24000   0.149  17.380   2.476 -0.0197  0.2533  0.1441
 7154W        W24001  13.642   3.536   4.174  0.2525 -0.0045 -0.4084
 7155W        W24002  11.919   3.889   1.942 -0.1670 -0.2378 -0.0654
 7156W        W24003   7.853   2.829   0.276 -0.1091 -0.2349 -0.0891
 7157W        W24004   2.048  12.483  14.281 -0.2554  0.0710  0.1939
 7158W        W24005  16.758   9.492   4.436  0.0676 -0.2370 -0.1169
 7159W        W24006   5.846  16.563   3.158  0.3501 -0.2567 -0.0975
 7160W        W24007  15.268   3.567   4.039  0.0254  0.3432 -0.1111
 7161W        W24008  11.913  16.117   2.228 -0.2085 -0.1740  0.0015
 7162W        W24009   2.847   0.505  13.301 -0.1742  0.0624 -0.2601
 7163W        W24010   3.827  10.648  14.238  0.0374 -0.1232  0.1330
 7164W        W24011  12.588  16.123  14.902  0.2687 -0.2842 -0.2166
 7165W        W24012  16.748  14.168  15.506 -0.1826  0.1418  0.4064
 7166W        W24013   1.049   0.382  13.084  0.2376  0.0159  0.1436
 7167W        W24014  12.182  15.580   1.052 -0.0221  0.3649 -0.0246
 7168W        W24015   8.806  10.610  15.262 -0.0533 -0.1260  0.1663
 7169W        W24016  13.441  13.679   1.006  0.1702 -0.1697 -0.0011
 7170W        W24017   7.273  11.923   1.295 -0.1771  0.1989  0.0326
 7171W        W24018   5.070  15.082  16.044 -0.1061  0.1556  0.0025
 7172W        W24019  17.575  16.902  13.431  0.1939 -0.0538  0.0901
 7173W        W24020  11.193   5.491   1.094 -0.0383  0.0376 -0.1320
 7174W        W24021   8.089   1.688  13.069  0.1591 -0.1620  0.0952
 7175W        W24022   3.504  10.661  13.327 -0.3300  0.0180 -0.0783
 7176W        W24023  14.551   2.922   2.424 -0.0650  0.1131  0.2628
 7177W        W24024   1.853   3.804  11.808  0.2034  0.1467 -0.5575
 7178W        W24025   1.634  17.822   4.109 -0.0491  0.2564 -0.1342
 7179W        W24026  17.600   5.906   4.334 -0.0291 -0.1938 -0.1082
 7180W        W24027  12.469   2.146  16.639 -0.2470  0.1432 -0.1691
 7181W        W24028   3.385   1.631  13.501  0.0904  0.1415 -0.3363
 7182W        W24029   4.353  14.165  12.481  0.3887 -0.1694 -0.3253
 7183W        W24030   9.002   6.645   4.556  0.1258  0.0506  0.3964
 7184W        W24031  11.401  15.342   4.240  0.0684  0.1795 -0.0539
 7185W        W24032   3.413   9.317  13.465  0.2967 -0.0713  0.0105
 7186W        W24033   3.183  12.974   4.727  0.2495  0.3117  0.1868
 7187W        W24034   6.846   3.829   3.928  0.1157 -0.0928 -0.1539
 7188W        W24035   0.802   9.728   0.014  0.0738 -0.3247 -0.0690
 7189W        W24036   1.393   4.910   6.242 -0.3992  0.0633  0.1215
 7190W        W24037   8.354  12.807   4.486 -0.0875 -0.2209 -0.0248
 7191W        W24038  13.031  12.038  14.216 -0.2209 -0.0720 -0.1826
 7192W        W24039   3.360   6.529  13.976 -0.0975 -0.0315 -0.0671
 7193W        W24040   8.731   2.659   5.370 -0.0123  0.0605  0.2371
 7194W        W24041  14.995   1.890   0.983  0.0650 -0.1449 -0.3240
 7195W        W24042  14.731   0.711  12.463 -0.0810  0.1365  0.0318
 7196W        W24043   5.439   4.021   3.036 -0.0565  0.0804  0.1308
 7197W        W24044  11.554  15.016   1.140  0.1678 -0.1417  0.0986
 7198W        W24045  14.115  16.597   4.025  0.2722 -0.0079  0.0960
 7199W        W24046   5.994   1.706  13.329  0.1425  0.4028 -0.0418
 7200W        W24047  13.082  15.035  14.216 -0.1150 -0.0581  0.0139
 7201W        W24048  11.244  13.702  13.837  0.0292  0.1590  0.1498
 7202W        W24049   4.130  17.634  14.511  0.0333 -0.0595 -0.0662
 7203W        W24050  10.021  11.570   3.098  0.2175 -0.1527  0.1359
 7204W        W24051  11.582  13.458   4.868 -0.0464 -0.1332  0.1932
 7205W        W24052  10.557   7.430   4.148 -0.1032  0.1422  0.0354
 7206W        W24053  14.487  11.961   1.384 -0.1414 -0.0502  0.0284
 7207W        W24054  15.951   7.219  15.967  0.0673  0.0971  0.0333
 7208W        W24055  15.612   7.388  12.647  0.1884 -0.0458 -0.0870
 7209W        W24056   0.877   1.874   0.177 -0.1072 -0.0315 -0.0358
 7210W        W24057   2.394   8.216   1.342  0.0200  0.2801 -0.0039
 7211W        W24058  17.691   3.592  15.607 -0.4530 -0.3997 -0.0696
 7212W        W24059   2.574   6.765  15.005  0.0446 -0.0006  0.2189
 7213W        W24060  15.256   0.563  13.117  0.2720  0.0146 -0.1718
 7214W        W24061   3.182  10.762  16.494  0.1873  0.0603 -0.2967
 7215W        W24062  15.500   9.469   5.860 -0.1905  0.1377 -0.1831
 7216W        W24063   3.843   5.972  16.367 -0.2438 -0.0868  0.0780
 7217W        W24064   7.581  11.634  13.918  0.0749  0.1352 -0.3627
 7218W        W24065  12.279  10.322   4.764 -0.0636 -0.1362  0.1328
 7219W        W24066  17.926   2.238   0.059  0.0101  0.1743  0.2792
 7220W        W24067  10.808   2.034   1.364  0.0266  0.1632 -0.0050
 7221W        W24068   5.407  16.838  14.454  0.1667  0.1300  0.1358
 7222W        W24069   8.986   6.507   5.503 -0.0748  0.2414 -0.2264
 7223W        W24070  17.597  14.981  16.228  0.0290 -0.1349 -0.1867
 7224W        W24071  10.674   5.491   4.967 -0.2226 -0.0635 -0.2812
 7225W        W24072  17.250   0.481  11.804  0.1240 -0.0419 -0.0480
 7226W        W24073  11.078   7.857   5.763  0.0590  0.1354  0.0592
 7227W        W24074  14.589   2.631  15.768 -0.0078 -0.3927 -0.3346
 7228W        W24075   8.427  17.155   1.992 -0.1050 -0.0370  0.3061
 7229W        W24076  15.865  14.112  16.465  0.0134 -0.1145  0.1678
 7230W        W24077   9.666   7.060   1.774 -0.1406 -0.1164 -0.2003
 7231W        W24078   3.197   7.387   5.999  0.2923 -0.0629 -0.0380
 7232W        W24079  15.042  12.879   5.149 -0.3494  0.2834  0.0578
 7233W        W24080  12.254  17.642   5.296 -0.2190  0.0612  0.1400
 7234W        W24081  14.723   4.825   2.394  0.0678  0.0238  0.0417
 7235W        W24082  12.615   1.059  14.333  0.1194  0.0281  0.0219
 7236W        W24083  16.096   6.976   2.960 -0.0289 -0.2742  0.0756
 7237W        W24084  14.063   3.827  12.524 -0.2220  0.1855 -0.0371
 7238W        W24085   3.843  11.836   4.897  0.1157  0.0253 -0.2334
 7239W        W24086  14.146  13.857   4.495  0.1673 -0.1784  0.3775
 7240W        W24087   3.672   0.061  13.292  0.0834 -0.0239 -0.3109
 7241W        W24088  12.649  10.375  12.272  0.2369 -0.0280  0.1051
 7242W        W24089   7.635  11.117  13.486 -0.0734  0.1130 -0.1524
 7243W        W24090   8.299   1.566   0.210  0.1394  0.1787 -0.1489
 7244W        W24091   1.534  17.686  14.149 -0.1380  0.2947  0.2409
 7245W        W24092   4.667  17.063   5.278 -0.0739 -0.0270  0.0245
 7246W        W24093  15.357   8.299   1.868  0.0994 -0.1194 -0.2120
 7247W        W24094  12.398   4.764  13.316  0.1652 -0.4101 -0.0749
 7248W        W24095   2.659   1.953   0.457  0.2300  0.1345 -0.2746
 7249W        W24096  15.707   6.641  11.526 -0.2008  0.0588 -0.1569
 7250W        W24097  17.607   1.735  15.472 -0.2985  0.0744 -0.2697
 7251W        W24098   4.675   4.886   0.341  0.1978  0.3577  0.0721
 7252W        W24099  17.993  10.495  12.878 -0.2612 -0.1262  0.1326
 7253W        W24100  16.985  14.582  15.485  0.0937  0.2198  0.1658
 7254W        W24101  15.256   7.814   1.034 -0.1184  0.2549  0.0278
 7255W        W24102   5.032  16.492   5.531 -0.0413 -0.4422  0.0715
 7256W        W24103   6.342   7.501  12.299  0.0893 -0.1942 -0.2313
 7257W        W24104   1.029  10.173   5.800  0.0848  0.0129 -0.3812
 7258W        W24105   9.895   6.572  13.236  0.3080 -0.0229  0.2992
 7259W        W24106   0.336   4.151  16.082  0.0293  0.1194 -0.0786
 7260W        W24107  10.876   9.444   2.778  0.1550  0.0954 -0.0846
 7261W        W24108   7.889  14.268   1.627  0.0396 -0.2498 -0.0487
 7262W        W24109  11.115   7.475   3.577  0.2639 -0.0430 -0.0540
 7263W        W24110   2.830   3.009  15.553  0.2482  0.0863  0.0917
 7264W        W24111  14.704  15.380  15.033 -0.0652  0.0713 -0.1441
 7265W        W24112   2.144   8.010  11.805  0.0839  0.0012 -0.3995
 7266W        W24113   7.161   8.106   3.682  0.0503 -0.0713 -0.0001
 7267W        W24114  17.861   0.447   3.459  0.1658 -0.0562  0.1396
 7268W        W24115  11.528  13.873   5.157  0.2806 -0.1977 -0.2020
 7269W        W24116  12.379   8.566   3.064  0.1845  0.2607  0.1651
 7270W        W24117   5.627  15.102   5.583  0.1298 -0.0022 -0.1668
 7271W        W24118   3.365   4.092  11.537 -0.0487 -0.0589  0.1064
 7272W        W24119   6.048  12.277   1.412  0.2383 -0.1330  0.0461
 7273W        W24120   9.357   5.934  12.130  0.1094 -0.0199  0.0049
 7274W        W24121   5.556  12.088   1.076  0.0481 -0.1394 -0.1636
 7275W        W24122  10.840  17.703   3.068 -0.0630  0.1274 -0.1255
 7276W        W24123  12.636  13.487  15.557 -0.3663 -0.0320  0.1872
 7277W        W24124   1.963   7.722  13.442 -0.0331 -0.0218  0.0129
 7278W        W24125   6.612   9.642  11.144 -0.3105  0.2535  0.2327
 7279W        W24126   1.125  11.361  12.837 -0.0413 -0.1001  0.0513
 7280W        W24127   0.935  12.427   3.830 -0.0064 -0.0616 -0.0238
 7281W        W24128  11.518   2.403   2.050  0.2025 -0.0836  0.1929
 7282W        W24129  16.750   7.123  15.339  0.1184  0.1742  0.1980
 7283W        W24130  15.340   6.175  16.300  0.0349  0.4244 -0.1930
 7284W        W24131   5.466   8.716  14.211  0.1313  0.0970 -0.0572
 7285W        W24132  11.087  16.798   0.219  0.2330 -0.0845  0.0537
 7286W        W24133  10.003  10.040   3.171  0.1383 -0.0372  0.0256
 7287W        W24134   3.746  10.796  16.303 -0.1960 -0.0828  0.2621
 7288W        W24135  10.786   4.511   1.436 -0.2625  0.0630 -0.0900
 7289W        W24136   4.687   0.473   5.633  0.1981  0.2402  0.2434
 7290W        W24137   7.990  16.797  15.425  0.1698 -0.1123  0.1011
 7291W        W24138   8.224   8.397   1.570  0.2499 -0.3099  0.0229
 7292W        W24139  17.072   2.214  11.506 -0.3433 -0.1779 -0.1489
 7293W        W24140  17.053  10.864   2.202  0.3490 -0.1148 -0.1788
 7294W        W24141   1.621   2.374   4.909  0.2047 -0.2202 -0.0535
 7295W        W24142   0.772   1.277  14.707  0.0060 -0.1857  0.1349
 7296W        W24143   4.782   2.599   1.280 -0.3061 -0.2768  0.0809
 7297W        W24144  12.007   3.008  12.672 -0.0918  0.1205  0.2651
 7298W        W24145  13.677   9.038   4.272 -0.1241  0.0097  0.2023
 7299W        W24146   7.009   2.380  13.116  0.1991 -0.1563  0.1041
 7300W        W24147   0.471   8.596  13.495 -0.2327 -0.0030  0.1382
 7301W        W24148   9.586   1.186   1.470 -0.0138  0.0758 -0.1650
 7302W        W24149  11.457  14.285  12.595  0.1531 -0.1931 -0.2528
 7303W        W24150  16.247   3.676  11.722  0.0872  0.1012  0.3066
 7304W        W24151  17.033   1.737   3.183  0.0512 -0.0124  0.2740
 7305W        W24152   3.522   8.224   1.863  0.2239 -0.0977  0.0276
 7306W        W24153  11.021   4.274  16.667 -0.1922 -0.1294 -0.1982
 7307W        W24154   5.434   9.220  13.927  0.1281  0.0189 -0.0483
 7308W        W24155  16.114  13.970   0.760 -0.0055 -0.1695  0.0346
 7309W        W24156   0.064  12.595  12.498  0.0689 -0.0030  0.0154
 7310W        W24157   8.435  13.127   3.195  0.0492  0.0157 -0.1124
 7311W        W24158  13.151   4.935  15.736  0.0586 -0.0608  0.0695
 7312W        W24159   4.350  10.189   5.114  0.3478 -0.0126 -0.0410
 7313W        W24160   6.283  10.072   1.257  0.1004  0.0181 -0.1311
 7314W        W24161  15.428   6.177   4.334 -0.3229 -0.1549 -0.2575
 7315W        W24162   9.075  17.623  13.837 -0.0262  0.0768 -0.1215
 7316W        W24163   4.333  16.296  16.652  0.2998  0.3234  0.0244
 7317W        W24164  13.649   2.362   0.525  0.0100 -0.0037 -0.1709
 7318W        W24165   7.902  16.029   1.278 -0.0760  0.0527  0.0242
 7319W        W24166   0.497  15.914   0.721 -0.2033  0.0160 -0.0499
 7320W        W24167  14.596   6.994   2.074 -0.1539 -0.0722  0.2203
 7321W        W24168   4.044   5.759   1.187  0.1910 -0.0925  0.1420
 7322W        W24169   7.357   2.771  13.397  0.2138  0.0307 -0.1127
 7323W        W24170   5.860  17.062  13.611 -0.2555 -0.0543  0.2039
 7324W        W24171   6.638  13.130  14.235 -0.0833  0.1673  0.1919
 7325W        W24172   9.907  11.550  16.517 -0.1362  0.0680 -0.0873
 7326W        W24173   7.180  16.483   2.772 -0.0901 -0.1387  0.0700
 7327W        W24174   7.588  14.228   4.363 -0.1196  0.2449 -0.3535
 7328W        W24175   3.110   6.459  16.127 -0.4850  0.0396  0.4519
 7329W        W24176  15.819  15.255  13.998 -0.2334 -0.3027 -0.0897
 7330W        W24177  17.325  13.750  15.331  0.0579 -0.1176 -0.0584
 7331W        W24178  10.045  12.612  13.473  0.1088  0.0054 -0.4849
 7332W        W24179  14.250   4.848  11.290  0.0063 -0.1249  0.3409
 7333W        W24180  12.488   7.550   2.937  0.0994  0.1308  0.4205
 7334W        W24181  11.896   8.740  11.754 -0.0048  0.0848 -0.1945
 7335W        W24182  12.175  12.815  15.854 -0.1109  0.2563 -0.1000
 7336W        W24183   2.096   7.182   1.265 -0.0923 -0.2225 -0.2336
 7337W        W24184   4.014   0.857  15.008 -0.0334  0.1950 -0.1004
 7338W        W24185   3.107  10.179   0.989 -0.0410 -0.1416  0.3134
 7339W        W24186   7.992   4.516   3.690 -0.1309 -0.0467 -0.1970
 7340W        W24187   8.459   2.851  12.970  0.0351  0.0473  0.2981
 7341W        W24188   5.046  11.112  11.993  0.2141  0.0865  0.0014
 7342W        W24189  11.935   9.805   4.184 -0.2449 -0.0439  0.0996
 7343W        W24190   5.068   8.132   2.743 -0.0829  0.2003 -0.1016
 7344W        W24191  16.911  10.129   0.188 -0.1098  0.1033 -0.0269
 7345W        W24192   0.129  10.076   2.168 -0.0596 -0.1771  0.0071
 7346W        W24193  17.294  10.181   0.921  0.4318  0.0858  0.1098
 7347W        W24194  13.832   2.999   2.873  0.0465 -0.2960  0.1498
 7348W        W24195  14.789   5.374   1.103  0.2967 -0.2429 -0.0733
 7349W        W24196   9.377   2.032   2.560 -0.0765  0.3283  0.1015
 7350W        W24197  14.747  11.847  15.418 -0.0193  0.2353  0.1148
 7351W        W24198  10.449   1.499  14.909  0.1193  0.0095 -0.1448
 7352W        W24199  15.103   6.132  13.030  0.2173  0.0387  0.0901
 7353W        W24200   9.964  15.334   1.599 -0.2733  0.1185 -0.1584
 7354W        W24201   4.088   7.951   4.682 -0.2424  0.0718  0.0957
 7355W        W24202   9.193   5.200  13.755  0.0096  0.2959 -0.1172
 7356W        W24203  11.143  17.004   6.126  0.0228 -0.1197  0.0266
 7357W        W24204  14.269   2.625  15.295 -0.1602  0.1119 -0.2005
 7358W        W24205   7.783   1.212   2.280 -0.1128 -0.1239 -0.0283
 7359W        W24206  11.280  13.884   3.474 -0.1026  0.1658  0.2993
 7360W        W24207  14.194  11.189   2.396 -0.0766  0.3860 -0.2533
 7361W        W24208  16.655   2.653  14.235 -0.3354  0.4267 -0.0631
 7362W        W24209   1.596   2.948   4.173 -0.0362  0.0096  0.1593
 7363W        W24210  12.636   2.355  14.255 -0.1507  0.0525 -0.0805
 7364W        W24211   7.867  10.394   1.799 -0.2902 -0.1616 -0.0222
 7365W        W24212   5.984  15.913   2.353 -0.1504  0.0935 -0.1242
 7366W        W24213   4.392  10.436  13.537  0.2290 -0.1489  0.0141
 7367W        W24214   4.428   0.911  16.151  0.4048 -0.0967  0.1964
 7368W        W24215  14.474   8.512  13.745  0.2080  0.0946 -0.2113
 7369W        W24216   9.930   7.431  13.903  0.2124 -0.1430 -0.2424
 7370W        W24217   7.992   5.570  16.184  0.1625 -0.1318 -0.1942
 7371W        W24218   6.742  10.841   4.600  0.1005 -0.1119  0.0657
 7372W        W24219   1.510  12.863   5.455  0.0509  0.3584  0.3281
 7373W        W24220   0.579  11.167   3.690  0.0549  0.1767 -0.1133
 7374W        W24221  13.894   6.561  16.643  0.0164  0.0105 -0.0224
 7375W        W24222   9.774   8.147   5.206  0.1737  0.0913  0.3133
 7376W        W24223  14.714   7.617  14.050 -0.1085 -0.0100 -0.0105
 7377W        W24224   1.798   1.612  15.939 -0.3855 -0.0812 -0.1221
 7378W        W24225  13.294  10.878  15.575  0.0710 -0.0480  0.1590
 7379W        W24226  14.042   8.408  13.368  0.1550 -0.0527 -0.3569
 7380W        W24227   8.506   3.651   0.879 -0.0519 -0.0109 -0.0964
 7381W        W24228   6.613   7.085   5.582  0.3683  0.0460  0.3609
 7382W        W24229  10.477  14.532  14.452 -0.0063 -0.2191  0.1753
 7383W        W24230   6.492  10.692  12.424 -0.0147 -0.2131 -0.0522
 7384W        W24231   5.217   6.880  14.171 -0.1421 -0.1970 -0.1257
 7385W        W24232   0.964  12.032  16.227 -0.0512 -0.0167  0.0629
 7386W        W24233  16.838   8.571   0.301  0.2287  0.0303 -0.2036
 7387W        W24234  16.214  11.637  13.699 -0.2035 -0.1057 -0.1760
 7388W        W24235   3.661   5.466   2.767  0.1311  0.0960  0.2096
 7389W        W24236  14.087   6.020  16.669 -0.1235  0.0541 -0.0647
 7390W        W24237   6.356   5.570   1.425  0.0646 -0.2566  0.2903
 7391W        W24238  16.747  13.702   5.210  0.0571 -0.1158 -0.0702
 7392W        W24239  10.642   8.154   3.022  0.0851  0.0700  0.0918
 7393W        W24240  10.724   3.523  12.387  0.0161 -0.0005 -0.0686
 7394W        W24241   8.705  14.945  14.697 -0.0017  0.0485 -0.2247
 7395W        W24242   2.122  13.443   2.504  0.1580  0.1443 -0.2277
 7396W        W24243   4.382   9.152   5.343 -0.2841  0.0447 -0.1741
 7397W        W24244  11.418  11.733   1.460 -0.0721 -0.0133 -0.2404
 7398W        W24245   9.050   5.373   3.564 -0.0237  0.4285  0.0613
 7399W        W24246  13.023  18.007   2.761 -0.0448  0.1047 -0.0422
 7400W        W24247  13.643  10.539  13.300  0.0043  0.0094 -0.0775
 7401W        W24248   3.525   3.654   0.125  0.2383  0.0924 -0.2724
 7402W        W24249   0.414  11.439  11.962 -0.1429 -0.1262 -0.1068
 7403W        W24250  13.399  16.029   3.018  0.0203 -0.0244 -0.0459
 7404W        W24251  11.827   8.501   0.533  0.0448  0.1876  0.2519
 7405W        W24252   6.718   7.488   2.453 -0.2242 -0.0859 -0.0587
 7406W        W24253  10.126   0.010   4.976  0.1293  0.2577 -0.2009
 7407W        W24254   5.787  12.280  12.158  0.2616  0.1066  0.2029
 7408W        W24255  11.677   8.527  12.774 -0.4203 -0.0043 -0.0003
 7409W        W24256   0.572   6.162  15.048  0.1802 -0.0497 -0.0130
 7410W        W24257  15.762   8.740  12.399  0.0896  0.2759 -0.0680
 7411W        W24258   0.391  13.947  15.004  0.0333 -0.0343  0.1713
 7412W        W24259  15.603   2.706  14.558  0.0674 -0.0969 -0.2690
 7413W        W24260   2.633  10.729   3.631  0.2492  0.3014 -0.0306
 7414W        W24261  12.972  17.655   4.064 -0.3552 -0.0616 -0.3036
 7415W        W24262   0.321   2.017  11.495  0.0325 -0.1521 -0.1532
 7416W        W24263   3.886  17.379   1.264 -0.1710 -0.1650 -0.0389
 7417W        W24264  15.073   2.461   2.297  0.0216  0.4274  0.3486
 7418W        W24265  12.989  14.497   3.057 -0.0011 -0.0903  0.1458
 7419W        W24266  11.288   8.922  15.622  0.2018 -0.1023  0.1954
 7420W        W24267  16.327   5.092  11.895 -0.3512 -0.2227  0.1179
 7421W        W24268   2.897  12.057   3.887 -0.1543  0.0748  0.0223
 7422W        W24269  15.491   7.730  15.310  0.0901 -0.1427 -0.1015
 7423W        W24270   4.501   0.423  12.129  0.0526 -0.1249 -0.0128
 7424W        W24271   9.728   4.713   4.362 -0.2144 -0.3749  0.2128
 7425W        W24272   7.622   8.929   4.116  0.0519 -0.2147  0.1331
 7426W        W24273  12.647  15.854  15.637  0.2321 -0.0395 -0.1652
 7427W        W24274  10.638  12.110   1.857  0.1258  0.0104 -0.0826
 7428W        W24275  17.128   5.510   3.711  0.0302 -0.3250 -0.0233
 7429W        W24276   2.972   6.211  13.680 -0.0471  0.0302 -0.1907
 7430W        W24277   2.735  17.024   4.347  0.4578 -0.0071  0.1767
 7431W        W24278   0.652   8.538   5.906 -0.1161 -0.1392  0.2886
 7432W        W24279   3.935   6.895  12.919 -0.2620 -0.0752 -0.0943
 7433W        W24280   7.945  15.786   5.427  0.1502  0.1258  0.0598
 7434W        W24281   6.385   7.447  13.739  0.0980  0.2424 -0.1763
 7435W        W24282   5.225  15.582  13.153  0.1876  0.1591  0.1183
 7436W        W24283  11.084  16.032  15.005 -0.0563  0.0087 -0.0387
 7437W        W24284  10.036   8.552  12.030  0.0987 -0.1455 -0.1009
 7438W        W24285  12.225   9.676   0.821  0.1226 -0.2775  0.0576
 7439W        W24286   9.795  11.240   3.729 -0.1124  0.2170 -0.0184
 7440W        W24287  18.053  14.867  16.447 -0.3138  0.0137 -0.2022
 7441W        W24288  17.049   8.220  14.093 -0.0836 -0.0000  0.1862
 7442W        W24289   6.754   2.383  15.672 -0.0620  0.2804  0.0958
 7443W        W24290  11.420   9.685  14.605  0.1143  0.0394 -0.1107
 7444W        W24291   8.514  14.317   4.618 -0.1174  0.0377  0.1410
 7445W        W24292  13.080  16.957  15.973  0.0835  0.0241 -0.2018
 7446W        W24293   3.671   5.841  12.204  0.2582  0.1320 -0.0488
 7447W        W24294  10.349  17.492   3.962 -0.0209 -0.3726  0.0835
 7448W        W24295   4.788  12.210  14.727 -0.1814 -0.2065 -0.0294
 7449W        W24296  14.540  13.538   4.697  0.3678 -0.0781  0.0093
 7450W        W24297  17.933  16.002  14.220  0.1773  0.1308 -0.0373
 7451W        W24298  17.403  10.982   1.361  0.4820  0.0109 -0.3223
 7452W        W24299   8.631   8.159   5.047 -0.2946  0.0712  0.1165
 7453W        W24300  15.461  11.332   3.695  0.2080 -0.0204 -0.2383
 7454W        W24301  15.121   8.159  12.088  0.1383  0.0581 -0.2377
 7455W        W24302   2.085   6.099  16.322  0.0813  0.0729 -0.1645
 7456W        W24303  16.778   9.875   4.841 -0.1304 -0.0774  0.0870
 7457W        W24304  15.510  14.272  13.875 -0.3103 -0.0266  0.0559
 7458W        W24305   0.248   6.908  15.568 -0.3105 -0.3408  0.2119
 7459W        W24306  10.830   5.541  13.473  0.0240  0.1309  0.2859
 7460W        W24307   6.285   9.435  12.158 -0.2315  0.2252 -0.0186
 7461W        W24308  12.982   2.635   5.321 -0.1054  0.0427  0.1200
 7462W        W24309   2.035  17.755  14.013 -0.2014  0.0916  0.2525
 7463W        W24310   6.479  15.916  13.272  0.0065  0.1377  0.2141
 7464W        W24311   6.225   3.598  16.601 -0.3226  0.0147  0.1262
 7465W        W24312  11.284  15.251  12.089  0.1961  0.1710  0.0677
 7466W        W24313  17.557  13.754  15.829 -0.0787 -0.0749  0.2490
 7467W        W24314   7.857   0.218  11.643  0.4117  0.1598 -0.0699
 7468W        W24315  11.019   1.632   0.457  0.1635 -0.0553  0.2384
 7469W        W24316  14.359  11.499  14.161 -0.2183 -0.0013 -0.1397
 7470W        W24317  10.645   8.164   4.823  0.1682 -0.2311  0.0244
 7471W        W24318   5.679   0.425   0.059 -0.1060 -0.1017  0.0622
 7472W        W24319   4.672   4.467   5.059 -0.4583 -0.0264 -0.2972
 7473W        W24320   3.538   7.330   4.803 -0.2009  0.0333  0.0923
 7474W        W24321   2.175  16.465   2.318  0.0134 -0.2650 -0.0537
 7475W        W24322  12.692  14.690  14.116  0.3472 -0.1383 -0.4674
 7476W        W24323   9.802   7.177  15.729 -0.5982  0.1082  0.1569
 7477W        W24324  14.146  17.305  15.786  0.0418  0.0269  0.3336
 7478W        W24325   0.544   2.231  11.062  0.2906 -0.3059  0.0249
 7479W        W24326   2.066  16.234  16.097  0.0781  0.1045 -0.0478
 7480W        W24327   3.803   8.473   5.521 -0.0803 -0.0733 -0.0593
 7481W        W24328   7.527   5.129  15.463 -0.0542 -0.0957 -0.1366
 7482W        W24329  10.170  15.098   2.003  0.1526 -0.3639  0.1055
 7483W        W24330  17.388  17.180  14.043  0.0887  0.1321 -0.1136
 7484W        W24331   9.254  17.589   5.871  0.3642 -0.3206  0.2157
 7485W        W24332  10.020   8.964   5.705  0.4191 -0.0883 -0.0824
 7486W        W24333  16.665   2.772  11.967  0.2628  0.0630 -0.0242
 7487W        W24334  14.560   6.034   2.537 -0.0630  0.0516 -0.2731
 7488W        W24335  10.886  11.074   1.993  0.1867  0.0756  0.0178
 7489W        W24336  10.326   5.974   0.318 -0.3042  0.2992 -0.0382
 7490W        W24337  16.679   7.058  14.857  0.2920 -0.3025  0.0650
 7491W        W24338   1.939  13.901   5.753 -0.4457 -0.1156 -0.0444
 7492W        W24339   7.562   3.085   1.718 -0.0155  0.2002  0.2846
 7493W        W24340  15.004  11.715  16.337  0.1375 -0.0101 -0.0552
 7494W        W24341  13.492   9.657   4.727  0.2942 -0.0369 -0.2562
 7495W        W24342  17.940   4.534  16.591 -0.1940 -0.1179  0.0051
 7496W        W24343   2.764   6.163  14.702 -0.0544 -0.0608  0.3153
 7497W        W24344  13.273  14.477  16.684 -0.1591 -0.1002 -0.1718
 7498W        W24345   3.477   5.281   1.637  0.0940 -0.1493 -0.0729
 7499W        W24346  11.607   5.256   3.063 -0.1754  0.1357  0.3714
 7500W        W24347   0.626   8.434   4.897  0.2376  0.1166 -0.2208
 7501W        W24348  15.948   3.228  13.806  0.2479  0.1096  0.2101
 7502W        W24349  17.988   0.203  14.610  0.1522  0.3720  0.2227
 7503W        W24350   6.804  12.493   0.206 -0.0348  0.2887 -0.1237
 7504W        W24351   9.170  17.159   2.337  0.6339  0.3038  0.2028
 7505W        W24352  13.474  11.253   3.761  0.0065 -0.3224  0.0660
 7506W        W24353  16.401   5.960   3.610  0.1194 -0.1859 -0.1603
 7507W        W24354   9.730  11.753   6.142 -0.1615 -0.4167 -0.0733
 7508W        W24355   2.341   4.087  15.629 -0.3786 -0.0616 -0.0848
 7509W        W24356   9.867  12.792   2.882 -0.1629 -0.1578 -0.0962
 7510W        W24357  10.041   2.718  14.239  0.1604 -0.0064  0.2312
 7511W        W24358  10.660  14.454   4.058 -0.0077 -0.1226  0.1688
 7512W        W24359   1.446  17.449   5.476 -0.1735  0.4439 -0.3807
 7513W        W24360   5.910   8.113  13.210  0.1800  0.0929 -0.1006
 7514W        W24361   5.674   1.655  14.175 -0.0663 -0.0272  0.2638
 7515W        W24362  12.429  15.331  13.031 -0.2202  0.4426 -0.0734
 7516W        W24363   2.353   8.181  12.264  0.1065  0.0004  0.0260
 7517W        W24364   7.481   7.155  15.887  0.0095 -0.2245 -0.1398
 7518W        W24365  14.114  10.678   5.252  0.2064  0.0873  0.6366
 7519W        W24366  14.186   9.880  12.839 -0.3044  0.2090 -0.1196
 7520W        W24367   0.322   7.082   3.063  0.2160 -0.1329 -0.1162
 7521W        W24368   3.429  10.252  12.843  0.0932  0.0402  0.1869
 7522W        W24369   4.026   5.931   3.373  0.1349  0.2584  0.2210
 7523W        W24370  16.161  14.316   3.674 -0.0133 -0.0277  0.0465
 7524W        W24371   3.268  15.874   0.440 -0.1422  0.1069  0.3726
 7525W        W24372  12.659   9.780  13.571 -0.3418 -0.2536 -0.2310
 7526W        W24373  17.307   1.422  12.786 -0.3680 -0.0491 -0.4509
 7527W        W24374   0.599   2.230   4.714 -0.0408 -0.3039 -0.1564
 7528W        W24375   2.281  15.905   1.826  0.2991 -0.2125  0.3855
 7529W        W24376  17.982   0.190  12.222  0.1546 -0.0789  0.0148
 7530W        W24377  15.844  16.734  12.719 -0.1736  0.0334  0.3356
 7531W        W24378  12.348   3.927   1.608 -0.0301 -0.0109  0.0537
 7532W        W24379   0.044   8.895  16.290 -0.2153 -0.1403 -0.0581
 7533W        W24380  11.438  11.022   2.106  0.0196 -0.0203  0.2823
 7534W        W24381   1.632  14.600   0.103 -0.0857 -0.0867  0.2475
 7535W        W24382  16.965  11.140   3.546 -0.1237 -0.1905  0.1342
 7536W        W24383   8.932  16.983  15.113 -0.2004  0.1889  0.1489
 7537W        W24384   8.593   1.234  15.293  0.2143 -0.0935  0.0769
 7538W        W24385   3.176   4.869   0.150 -0.0166  0.1327  0.0777
 7539W        W24386  11.636   2.866  15.756  0.2630 -0.2275  0.1969
 7540W        W24387  11.203   8.148   4.294 -0.1066 -0.1197 -0.2981
 7541W        W24388   2.798  16.177   0.392  0.3744  0.0071  0.2900
 7542W        W24389   0.735   4.232  15.692 -0.1173  0.0131  0.0555
 7543W        W24390   2.039   4.461   2.211  0.2568 -0.1099  0.2034
 7544W        W24391   8.973   9.055   1.808  0.2882  0.1607 -0.0956
 7545W        W24392   1.710  10.789   5.874  0.0142 -0.3469 -0.1077
 7546W        W24393  13.350   4.906   2.721 -0.0627 -0.0670  0.4479
 7547W        W24394   5.322   8.824  11.924 -0.0274 -0.0296 -0.0278
 7548W        W24395   4.168  14.215  16.350 -0.1200 -0.0907 -0.2086
 7549W        W24396  17.443  11.566   5.598 -0.1095  0.0730  0.1078
 7550W        W24397  10.004   5.641  12.191  0.1606  0.0500 -0.0132
 7551W        W24398  15.906  11.047   3.816  0.2069 -0.1740  0.0209
 7552W        W24399  12.374   2.553   4.682  0.3001  0.0354 -0.1621
 7553W        W24400  14.848  12.840  15.072  0.2146 -0.1695  0.0163
 7554W        W24401  12.363  17.397  13.931  0.0046 -0.0944 -0.1970
 7555W        W24402   9.112  14.607   3.943 -0.0027  0.2798 -0.0836
 7556W        W24403  13.223  12.638   3.079 -0.0502  0.0112  0.1318
 7557W        W24404  10.446   5.678  13.157  0.1248  0.0376  0.0371
 7558W        W24405  17.831  17.413  16.051  0.0949  0.3532 -0.2728
 7559W        W24406   9.593   6.428  16.152 -0.0275 -0.5443 -0.0631
 7560W        W24407   4.268   8.127   0.901 -0.3645 -0.0621  0.1304
 7561W        W24408  12.830  14.999   4.587  0.2674 -0.0961  0.1438
 7562W        W24409   2.076   0.890   2.231 -0.1712 -0.1195  0.0259
 7563W        W24410   3.946   2.782  13.467 -0.0558 -0.1188  0.2907
 7564W        W24411   2.937  14.051  14.892  0.1427  0.2859  0.1526
 7565W        W24412  11.841  12.132   0.507 -0.3135  0.0892 -0.1209
 7566W        W24413   5.080   6.424   3.693 -0.0091 -0.2774 -0.1806
 7567W        W24414   0.197   4.409   2.201 -0.0919 -0.1340 -0.0687
 7568W        W24415   7.400   0.113  13.100 -0.2313 -0.3068  0.0087
 7569W        W24416  10.660  17.912  10.833 -0.1511 -0.1175 -0.0123
 7570W        W24417   0.700  11.098   4.884 -0.0387  0.1282  0.0118
 7571W        W24418  18.054  17.356   5.032  0.1363 -0.0579  0.0576
 7572W        W24419  12.766   5.542  12.735 -0.3119  0.2394 -0.4243
 7573W        W24420  17.781  16.297  14.561 -0.3925 -0.2504  0.1954
 7574W        W24421  17.018   0.360   0.410 -0.1117 -0.1313 -0.3337
 7575W        W24422  14.635  10.171  11.636  0.0578 -0.0569  0.1246
 7576W        W24423   9.649  10.681   5.650 -0.0129  0.1831  0.1162
 7577W        W24424  15.370   6.784   5.645 -0.0580  0.3947 -0.0506
 7578W        W24425   6.108   4.514   2.864 -0.0308  0.0019 -0.4780
 7579W        W24426  16.552  12.773   5.092 -0.0505 -0.1694 -0.2172
 7580W        W24427   7.100  17.818   3.145 -0.2063 -0.0968  0.0710
 7581W        W24428  12.653  12.657  11.408  0.1243  0.1722 -0.1393
 7582W        W24429  15.273  15.754   4.250 -0.3466 -0.0470  0.0053
 7583W        W24430   1.028   1.260   5.687 -0.2061 -0.0360  0.0373
 7584W        W24431   6.155   8.242   2.432  0.1113  0.1402 -0.0398
 7585W        W24432   3.870  15.857   6.217 -0.1280  0.4123  0.1691
 7586W        W24433   2.129   5.455  13.264  0.0262 -0.0933  0.1525
 7587W        W24434  13.989   5.665  11.436 -0.0769 -0.0420  0.0681
 7588W        W24435   0.270  11.698   0.253 -0.0740 -0.0138 -0.3222
 7589W        W24436   1.246   3.467  11.733  0.0073  0.2133  0.0479
 7590W        W24437  15.941  14.958  14.376 -0.1672 -0.0860  0.1424
 7591W        W24438  13.170   2.772   0.071  0.0224 -0.2321  0.0607
 7592W        W24439   9.913  12.261  11.601 -0.0105  0.0571 -0.1279
 7593W        W24440   9.016   3.647  16.311 -0.1220  0.1871  0.0077
 7594W        W24441   8.275   8.153  12.677  0.0314 -0.1485 -0.0477
 7595W        W24442   7.983   6.606   1.459 -0.1972  0.0503  0.1354
 7596W        W24443   4.053  10.993   4.686  0.2739 -0.3639 -0.1016
 7597W        W24444   2.602   4.065  12.044 -0.1708  0.1910  0.1238
 7598W        W24445  11.211   2.634   0.823 -0.1463  0.2940 -0.0158
 7599W        W24446  13.678  13.445  12.648  0.1279 -0.2645  0.2943
 7600W        W24447   3.431  15.742   4.618  0.1375  0.1772 -0.2649
 7601W        W24448   0.368   1.818  13.002 -0.0200  0.3420 -0.0787
 7602W        W24449   8.113   7.869   3.754  0.0630 -0.0898  0.3223
 7603W        W24450   8.708  14.263  14.904  0.0801  0.1040 -0.0777
 7604W        W24451   2.808  17.740   3.563 -0.1811  0.1520 -0.2810
 7605W        W24452   2.594   9.008   3.297 -0.2803 -0.1071 -0.3087
 7606W        W24453  17.940   8.442  13.755 -0.1390  0.3026  0.2288
 7607W        W24454  14.568   8.852   0.070 -0.0276  0.1358 -0.0359
 7608W        W24455  10.325  11.350   5.534 -0.0556  0.0650 -0.0612
 7609W        W24456   6.497   6.611   5.319 -0.2017 -0.1500 -0.0751
 7610W        W24457   9.962   1.205   5.611  0.3311 -0.0323 -0.3351
 7611W        W24458  14.597   0.838  13.477 -0.4530 -0.4414  0.1912
 7612W        W24459  10.241  12.149  14.513  0.0119 -0.0638 -0.0681
 7613W        W24460   1.281  13.996  14.695 -0.0567 -0.0232  0.0070
 7614W        W24461   2.533   5.535  14.065  0.1512 -0.2402 -0.1173
 7615W        W24462  12.355   5.602   2.856 -0.2079  0.0409 -0.3092
 7616W        W24463  12.279  14.721   2.145 -0.2851 -0.1574  0.0390
 7617W        W24464   1.960   3.858  14.628 -0.0650  0.0472 -0.0734
 7618W        W24465   8.919  14.255  15.355 -0.0429 -0.0008 -0.2635
 7619W        W24466  13.008  11.872   0.387 -0.1355  0.1928  0.1096
 7620W        W24467   9.310   3.182   0.699  0.0202 -0.2817 -0.0406
 7621W        W24468  14.372  14.310  11.969  0.3041  0.2919 -0.0863
 7622W        W24469  17.674   1.914   1.335  0.0862 -0.4457  0.1102
 7623W        W24470  12.291  11.994  11.955 -0.1219  0.3132 -0.0697
 7624W        W24471  13.723  16.280   3.699  0.0776  0.0757 -0.0120
 7625W        W24472  17.012   4.314   0.742 -0.1242 -0.1327  0.1461
 7626W        W24473  12.801  12.438  12.586 -0.2075 -0.0780 -0.3504
 7627W        W24474   4.947  12.298   2.918  0.0332  0.0956 -0.1019
 7628W        W24475  12.257   6.790  11.908  0.0176  0.3039 -0.1255
 7629W        W24476  15.620   0.285  14.513 -0.2561  0.4799  0.0830
 7630W        W24477   0.236  13.199   0.818  0.0032  0.2490 -0.2750
 7631W        W24478   5.715  13.748   4.557 -0.0569 -0.2278  0.1547
 7632W        W24479   5.187   9.116   2.550  0.1149 -0.1650  0.1685
 7633W        W24480   9.003  11.178  15.811 -0.1021 -0.0550  0.0866
 7634W        W24481   4.741   4.198  14.309  0.1486 -0.0836 -0.1958
 7635W        W24482   3.702  10.579   1.667 -0.2325 -0.2128 -0.3075
 7636W        W24483  13.282  11.545  14.941 -0.2541 -0.2093  0.0510
 7637W        W24484  13.457   8.840  13.625  0.3150  0.0123  0.3375
 7638W        W24485   7.511   8.182   6.107  0.1012 -0.0949  0.3749
 7639W        W24486  10.469   5.780   3.155 -0.1278 -0.2206  0.0507
 7640W        W24487  12.050   2.120   5.447 -0.0173  0.0265 -0.0807
 7641W        W24488  14.314  13.916   4.009  0.0949 -0.2387  0.2048
 7642W        W24489  11.685  13.625   1.783  0.3718 -0.1312  0.2211
 7643W        W24490  10.854  13.919   3.855  0.1027 -0.0132 -0.0578
 7644W        W24491   0.189   2.266  15.925  0.1172  0.0020 -0.1860
 7645W        W24492   4.173  13.004   3.117  0.1068  0.0392 -0.2262
 7646W        W24493  16.523   7.200  11.829 -0.1977 -0.1928  0.1569
 7647W        W24494   2.280  16.547   0.255 -0.3287  0.1525 -0.2652
 7648W        W24495   5.233   3.442  10.936 -0.2302 -0.2298 -0.0979
 7649W        W24496  11.109  11.504   2.372 -0.1466  0.0964 -0.0544
 7650W        W24497   8.151   9.503   4.859  0.1449  0.1905 -0.1123
 7651W        W24498  11.414  13.560  12.116  0.1408  0.0935 -0.0229
 7652W        W24499   0.309  15.797  14.096  0.1197 -0.2457  0.1535
 7653W        W24500  15.198  10.944   4.467 -0.0796 -0.1343 -0.2902
 7654W        W24501  11.545  16.103  11.796  0.0508 -0.0112  0.0482
 7655W        W24502   3.226   3.049   0.719 -0.0660  0.0572 -0.1059
 7656W        W24503  10.558   6.093   3.605  0.1421 -0.1931  0.4216
 7657W        W24504   6.185  14.093  15.578 -0.0559 -0.1818  0.1405
 7658W        W24505  14.958   0.181  13.885 -0.0083 -0.0113 -0.4338
 7659W        W24506   9.463   1.544  15.827 -0.0454  0.0205 -0.0013
 7660W        W24507   4.614  13.803   4.199  0.2474 -0.0146 -0.1900
 7661W        W24508  15.994  16.803  13.946 -0.3022 -0.0562  0.0396
 7662W        W24509   0.108   6.068   2.372 -0.2772 -0.0924 -0.2067
 7663W        W24510  10.424   6.220   1.295 -0.2349 -0.2655 -0.2210
 7664W        W24511   6.262   3.279  13.426  0.1456  0.1161  0.0632
 7665W        W24512   2.258   8.317   3.634 -0.3666 -0.0801  0.1800
 7666W        W24513  12.513   2.989   3.339  0.1532  0.0358  0.0768
 7667W        W24514   3.834   8.000  14.550 -0.2784 -0.2938 -0.0400
 7668W        W24515   9.895   1.723   1.655  0.2651  0.1609 -0.1272
 7669W        W24516   9.310   4.233   5.104  0.0735 -0.3280  0.0361
 7670W        W24517   8.945  16.840  12.745  0.3392  0.2494 -0.0207
 7671W        W24518   8.926  13.925  15.788 -0.1793  0.0005 -0.0145
 7672W        W24519   4.903   9.622   1.055 -0.1714  0.0728  0.2037
 7673W        W24520   0.104  17.334   3.174  0.1303  0.2113 -0.0500
 7674W        W24521   5.830   0.957  12.487  0.3966  0.1070  0.3477
 7675W        W24522  12.431   5.370   2.060 -0.0529  0.1000 -0.2335
 7676W        W24523  15.859  14.034   3.344  0.2491  0.0953 -0.2336
 7677W        W24524   4.599   3.181  16.261  0.2854  0.0015  0.2184
 7678W        W24525  16.420   7.286  13.262 -0.0039 -0.3978  0.0409
 7679W        W24526   5.050   4.877  13.846  0.1100 -0.0259 -0.0065
 7680W        W24527  13.190   6.409  14.235 -0.0901  0.0755  0.1336
 7681W        W24528   0.158   0.968  16.385  0.0213 -0.2813 -0.0545
 7682W        W24529  15.966   2.602  13.937 -0.1143 -0.1421  0.2463
 7683W        W24530  15.194  10.363   3.895  0.2444  0.0033  0.1184
 7684W        W24531   7.566  10.450  12.716  0.0007 -0.2993  0.0761
 7685W        W24532   4.254   2.320   4.697 -0.3911  0.4375 -0.2048
 7686W        W24533  15.986  16.668  16.163 -0.0379 -0.0838 -0.0313
 7687W        W24534  12.025  13.401  16.382  0.1081 -0.0237 -0.0033
 7688W        W24535   5.127   3.949   4.600  0.1177 -0.3370  0.0000
 7689W        W24536   0.979  12.739   1.081  0.0150 -0.1265 -0.2399
 7690W        W24537   8.202  16.873   1.607 -0.1723 -0.0128 -0.0380
 7691W        W24538   6.809  11.280   5.020 -0.0347 -0.0556  0.1937
 7692W        W24539  12.617   5.793  16.439 -0.4037 -0.0977 -0.0517
 7693W        W24540   2.201   4.023  15.047  0.3322  0.1488  0.0623
 7694W        W24541   7.153   5.807   0.298 -0.1731  0.2210 -0.2283
 7695W        W24542  10.298  10.872  13.951 -0.1912  0.1589  0.2520
 7696W        W24543  11.644   1.543  15.525 -0.1107 -0.1182  0.2052
 7697W        W24544  14.914  11.238  12.857  0.0455 -0.1839  0.3189
 7698W        W24545   1.599   8.496  13.779 -0.2534 -0.4657  0.5482
 7699W        W24546  10.305   5.873  15.445  0.2152  0.0637 -0.1368
 7700W        W24547  16.982   8.512  12.863 -0.1271 -0.0803  0.0851
 7701W        W24548   6.692   1.029  12.390 -0.1596 -0.2643 -0.0338
 7702W        W24549   7.457   9.797   4.912 -0.1714  0.2290 -0.2008
 7703W        W24550  13.598   5.683   2.421 -0.1198  0.0334 -0.0665
 7704W        W24551   3.303   5.366  13.781  0.1406  0.0913 -0.0877
 7705W        W24552   9.933  10.241  13.626 -0.2268 -0.2486  0.1240
 7706W        W24553   9.902  15.301   0.408  0.1350 -0.0241 -0.1154
 7707W        W24554  17.390   8.163  16.209  0.0732 -0.2755 -0.1344
 7708W        W24555  10.611   7.371   0.500 -0.5486  0.3082  0.1876
 7709W        W24556   1.568   2.571  15.724 -0.4573  0.1756 -0.0014
 7710W        W24557   7.036   9.272  15.864  0.0268 -0.2792 -0.3227
 7711W        W24558   9.114   4.055   2.925 -0.3469 -0.1572 -0.0930
 7712W        W24559   0.809   3.221  15.040 -0.0233  0.0707  0.0902
 7713W        W24560   7.674  14.079   5.689 -0.0673 -0.2234 -0.1233
 7714W        W24561   2.134   6.272  11.546  0.1242  0.3544  0.0379
 7715W        W24562   0.172  11.469   5.493 -0.4163  0.0021  0.3873
 7716W        W24563   5.033   6.390  14.792  0.2819 -0.2314 -0.0811
 7717W        W24564   5.971   4.146   1.369  0.4709 -0.0143 -0.1364
 7718W        W24565   6.759   5.925   4.165  0.1108  0.1259  0.0186
 7719W        W24566   3.129  16.417   0.750  0.0063 -0.0592  0.1420
 7720W        W24567  16.220  17.446  15.944  0.3874  0.1336 -0.1880
 7721W        W24568  13.905  17.947   4.133  0.2251 -0.0518  0.2435
 7722W        W24569   9.498   4.810   5.907  0.0666  0.1751  0.0227
 7723W        W24570   3.086   0.668   5.542  0.0738 -0.1523 -0.0452
 7724W        W24571  15.354   6.371  12.350  0.1042  0.1804  0.1116
 7725W        W24572  13.352  17.808   1.866  0.2502 -0.2214  0.1186
 7726W        W24573   1.206   8.705   0.790  0.0403 -0.1009 -0.1657
 7727W        W24574  13.572   0.247   4.097 -0.0667 -0.0864 -0.1230
 7728W        W24575  16.029  16.875  14.433  0.2650  0.0414  0.2190
 7729W        W24576  15.437  15.588   2.679 -0.1976 -0.4291  0.1747
 7730W        W24577   7.319   6.112  11.970 -0.0142 -0.1900  0.1420
 7731W        W24578   1.030   0.424  14.362 -0.0023  0.0911 -0.0618
 7732W        W24579  10.132   8.394  16.369  0.2657  0.1683  0.1509
 7733W        W24580  18.001   1.776  15.796 -0.2644 -0.4365 -0.0040
 7734W        W24581  12.700   8.694  15.006 -0.2046  0.2223 -0.1119
 7735W        W24582  14.787   2.721  14.941 -0.0368 -0.0082 -0.2807
 7736W        W24583  16.395   5.464  15.358  0.1955 -0.0329 -0.2664
 7737W        W24584  12.848   0.293  14.745 -0.0299  0.3105 -0.1734
 7738W        W24585  14.870  12.365   5.020  0.1264  0.2096  0.0381
 7739W        W24586   9.002   0.713   2.885  0.0777 -0.1560 -0.0756
 7740W        W24587  10.108  11.407   0.947 -0.0588 -0.0915 -0.3386
 7741W        W24588   6.592   9.601   0.458 -0.0990 -0.1129 -0.2929
 7742W        W24589   6.857   4.092  11.648  0.0759 -0.0540  0.0014
 7743W        W24590   4.304   5.114   5.200 -0.0264  0.3386  0.0540
 7744W        W24591   8.458  11.179   5.176 -0.1809  0.2531  0.3313
 7745W        W24592   3.153   8.594   3.168  0.4343  0.5571  0.1447
 7746W        W24593   9.041   3.929   4.321 -0.0015  0.1140 -0.0879
 7747W        W24594  16.855   1.406  16.648 -0.0229  0.0261  0.1007
 7748W        W24595  13.821   0.183  14.883  0.4429 -0.2704  0.1083
 7749W        W24596  11.897  10.306  15.316 -0.2974  0.0244 -0.1148
 7750W        W24597  11.410   1.932  13.348  0.1902  0.2555 -0.1392
 7751W        W24598  14.983   1.224   0.317 -0.1656 -0.0861 -0.0082
 7752W        W24599  16.555  17.046   3.507 -0.0256 -0.0950  0.2107
 7753W        W24600  12.853  14.832  16.546  0.0079 -0.1367  0.0110
 7754W        W24601  13.199  17.965  13.484 -0.0391 -0.0488  0.1030
 7755W        W24602   5.205   4.247  11.995  0.1198  0.0490 -0.2985
 7756W        W24603  16.111  16.693   5.443 -0.0714 -0.3511 -0.0673
 7757W        W24604  13.894   7.640   5.881 -0.0620 -0.3896 -0.1498
 7758W        W24605   0.607   7.454  15.138 -0.0816  0.0974  0.1092
 7759W        W24606   9.660   9.015  14.826 -0.1191 -0.0710 -0.2746
 7760W        W24607   4.597   0.438  15.463  0.1547  0.1052  0.1121
 7761W        W24608  15.383   2.915   0.949 -0.0971 -0.1551  0.1282
 7762W        W24609  15.150   0.647  12.050  0.0455  0.2660  0.0701
 7763W        W24610  13.126   2.148  13.407 -0.2444  0.4752  0.1905
 7764W        W24611   9.601  15.432   1.925 -0.0821  0.0136 -0.2838
 7765W        W24612   6.593  12.061   5.291  0.0432  0.1248  0.2042
 7766W        W24613   0.073  15.572  12.322 -0.0261  0.1038  0.1917
 7767W        W24614   3.475  14.130   2.139 -0.3368 -0.0385  0.0285
 7768W        W24615   2.460   1.884   5.282  0.2877 -0.0920  0.2595
 7769W        W24616  14.555  10.755  15.020 -0.0176 -0.1264 -0.2722
 7770W        W24617   4.606  15.611   4.321  0.2438  0.1663 -0.0062
 7771W        W24618  12.853   9.891  12.967  0.0152  0.2312  0.1208
 7772W        W24619  15.556   3.006   2.761 -0.1422 -0.2016  0.0621
 7773W        W24620  12.478  13.523   5.011  0.0853 -0.1108  0.0776
 7774W        W24621   1.525   4.033   1.009 -0.2534  0.0139  0.0579
 7775W        W24622  15.794  14.383  16.109  0.0895  0.3140  0.2303
 7776W        W24623  17.359  14.048  16.229 -0.0352  0.1342 -0.4358
 7777W        W24624  11.539  15.881  13.989  0.1774  0.0614  0.0941
 7778W        W24625  16.991   1.614   3.669 -0.1335  0.2517  0.0311
 7779W        W24626  17.099   7.155   3.872  0.1858 -0.2191 -0.0062
 7780W        W24627   9.565   0.985   0.986 -0.3879 -0.6294 -0.1734
 7781W        W24628   2.265   8.611  12.551  0.1917 -0.0736 -0.2769
 7782W        W24629  17.330   2.186  14.608 -0.0113  0.0651  0.2296
 7783W        W24630  14.043   5.107  13.032 -0.1234  0.3767 -0.2078
 7784W        W24631  10.423  12.355  13.552 -0.0894 -0.4001  0.1054
 7785W        W24632   9.837   2.238   2.007 -0.1310  0.1717 -0.2368
 7786W        W24633  16.159   6.014  15.659  0.0566  0.0249  0.2021
 7787W        W24634  13.777   0.447   3.202 -0.2406  0.1284 -0.1544
 7788W        W24635   3.571   3.539   3.616  0.2583 -0.2805 -0.1952
 7789W        W24636  11.551   8.655  15.148 -0.0318  0.3204 -0.2460
 7790W        W24637  14.312   0.238  13.936 -0.2944 -0.0200 -0.0699
 7791W        W24638  13.285  13.241   0.809 -0.1121 -0.0362 -0.0179
 7792W        W24639   3.639  14.419   4.269 -0.0384 -0.4127 -0.3463
 7793W        W24640   7.582  17.821  11.575  0.1579  0.0698 -0.0641
 7794W        W24641  15.037  13.152   4.407  0.0902 -0.0611  0.0384
 7795W        W24642   7.785   2.500   3.255  0.3077 -0.0931 -0.1788
 7796W        W24643   6.460  12.950  12.607  0.1848 -0.1906 -0.1352
 7797W        W24644   2.915   2.050   2.459 -0.3303  0.2545 -0.0262
 7798W        W24645  14.998   6.808   2.617 -0.1204  0.1708 -0.1564
 7799W        W24646  15.119   3.409   3.538  0.4696  0.1229 -0.1307
 7800W        W24647   8.105  16.999   0.041 -0.1698 -0.1766 -0.0790
 7801W        W24648  14.803  15.808  13.544  0.1242 -0.2521 -0.0800
 7802W        W24649  13.926  17.999   5.068 -0.2103 -0.1449 -0.3621
 7803W        W24650   7.877   1.025  14.676  0.0929 -0.1373  0.0142
 7804W        W24651  13.395  12.888  15.794 -0.3731 -0.2903 -0.0843
 7805W        W24652  17.698   9.148  16.222 -0.2676 -0.3711 -0.0095
 7806W        W24653  16.941   8.956   5.065 -0.0567 -0.2206  0.0298
 7807W        W24654   0.066  16.502   2.915 -0.3560 -0.5034  0.1090
 7808W        W24655  16.590   8.624  12.048 -0.2124  0.1880  0.0626
 7809W        W24656   5.500   3.941  13.823  0.3323  0.2022 -0.0654
 7810W        W24657   4.033  10.958   3.197 -0.4928 -0.0312  0.0924
 7811W        W24658   1.471  16.809  12.054  0.1501 -0.1434  0.1431
 7812W        W24659  10.002   5.630  13.389 -0.3759 -0.0341 -0.0100
 7813W        W24660   0.524   9.057  16.148  0.1115  0.0026  0.0871
 7814W        W24661   5.215  14.624  15.813  0.0446  0.1099 -0.3403
 7815W        W24662   1.906  13.837  13.087 -0.0716  0.0744  0.1236
 7816W        W24663   1.139   1.079   1.383  0.0743  0.0841 -0.2729
 7817W        W24664  13.026   2.332  13.887 -0.1246  0.0189 -0.0330
 7818W        W24665  13.157   2.912  12.485 -0.1360 -0.2774 -0.0865
 7819W        W24666   3.047  17.925  15.108 -0.1623  0.0160 -0.3793
 7820W        W24667  12.970  11.487   2.847  0.1250 -0.2995 -0.0969
 7821W        W24668  17.714  13.815  16.520  0.3344  0.1112  0.3129
 7822W        W24669   4.195  14.112  14.074  0.1789  0.0879  0.1835
 7823W        W24670   3.752  12.452  16.354 -0.1163  0.0299  0.0037
 7824W        W24671   9.942  13.479   3.720  0.0419  0.2241  0.2651
 7825W        W24672   1.305   5.225  14.749 -0.0419  0.0367 -0.0488
 7826W        W24673  14.967   0.593  13.517 -0.5004  0.1810 -0.0746
 7827W        W24674   6.636   0.408   3.410  0.1286  0.0155  0.0585
 7828W        W24675  13.854  16.010  16.655 -0.2948 -0.1556  0.0586
 7829W        W24676  12.186  13.043   5.328 -0.4347 -0.3166  0.2429
 7830W        W24677   6.971   2.363  12.589 -0.1284  0.1254  0.0791
 7831W        W24678   2.951  10.255  12.637 -0.0512  0.2644  0.2861
 7832W        W24679  14.528  12.040   5.141  0.0311 -0.0919 -0.1032
 7833W        W24680   3.214  10.269  13.321 -0.0084 -0.2110  0.2003
 7834W        W24681   5.940  14.496   0.428  0.1152  0.3166 -0.0352
 7835W        W24682  16.082  10.695   3.519  0.3103 -0.3825  0.0725
 7836W        W24683   6.132   9.886  12.368 -0.1940  0.1284  0.0035
 7837W        W24684   0.053   9.881   5.791 -0.0409 -0.0382  0.1149
 7838W        W24685   3.866   4.045  16.023  0.1565 -0.1965 -0.2703
 7839W        W24686  10.661   7.995  11.699 -0.0802  0.1259 -0.1154
 7840W        W24687   5.647   0.165  15.279 -0.0665 -0.1031 -0.0979
 7841W        W24688   0.217   7.687   4.405 -0.2117  0.3128 -0.0989
 7842W        W24689  17.452   2.087  12.324  0.3698  0.2415 -0.0346
 7843W        W24690   6.237   4.995  14.771  0.1583  0.0240  0.1036
 7844W        W24691   3.038   6.994  16.107  0.1842  0.0597  0.2164
 7845W        W24692  13.654  12.063  16.439  0.0939 -0.1188  0.3627
 7846W        W24693   5.052   2.444  11.689 -0.2573 -0.2541  0.2197
 7847W        W24694   8.808   9.153   1.054 -0.2706 -0.1940 -0.0705
 7848W        W24695  16.495  16.242   1.507 -0.0027  0.0505  0.2319
 7849W        W24696   0.234   6.925   3.598  0.0429  0.2683  0.1071
 7850W        W24697   7.805   5.007   4.826 -0.1571 -0.1610 -0.4277
 7851W        W24698   1.641   7.135  11.729 -0.5450  0.0716  0.0209
 7852W        W24699  14.157   2.972   5.721 -0.1599 -0.1753  0.4403
 7853W        W24700  12.073   7.317   2.709 -0.1497  0.4603  0.0364
 7854W        W24701   5.956  12.041  15.129 -0.3252 -0.1134 -0.0827
 7855W        W24702   2.587   3.366   3.546  0.0115  0.1418  0.1590
 7856W        W24703   9.700  10.881   3.309  0.4383  0.0041 -0.1963
 7857W        W24704   9.306   2.986   1.581  0.2160 -0.4050  0.1761
 7858W        W24705   2.742   6.932   1.991  0.1829 -0.2762 -0.1051
 7859W        W24706   8.185   5.297  14.287  0.2496 -0.0784  0.2319
 7860W        W24707  10.195  11.664  11.997 -0.1708 -0.0653  0.4100
 7861W        W24708  15.658   7.437   1.862  0.4012 -0.0630  0.0396
 7862W        W24709  17.111  16.732  14.638  0.1546 -0.1507 -0.1225
 7863W        W24710  10.483   2.111   3.883  0.0441 -0.0291  0.0689
 7864W        W24711   3.092   6.833   1.660  0.4539 -0.0586  0.3657
 7865W        W24712   6.175  17.541  12.399 -0.1859  0.0714  0.1900
 7866W        W24713  14.491   3.098  12.219  0.2633 -0.0656 -0.3101
 7867W        W24714   6.654   3.416   0.165 -0.2537 -0.0860 -0.2383
 7868W        W24715  12.520   6.128  12.484 -0.0987  0.1381 -0.3013
 7869W        W24716  15.770  10.360  16.598  0.0892  0.3565 -0.0400
 7870W        W24717  15.135  11.351   4.114  0.0515  0.2572 -0.1286
 7871W        W24718   7.314   4.550   3.443 -0.1844 -0.0145 -0.2114
 7872W        W24719   5.228  11.239  14.855 -0.1251 -0.1789  0.1054
 7873W        W24720  14.985  10.031  14.619  0.1832  0.0119 -0.2872
 7874W        W24721   8.701  17.485  11.956 -0.2416 -0.0615 -0.2595
 7875W        W24722   2.610  10.169   1.055  0.1040 -0.1567 -0.4637
 7876W        W24723  11.567   6.192   3.865  0.0260 -0.2022 -0.0894
 7877W        W24724   1.993  17.561   4.619 -0.2343 -0.1814 -0.3733
 7878W        W24725   3.914   9.042   0.443 -0.0694 -0.0334 -0.3028
 7879W        W24726  17.560   4.674  12.058 -0.1304 -0.4328 -0.0651
 7880W        W24727   8.330   7.408   1.643  0.2838  0.0718  0.0642
 7881W        W24728   7.898   0.349   3.885  0.0870 -0.0383  0.0768
 7882W        W24729  11.753  14.774   1.579 -0.3034  0.1818  0.1631
 7883W        W24730   9.551  12.155  14.187  0.2267  0.2938 -0.0356
 7884W        W24731   7.721  12.042  12.179 -0.1897  0.1699 -0.0051
 7885W        W24732   4.573  16.734   1.349 -0.0180  0.1784  0.0009
 7886W        W24733   0.584   2.772  12.298  0.2086  0.0123 -0.1826
 7887W        W24734   2.530   5.358  15.284  0.1056 -0.2424  0.2639
 7888W        W24735   1.247   2.551  11.727  0.1794 -0.1991 -0.1312
 7889W        W24736   8.977   6.889   0.276 -0.4417  0.2449  0.1553
 7890W        W24737  13.304  10.714  12.957  0.2440  0.0632 -0.1006
 7891W        W24738   6.703  17.068   5.117 -0.0101  0.1280 -0.0450
 7892W        W24739  10.606   6.426   3.151 -0.3178 -0.1508  0.1674
 7893W        W24740   2.608  11.525  12.013  0.1350 -0.0978 -0.0856
 7894W        W24741   5.817   0.299  14.448  0.0296  0.1254  0.1818
 7895W        W24742   9.912  14.408   3.473 -0.2699 -0.1627  0.3215
 7896W        W24743  15.929  14.020  15.117 -0.0234  0.0927 -0.2461
 7897W        W24744   8.517   9.760  14.801 -0.5989  0.2302 -0.1096
 7898W        W24745   6.724   1.697   2.128  0.5419 -0.0634 -0.0633
 7899W        W24746   6.254   6.963   1.602  0.2207 -0.0747  0.1391
 7900W        W24747  10.833  14.416   0.949  0.0565 -0.0397  0.2160
 7901W        W24748   7.617   3.687  16.612  0.1253  0.1476 -0.0891
 7902W        W24749  13.765  11.386  14.800 -0.2430 -0.4398  0.0853
 7903W        W24750   4.826  17.820  13.295 -0.3306  0.0444 -0.0316
 7904W        W24751   7.277   8.796   1.725 -0.0542 -0.3621 -0.2205
 7905W        W24752   3.282  12.459  13.356  0.0167 -0.0432  0.2374
 7906W        W24753   6.939   1.989   4.288 -0.0917 -0.0079  0.1404
 7907W        W24754  14.049   9.925   2.501 -0.2498 -0.1669  0.1176
 7908W        W24755  15.776   9.741  13.882  0.2170  0.0007  0.2452
 7909W        W24756  14.539  13.194   4.314  0.1472 -0.0422  0.1232
 7910W        W24757  16.321   8.528   2.178 -0.1249 -0.0956 -0.3117
 7911W        W24758   5.396  17.811  14.026  0.1558 -0.2636  0.2225
 7912W        W24759   2.468   3.068  11.131 -0.0215 -0.1083  0.1030
 7913W        W24760   0.063  11.507   1.002  0.0580 -0.2540  0.0930
 7914W        W24761  14.325  12.419  15.713  0.2686  0.1763 -0.0101
 7915W        W24762  10.789   6.906  12.854 -0.0129  0.1771 -0.0849
 7916W        W24763  17.910  14.555   5.101  0.1329  0.0607  0.0018
 7917W        W24764   8.392  13.326   1.405  0.0744  0.0393  0.2544
 7918W        W24765  13.848   7.744   4.257  0.0456  0.0855 -0.2522
 7919W        W24766  13.083   9.846   1.866 -0.3756 -0.0230  0.2946
 7920W        W24767  12.934   5.148   0.034 -0.0092  0.0940  0.0088
 7921W        W24768  12.896   4.214   1.839 -0.3053 -0.1139 -0.1628
 7922W        W24769   0.830   2.345  14.718 -0.1277  0.0370 -0.0052
 7923W        W24770   6.455   3.543   4.080 -0.0767 -0.1935  0.3389
 7924W        W24771   4.704   8.201   4.396  0.0389 -0.3210  0.1334
 7925W        W24772   5.017  12.295  15.218 -0.0967  0.0653 -0.0218
 7926W        W24773  17.688   6.246   2.281 -0.0930 -0.0028  0.2149
 7927W        W24774   5.602   9.005  16.176  0.2563  0.0131  0.2559
 7928W        W24775  17.059  15.380   0.609 -0.1432  0.2267 -0.2019
 7929W        W24776  12.026   0.462  14.507  0.1733 -0.4895 -0.0476
 7930W        W24777  13.781   7.318   3.682  0.1727 -0.0027  0.2142
 7931W        W24778   8.994   2.224   3.485 -0.0713 -0.2654 -0.2493
 7932W        W24779  11.802   6.382   2.683 -0.1209  0.2050  0.0159
 7933W        W24780   7.645  10.507   6.139 -0.2096  0.1027 -0.1167
 7934W        W24781  12.829  11.537  11.109  0.2075 -0.0707 -0.1053
 7935W        W24782  14.466   9.803   4.789  0.1676  0.3332  0.0384
 7936W        W24783   4.274   1.665  14.405  0.0708  0.1372  0.1832
 7937W        W24784   1.114   4.171   2.361  0.0982 -0.1608 -0.1477
 7938W        W24785  14.584  13.025   3.662  0.2556 -0.3035  0.1520
 7939W        W24786   6.994   3.668   5.417  0.0424 -0.1120 -0.1359
 7940W        W24787   7.830   7.341   1.397 -0.1442  0.0780 -0.1093
 7941W        W24788   3.519   2.033  11.830 -0.0023  0.2191  0.1804
 7942W        W24789  10.290   0.181   0.077  0.1920  0.0012 -0.1299
 7943W        W24790   9.718  11.398   4.202 -0.1819 -0.0271 -0.2587
 7944W        W24791  10.571  12.588  15.483  0.0149  0.0710 -0.0487
 7945W        W24792  14.903  14.917   1.499  0.2105 -0.1005  0.0236
 7946W        W24793  13.572   9.278  14.526 -0.2659  0.1550 -0.0286
 7947W        W24794   3.368  15.526   3.525 -0.0976 -0.2946  0.1024
 7948W        W24795   2.982   1.050   3.340  0.0201  0.0612 -0.0181
 7949W        W24796  15.698  13.509  13.594  0.2379  0.0238 -0.1637
 7950W        W24797  15.210   7.301   1.586  0.4190 -0.0579 -0.3841
 7951W        W24798   9.388   2.489   3.298  0.1702 -0.0740 -0.2577
 7952W        W24799   8.439   1.417  12.143  0.1881 -0.1149 -0.3442
 7953W        W24800   3.788  15.121   1.240 -0.1630  0.2799  0.0129
 7954W        W24801   7.749   4.356   5.221  0.0759  0.1636 -0.1508
 7955W        W24802   1.443   5.499   6.491  0.0283 -0.1416  0.3136
 7956W        W24803   7.608   0.374   0.681 -0.2513  0.2951 -0.1524
 7957W        W24804   9.109  10.570  12.609 -0.2329  0.0043 -0.1731
 7958W        W24805   2.703   0.496   1.646 -0.0091 -0.2021  0.2081
 7959W        W24806   7.639  16.394   3.426  0.0741  0.2849 -0.4196
 7960W        W24807  14.275  11.595  12.872  0.0577  0.1328  0.2618
 7961W        W24808  17.888   6.891  15.110 -0.0620  0.0029 -0.0584
 7962W        W24809   7.355   8.077  13.720  0.0665  0.1670 -0.1018
 7963W        W24810   5.890   1.372  12.943  0.1695  0.0680  0.2655
 7964W        W24811  12.332  16.336  13.064 -0.0822 -0.4090  0.2190
 7965W        W24812   1.458  15.015  11.402  0.1683 -0.0226 -0.1135
 7966W        W24813  17.520  11.881  14.136 -0.0152 -0.0717  0.1151
 7967W        W24814  11.829   5.000  14.849  0.2708  0.2266 -0.2309
 7968W        W24815  16.621  17.781  12.861  0.0843 -0.1095 -0.0913
 7969W        W24816   1.308   7.674   0.748  0.0899 -0.1284  0.0872
 7970W        W24817   0.551   3.554   3.284 -0.0143  0.0198 -0.1320
 7971W        W24818   6.653   8.799  14.930 -0.0815 -0.2332  0.2035
 7972W        W24819   6.685  12.094  15.481  0.0307  0.2544  0.2184
 7973W        W24820   1.665   1.851  16.611 -0.1539  0.0796  0.4861
 7974W        W24821   6.212   8.784   1.729  0.1975  0.1895  0.1647
 7975W        W24822   4.492   0.613   1.034  0.3138  0.0746  0.1142
 7976W        W24823   6.676   0.322  14.010 -0.5758 -0.5022 -0.2030
 7977W        W24824   8.294   5.834   2.659 -0.1827  0.1355 -0.1190
 7978W        W24825  12.022  13.718  13.357  0.1799 -0.0467  0.0092
 7979W        W24826   3.066   4.378  14.437 -0.1534 -0.0720  0.3346
 7980W        W24827   6.837   9.308   2.913 -0.1323 -0.3833  0.2684
 7981W        W24828  15.230   7.206   3.268  0.0073  0.0818  0.0079
 7982W        W24829   5.974   8.863  12.720 -0.1333 -0.1660  0.3653
 7983W        W24830   4.070  17.394  11.803  0.0811  0.0295  0.0696
 7984W        W24831  14.359   1.089   5.496 -0.0537 -0.1361 -0.0307
 7985W        W24832   0.547   2.293  11.862 -0.3145 -0.0981 -0.3276
 7986W        W24833  18.048  14.394  13.051  0.1009  0.2245  0.0924
 7987W        W24834   7.450  17.605   2.863  0.0625 -0.0725  0.2274
 7988W        W24835  15.380  12.579   1.576 -0.0566  0.1628  0.0048
 7989W        W24836   2.044   5.199  15.295 -0.2637 -0.2210  0.1383
 7990W        W24837   9.602   7.071   3.981 -0.0385 -0.2110  0.2612
 7991W        W24838  16.276  13.556  13.644  0.0631  0.2815  0.2017
 7992W        W24839   7.556  16.931  14.960 -0.2898 -0.3022  0.0191
 7993W        W24840  11.304   7.886   1.318  0.0342  0.1809  0.0536
 7994W        W24841   5.553   3.710   4.878  0.4812  0.0758 -0.1440
 7995W        W24842   5.998  12.880  16.389 -0.4555  0.0673  0.0243
 7996W        W24843   1.288  13.547  15.299 -0.0446  0.1553  0.2249
 7997W        W24844   8.969  12.134  11.672 -0.0885  0.0002  0.1371
 7998W        W24845  15.629   4.772   3.136 -0.2706  0.1750  0.1277
 7999W        W24846  11.960   9.815  14.056 -0.0321 -0.3356  0.2807
 8000W        W24847   2.518   8.811   0.759 -0.0337 -0.2188  0.1374
 8001W        W24848  10.679  15.517  12.733 -0.1439 -0.1818  0.1033
 8002W        W24849   8.997   9.947   2.010  0.1982 -0.2250  0.0094
 8003W        W24850   6.873   7.551  12.605 -0.1118 -0.0998 -0.1952
 8004W        W24851  13.621  16.178   4.765  0.0146  0.1339 -0.2259
 8005W        W24852   0.961  13.348   4.126 -0.0679  0.1750 -0.1121
 8006W        W24853   8.631   5.777  13.217 -0.1459  0.2135  0.2777
 8007W        W24854   1.172  17.158   3.863 -0.1534  0.1686 -0.1304
 8008W        W24855   0.723  17.253  14.638 -0.2206  0.2932  0.0389
 8009W        W24856   1.386  15.322  12.174 -0.0288  0.1369  0.0292
 8010W        W24857   0.092  14.641   3.484 -0.0056  0.2291 -0.3804
 8011W        W24858   4.512   3.709   3.351  0.1477 -0.0439  0.0323
 8012W        W24859   1.767  16.170  15.701  0.0654 -0.0024  0.4620
 8013W        W24860  17.120   1.015  11.904  0.1784  0.2011 -0.0322
 8014W        W24861  15.981  17.756   1.415 -0.0562 -0.0218 -0.3227
 8015W        W24862   7.837   6.648  14.376 -0.2269 -0.0792  0.2891
 8016W        W24863  12.296  12.968  11.648  0.2613 -0.1334 -0.0570
 8017W        W24864   0.343  10.219  12.686 -0.1011 -0.0787  0.2934
 8018W        W24865   5.757  13.916  12.975 -0.0465 -0.2464 -0.0261
 8019W        W24866   3.501  17.874  13.744  0.0009  0.0115  0.1391
 8020W        W24867   6.435   3.780  11.472  0.2337 -0.0796 -0.0164
 8021W        W24868  15.614   3.311  12.601 -0.0349  0.1044  0.1056
 8022W        W24869  12.579   8.185  15.057  0.4490  0.1010 -0.2697
 8023W        W24870  17.130   0.094   4.550 -0.2608  0.0300  0.0343
 8024W        W24871  17.320  17.774   5.302  0.0659  0.1503  0.2058
 8025W        W24872   5.892  15.505   5.330 -0.0638  0.1888 -0.0347
 8026W        W24873  10.401   8.563  14.090 -0.0240 -0.2462 -0.4036
 8027W        W24874   2.353  14.226   2.625 -0.2304  0.1466  0.1287
 8028W        W24875   2.840  17.766  12.657 -0.3135  0.0524  0.0185
 8029W        W24876  16.433   2.555  13.711  0.4755 -0.0861 -0.1250
 8030W        W24877   7.546   8.508   2.007  0.0630 -0.0647 -0.0686
 8031W        W24878   3.698   2.528   2.765  0.0123 -0.0749  0.2351
 8032W        W24879   3.706   6.935   4.291  0.2219 -0.0680  0.0083
 8033W        W24880  12.866  15.337  13.275  0.1189  0.0383  0.1310
 8034W        W24881   4.119   4.513  14.625 -0.0078  0.0024 -0.2135
 8035W        W24882   8.052   5.292  11.216  0.0446 -0.1729  0.0010
 8036W        W24883   6.535   7.190  16.503 -0.0226 -0.1110 -0.3606
 8037W        W24884   6.533  16.037  14.716 -0.1682 -0.0044  0.0025
 8038W        W24885  17.617  16.471  13.884 -0.1183  0.1962 -0.0825
 8039W        W24886  11.457   3.177   3.606  0.0197  0.0186  0.2121
 8040W        W24887   8.387   1.418   3.730 -0.0110 -0.0348  0.0371
 8041W        W24888  17.424   6.151  12.022  0.0066 -0.2853 -0.1216
 8042W        W24889   8.535   6.404   6.219  0.0224 -0.1439  0.1053
 8043W        W24890   4.860  17.237   1.503 -0.0545 -0.3298  0.3245
 8044W        W24891   7.479   9.243   0.115 -0.0932  0.0266  0.1840
 8045W        W24892   9.823   7.324   2.211  0.1231 -0.0312  0.1928
 8046W        W24893   1.686   8.108  14.404 -0.2064 -0.1320 -0.1214
 8047W        W24894   7.085  15.925   5.407  0.2167 -0.3115 -0.0159
 8048W        W24895   1.770   7.111   3.144 -0.1037 -0.0504  0.2189
 8049W        W24896   9.911   9.596   3.282 -0.3338 -0.1221  0.1840
 8050W        W24897  14.756   2.990  11.758  0.0291 -0.3273  0.3353
 8051W        W24898  14.301  10.668  11.816 -0.0325 -0.3500 -0.5330
 8052W        W24899  13.981   6.396   5.773 -0.2694 -0.2481  0.0322
 8053W        W24900   6.283   7.663  14.161  0.3939  0.1180  0.3464
 8054W        W24901   1.555   4.686   5.793  0.0714 -0.1342  0.1407
 8055W        W24902  12.925   0.213   5.760  0.2664 -0.1334 -0.0914
 8056W        W24903   0.558   4.975  13.753  0.2388  0.0216 -0.0238
 8057W        W24904  16.263   6.171   4.552 -0.0920 -0.2752 -0.0997
 8058W        W24905  15.333  11.828  15.342  0.0048  0.0164  0.1795
 8059W        W24906   3.038  17.358   2.283 -0.0043 -0.1962 -0.2870
 8060W        W24907  11.841  14.082   4.341  0.0119 -0.3344 -0.0729
 8061W        W24908   4.148  17.888  16.487  0.1164 -0.1780  0.0172
 8062W        W24909   7.053  16.446   0.929  0.0173  0.3458  0.0351
 8063W        W24910  10.184   2.705  16.231  0.0556  0.2798 -0.1759
 8064W        W24911  10.143   8.844   0.286  0.1441  0.1231 -0.1247
 8065W        W24912  11.332  10.558  15.501 -0.0393 -0.1752 -0.0238
 8066W        W24913   7.634   5.863   3.592 -0.0347 -0.2094 -0.3723
 8067W        W24914   4.723  12.725  12.808  0.0341  0.1737 -0.0989
 8068W        W24915   9.341  16.428  12.151  0.2183  0.4748  0.0039
 8069W        W24916   0.096  17.515  13.040 -0.2167 -0.2177  0.1353
 8070W        W24917  11.856   0.910   4.268 -0.1033 -0.0904  0.3936
 8071W        W24918  13.671   1.151  11.551  0.1967  0.1745  0.2528
 8072W        W24919   2.156   0.049   0.852  0.1345  0.1305 -0.1770
 8073W        W24920  10.037  16.804   4.655 -0.3982  0.0017 -0.0629
 8074W        W24921   0.348   0.502  16.330 -0.1444  0.1815  0.1505
 8075W        W24922   0.391  17.626  11.752 -0.0183  0.0103 -0.0151
 8076W        W24923  16.594   3.587  12.463  0.0342 -0.1944 -0.0671
 8077W        W24924  12.783  16.509  15.873 -0.1607  0.0439 -0.0364
 8078W        W24925  17.788   9.513  14.941  0.2092  0.2876 -0.3289
 8079W        W24926   0.268   1.746   4.171 -0.0454  0.0272 -0.0891
 8080W        W24927   9.311   4.616  16.405  0.2352 -0.4281 -0.3252
 8081W        W24928   4.758  17.053   2.348  0.0515  0.0115  0.1605
 8082W        W24929   4.725  16.339   4.269 -0.1637 -0.1607 -0.1017
 8083W        W24930   7.448   6.867  15.411 -0.1217  0.4836 -0.1622
 8084W        W24931  15.215  17.365  15.608  0.1405 -0.3112  0.2563
 8085W        W24932  14.423  13.763   2.542  0.3754  0.1692  0.0341
 8086W        W24933  15.954  10.133   0.372  0.2397  0.0388  0.2584
 8087W        W24934   1.178   2.241   0.350  0.2323  0.3209  0.1059
 8088W        W24935   9.598   9.257   5.275 -0.0699  0.1474 -0.6036
 8089W        W24936   0.417   0.143   2.076 -0.0772 -0.0177 -0.3308
 8090W        W24937   0.929   1.746  15.845  0.3359 -0.2011 -0.0984
 8091W        W24938   2.590   6.077   0.312 -0.3115 -0.0062 -0.0502
 8092W        W24939  15.561   9.428  15.735  0.0434 -0.3289  0.0208
 8093W        W24940   8.695  11.397  13.789 -0.3860 -0.0879 -0.2664
 8094W        W24941   7.518   1.216  12.544 -0.0731 -0.2166 -0.0257
 8095W        W24942  12.194   7.730   0.811 -0.2575 -0.1442  0.3432
 8096W        W24943   8.267  15.326   5.462 -0.2818  0.0612  0.1809
 8097W        W24944  12.297  12.549  12.757  0.2392 -0.1476  0.0555
 8098W        W24945  16.114  13.503  13.015  0.3766 -0.0138 -0.2535
 8099W        W24946   2.756   2.950  13.093  0.0247  0.3746 -0.2126
 8100W        W24947  16.295   5.415  14.830  0.0114 -0.0782 -0.0433
 8101W        W24948  12.994   4.999   3.144  0.1394 -0.1728 -0.4121
 8102W        W24949  15.410   5.129   1.760  0.5333  0.3841 -0.0547
 8103W        W24950  15.124   9.073   5.095 -0.0904 -0.1408 -0.1805
 8104W        W24951  12.832   6.372  15.501 -0.2553 -0.0069  0.1412
 8105W        W24952   8.757  10.293   4.813  0.0834  0.1822 -0.0441
 8106W        W24953   7.439   2.454  12.800  0.3490 -0.0048 -0.2112
 8107W        W24954  12.206   7.002  14.474 -0.0008 -0.0809 -0.1454
 8108W        W24955   3.761  14.550  14.591  0.0283  0.2411  0.0841
 8109W        W24956  16.607   2.178   2.546 -0.0139  0.0457 -0.0461
 8110W        W24957   6.580   3.746   1.160 -0.2509 -0.0255 -0.1239
 8111W        W24958   5.907   6.983   0.565 -0.1975 -0.2143  0.2036
 8112W        W24959  11.141  16.201  12.552  0.0783  0.1313  0.2001
 8113W        W24960  14.009   2.240  13.144 -0.0561  0.0924 -0.2301
 8114W        W24961   4.323   6.769  13.239  0.0220  0.2879  0.1215
 8115W        W24962  13.364  12.299  13.737  0.0281  0.0344  0.0347
 8116W        W24963  10.686   3.857  14.617  0.0138  0.0367  0.1305
 8117W        W24964   1.010  11.065   5.346 -0.1434 -0.1162 -0.0871
 8118W        W24965  12.496   1.492  11.418  0.0646  0.2696  0.1820
 8119W        W24966   1.843  15.733  16.026  0.0785  0.0100 -0.1078
 8120W        W24967   0.311   8.739  15.425 -0.1286 -0.1498  0.0412
 8121W        W24968   3.734   0.776   2.368 -0.1647  0.1427 -0.0162
 8122W        W24969   3.537  11.462   4.179  0.2139 -0.0510  0.1577
 8123W        W24970  14.301  10.821  13.714  0.0139  0.0095 -0.2106
 8124W        W24971   4.757   7.488  13.746  0.1523 -0.1461  0.0953
 8125W        W24972  11.076  13.590   4.319  0.1117  0.0817 -0.0010
 8126W        W24973   6.975  16.211   1.386  0.2848 -0.1341  0.0114
 8127W        W24974   2.810   5.058  12.867 -0.0181  0.0210 -0.0435
 8128W        W24975   3.769  14.897  16.309  0.0929  0.1818  0.2126
 8129W        W24976  11.027   4.388  12.128 -0.2886  0.2187 -0.1334
 8130W        W24977  15.711  10.192  16.074 -0.3156 -0.2309 -0.0126
 8131W        W24978   3.697   3.811   0.620 -0.1564 -0.2768  0.1354
 8132W        W24979  13.172  16.340   1.818 -0.1966  0.2725  0.0472
 8133W        W24980   0.631   5.870  14.233 -0.2869 -0.2081  0.0235
 8134W        W24981  12.128   4.758  14.100 -0.0560 -0.2523  0.2230
 8135W        W24982   7.183  17.222  15.006  0.0370 -0.1012 -0.2553
 8136W        W24983  17.365  11.637  13.368 -0.0434  0.1963  0.3906
 8137W        W24984  12.652   3.171  11.688  0.2186  0.2394  0.2201
 8138W        W24985  15.413  11.271  13.020  0.0919 -0.0759 -0.2220
 8139W        W24986  11.402  10.826   2.928 -0.1380  0.1441 -0.1804
 8140W        W24987   3.216   7.505   3.491  0.0405 -0.0759 -0.0582
 8141W        W24988   8.540  16.161   3.027  0.0868  0.0179 -0.0464
 8142W        W24989  15.670  15.725   4.716  0.0655 -0.1862 -0.0654
 8143W        W24990   9.081  14.413   3.113 -0.1721 -0.0560 -0.2850
 8144W        W24991  13.705   5.549   0.950 -0.1877 -0.2847 -0.2278
 8145W        W24992  17.315   5.517   2.756 -0.3223  0.1213 -0.0246
 8146W        W24993  13.250  13.409   5.511  0.0276  0.1335 -0.0733
 8147W        W24994  13.051   7.997  14.844  0.3627 -0.1901  0.2989
 8148W        W24995   5.352  16.602   2.337  0.0203  0.2610 -0.2174
 8149W        W24996  15.290   3.752  11.965  0.0259 -0.2331  0.4694
 8150W        W24997  17.849  11.170  16.434  0.2177  0.1333 -0.1213
 8151W        W24998  13.663  17.183  11.010  0.0484  0.0309 -0.1123
 8152W        W24999   3.840   5.175  13.858  0.4962  0.1681 -0.1878
 8153W        W25000   1.647   9.340  15.046 -0.0749  0.1789  0.0743
 8154W        W25001   4.464  10.415   6.341  0.1017 -0.0996 -0.0313
 8155W        W25002   2.235   7.154   3.278  0.2627  0.0763 -0.3536
 8156W        W25003   0.094  13.755   0.070 -0.0003 -0.0392 -0.0070
 8157W        W25004   6.234  14.816   0.718  0.1904  0.0194  0.1049
 8158W        W25005  14.956  17.298   5.930  0.0685 -0.4052 -0.2006
 8159W        W25006  12.448  10.577  13.802  0.2185 -0.0959 -0.1947
 8160W        W25007  13.168   1.390   4.424 -0.1585  0.2285  0.1148
 8161W        W25008   9.467  15.668   3.858  0.0578 -0.0040  0.2889
 8162W        W25009  16.878   9.734   5.611  0.2364 -0.1178  0.1496
 8163W        W25010   4.665  13.883  14.102  0.0694  0.0781 -0.2457
 8164W        W25011   5.842  14.589  12.265 -0.2007 -0.0376  0.1325
 8165W        W25012   1.661   2.774  11.797  0.0053 -0.1101 -0.1699
 8166W        W25013  17.662   8.327  14.766  0.1501  0.1530 -0.2001
 8167W        W25014   3.809   4.352   1.321 -0.1680  0.1018  0.0838
 8168W        W25015  11.312  13.107  11.926 -0.0131  0.3225 -0.0778
 8169W        W25016  16.536  15.436   1.150 -0.1719  0.1484 -0.0786
 8170W        W25017   9.330   7.482  13.747 -0.0227  0.0603 -0.2884
 8171W        W25018   6.790   4.266   2.661 -0.0513 -0.1675 -0.1646
 8172W        W25019   8.342   7.799   0.053 -0.0038 -0.1123 -0.1679
 8173W        W25020   5.880   6.143  15.036  0.0470 -0.1406 -0.4174
 8174W        W25021  13.346   9.878  12.128  0.1969 -0.0229  0.3040
 8175W        W25022   9.055   3.647  13.907 -0.3397 -0.2642 -0.1536
 8176W        W25023  10.991   9.002   4.755  0.1486  0.2196 -0.1308
 8177W        W25024   1.986   9.970  13.902  0.0786 -0.5330  0.2423
 8178W        W25025   1.914  10.957  16.239 -0.0865  0.0576 -0.2841
 8179W        W25026   4.286   1.009   3.028  0.3264  0.1711  0.0833
 8180W        W25027  10.394   1.082  16.574 -0.1023 -0.3090  0.0457
 8181W        W25028  11.995   5.619  15.215  0.2087 -0.1347  0.0428
 8182W        W25029   1.760   5.776   5.179 -0.1371  0.1537 -0.1167
 8183W        W25030  16.631  13.871  11.840 -0.3804  0.1027 -0.1995
 8184W        W25031   0.502  16.384  15.556  0.0222 -0.1518 -0.0128
 8185W        W25032  16.063   4.501  11.798 -0.1205  0.2460 -0.0927
 8186W        W25033  10.748   7.614  12.563  0.4050  0.0147  0.2315
 8187W        W25034   3.073   4.733   1.316 -0.1381 -0.0736 -0.1664
 8188W        W25035  16.144  15.468   3.616 -0.0607 -0.2056  0.0643
 8189W        W25036   8.257   3.820   1.286  0.3457  0.0497 -0.0744
 8190W        W25037   1.442  14.638  13.302  0.0095  0.1783 -0.1833
 8191W        W25038   3.955  11.475   2.225 -0.1952  0.0480  0.0085
 8192W        W25039   5.679  11.935   1.511  0.0072  0.0813 -0.1713
 8193W        W25040  14.378  15.623  13.346 -0.0558  0.0127  0.1516
 8194W        W25041  16.277   8.804  15.305 -0.0624 -0.3106  0.0747
 8195W        W25042  11.088   0.962   1.516  0.1110 -0.0813  0.0364
 8196W        W25043   0.468  13.916   4.624 -0.2571  0.0619  0.1048
 8197W        W25044   7.823   3.846  11.937  0.3442  0.0252  0.2475
 8198W        W25045   8.766   7.799   1.938  0.0985  0.0008 -0.0503
 8199W        W25046  11.248   2.725   3.824  0.0799  0.2811 -0.1012
 8200W        W25047  10.927   9.697  15.518 -0.1330  0.0353 -0.0629
 8201W        W25048   3.573   1.022  15.377 -0.1903  0.0175 -0.0840
 8202W        W25049  13.406  11.184  13.178  0.1770  0.1591 -0.1008
 8203W        W25050   8.097  15.196  16.462 -0.3263  0.1424  0.2309
 8204W        W25051  10.011   4.079  15.523 -0.0993 -0.0397  0.2753
 8205W        W25052   5.418  10.557   0.913  0.0599 -0.2151  0.0472
 8206W        W25053   1.098   0.969   3.474  0.1184 -0.1396 -0.0569
 8207W        W25054   5.167   4.536   5.981 -0.0157  0.2039  0.2370
 8208W        W25055  16.066   2.630   4.917  0.1460 -0.1232  0.1218
 8209W        W25056  14.511  16.290  15.933  0.0435  0.0988 -0.1079
 8210W        W25057   6.270   0.528  15.531  0.2412  0.0991 -0.2419
 8211W        W25058   8.483  12.385  14.599  0.1500 -0.1309 -0.3512
 8212W        W25059   3.642  11.939  15.063 -0.1464  0.5293 -0.1943
 8213W        W25060   0.543   8.012   4.693 -0.3544  0.3085 -0.1838
 8214W        W25061  12.217  13.699   4.383  0.0710 -0.2749  0.1607
 8215W        W25062  15.629   5.009   4.297  0.1681  0.1917 -0.0816
 8216W        W25063  14.154   1.029   0.061  0.0467  0.1950 -0.1022
 8217W        W25064   7.711   5.421   1.295 -0.0762 -0.0315  0.1465
 8218W        W25065  13.528   0.590  16.529  0.2029  0.2152 -0.0727
 8219W        W25066  16.083  13.155  13.437  0.1849 -0.0809 -0.2137
 8220W        W25067   0.058  15.739  16.198  0.1535  0.0187 -0.1313
 8221W        W25068  16.523  14.768  12.299  0.0408 -0.0387 -0.0036
 8222W        W25069  13.243   0.886  11.400  0.2143  0.3296 -0.1275
 8223W        W25070  13.968  17.681  14.502 -0.2347  0.0475 -0.4398
 8224W        W25071  17.921  11.389   2.065 -0.0857  0.3577  0.0252
 8225W        W25072   4.086   4.373  13.625  0.2252 -0.2139  0.0796
 8226W        W25073   7.180  12.968   4.527 -0.1129 -0.2005 -0.3375
 8227W        W25074   3.217  13.766   2.464 -0.0192 -0.0051 -0.2649
 8228W        W25075  14.171   7.598  11.824  0.0495 -0.0249 -0.1553
 8229W        W25076  17.757   9.274  11.973  0.4763 -0.0912 -0.0812
 8230W        W25077   8.663  11.928  16.619  0.2909  0.0102 -0.2409
 8231W        W25078  12.919  11.897  13.732  0.2408 -0.2219  0.2073
 8232W        W25079   4.074   5.083   4.407  0.1294 -0.0750 -0.0684
 8233W        W25080   7.359  14.615   1.994  0.1270  0.1333 -0.0167
 8234W        W25081  14.691   9.888   1.019  0.1172 -0.3259  0.1698
 8235W        W25082   2.971   1.875  12.963 -0.3449  0.2206  0.2290
 8236W        W25083  12.812   6.441   1.958 -0.5785 -0.0009  0.2293
 8237W        W25084   0.731   8.515  13.986 -0.2068 -0.0079 -0.0115
 8238W        W25085   1.494   6.617   1.061  0.1533 -0.1234  0.0120
 8239W        W25086  11.005  17.790   1.265 -0.4140  0.1453  0.0080
 8240W        W25087  10.236   6.007  14.958  0.0333 -0.0046  0.1205
 8241W        W25088   4.466  17.993   3.986 -0.1021  0.0862  0.0269
 8242W        W25089   0.440   1.841  12.020  0.3822  0.1104 -0.4431
 8243W        W25090   8.374   3.977   5.083 -0.1618  0.2149 -0.0578
 8244W        W25091  11.491   0.849   2.980  0.0517 -0.1655 -0.1215
 8245W        W25092   9.182   7.063   0.888  0.1587 -0.1957  0.2729
 8246W        W25093  15.683   4.578   4.079 -0.0076 -0.2771  0.1287
 8247W        W25094   6.205  12.234   4.101 -0.2977 -0.0265  0.1850
 8248W        W25095  16.865  12.453  12.178  0.4466 -0.0178 -0.3345
 8249W        W25096   5.267   4.928   3.934 -0.0984  0.0543 -0.0052
 8250W        W25097   8.015   7.377   0.804 -0.0143  0.2624 -0.3268
 8251W        W25098  12.854   5.840   1.241  0.2012 -0.0083 -0.3011
 8252W        W25099  17.890   4.548   3.294  0.2869  0.2243  0.1590
 8253W        W25100   2.846  13.920   0.321 -0.1227  0.2161 -0.1286
 8254W        W25101   6.296   9.854   0.177 -0.1971 -0.0112 -0.2263
 8255W        W25102  13.757   6.778  14.432  0.0219  0.0736  0.2295
 8256W        W25103  11.796  10.852   1.395  0.3147  0.0512 -0.0085
 8257W        W25104   5.244   0.435   0.282 -0.0008  0.1515  0.0922
 8258W        W25105   9.488  14.329   1.921  0.1756 -0.0838  0.1409
 8259W        W25106  13.447   7.914  11.790  0.1365 -0.2803 -0.2102
 8260W        W25107  15.376  14.675  15.899  0.0630 -0.0182 -0.0336
 8261W        W25108  14.054  14.742   1.643  0.0344  0.2593 -0.0498
 8262W        W25109  10.717   6.818  11.876 -0.2846  0.0407  0.2870
 8263W        W25110  12.987   9.299   1.456 -0.0279 -0.0922 -0.1839
 8264W        W25111  13.942   4.047   4.246 -0.2865 -0.2883  0.3012
 8265W        W25112   4.353   6.785   1.565 -0.2519  0.0206  0.1010
 8266W        W25113  13.290  16.106  16.376 -0.3919  0.1757  0.3342
 8267W        W25114   4.760  12.112   2.067  0.1915 -0.0175 -0.1505
 8268W        W25115   9.289  16.270  14.662  0.1872  0.1517  0.2552
 8269W        W25116   0.938   9.737   4.338 -0.1985 -0.1805 -0.1729
 8270W        W25117  10.198   4.571   4.664  0.0453  0.2441  0.1637
 8271W        W25118   0.047   9.059  12.646  0.1020  0.0281 -0.1809
 8272W        W25119  11.996   9.077   0.547  0.3463  0.0886 -0.0189
 8273W        W25120   4.609  14.803  15.501  0.0165  0.1077 -0.2507
 8274W        W25121   0.761   3.481   0.657 -0.0096 -0.0921 -0.4689
 8275W        W25122   4.125  16.201  14.590 -0.1245  0.1343  0.0429
 8276W        W25123   2.639   8.258  16.143  0.5188 -0.1565  0.0294
 8277W        W25124  11.784   2.482  15.084 -0.1080 -0.0293  0.1770
 8278W        W25125  16.611   7.978   6.079 -0.0106 -0.0532  0.2033
 8279W        W25126  11.096   0.229   1.251 -0.1534 -0.4465 -0.0663
 8280W        W25127  16.496  17.862   4.180  0.0491  0.0718 -0.0273
 8281W        W25128   7.412  17.117   2.965 -0.1338  0.1091  0.2904
 8282W        W25129  10.324  16.021   1.141 -0.1239 -0.0598 -0.0848
 8283W        W25130   5.074  13.265   5.000  0.0010  0.2728  0.2450
 8284W        W25131   4.865   4.611  12.902 -0.1723  0.0032  0.0249
 8285W        W25132   2.379  17.907   3.720  0.0416  0.2072  0.0319
 8286W        W25133  14.268   7.858  15.373  0.0861 -0.1553  0.0571
 8287W        W25134   5.807  14.096  14.131  0.0071 -0.0045 -0.4244
 8288W        W25135   3.183  13.905   5.542 -0.1132  0.2881 -0.1733
 8289W        W25136   7.438   6.812  12.767 -0.0176  0.0143  0.2184
 8290W        W25137  12.431   3.626  11.757 -0.0019 -0.0519 -0.2079
 8291W        W25138  15.312  17.725   3.315  0.0290 -0.0598  0.2335
 8292W        W25139   8.807  15.601  12.722 -0.0857 -0.0977  0.0364
 8293W        W25140  10.277   8.041   2.663 -0.0094  0.1049 -0.5959
 8294W        W25141  14.088   3.106   2.410 -0.1635 -0.1223 -0.0776
 8295W        W25142  14.145   5.216   0.654 -0.0692 -0.1857  0.0580
 8296W        W25143   3.955  14.807   1.553 -0.1480 -0.2644  0.0257
 8297W        W25144   5.874  14.323  15.259  0.0329 -0.2259 -0.0810
 8298W        W25145  15.674   1.250  11.581 -0.1587 -0.1571 -0.2940
 8299W        W25146  14.230   0.648  14.236 -0.1582  0.0015 -0.1159
 8300W        W25147   0.539  11.504   1.687  0.0200  0.1788  0.1076
 8301W        W25148   4.703   4.703   0.844  0.0806  0.3467  0.1712
 8302W        W25149   7.519  10.313   4.852 -0.0744  0.0039  0.2020
 8303W        W25150   2.310  13.135  15.571  0.1204 -0.1965  0.2077
 8304W        W25151  13.725   3.162   5.863  0.3461  0.1560 -0.0111
 8305W        W25152   0.830  14.500  12.139 -0.0525  0.0749  0.1117
 8306W        W25153   3.960   2.161  12.038 -0.3245 -0.0911  0.0707
 8307W        W25154  15.011  16.105  15.348 -0.0252  0.1297  0.3041
 8308W        W25155  17.840  16.903   3.117 -0.0646 -0.0444 -0.0215
 8309W        W25156  13.410   8.621   0.300 -0.0622 -0.1646 -0.2311
 8310W        W25157   2.543   6.414  13.428  0.2267 -0.3302  0.1675
 8311W        W25158   1.571   5.184  16.174 -0.1422  0.0335 -0.1957
 8312W        W25159   0.995   1.256  15.145 -0.0894  0.1308  0.0356
 8313W        W25160  17.542  16.655  14.839  0.0433  0.2940 -0.3309
 8314W        W25161   9.344   0.920   3.626 -0.0190 -0.1045  0.3175
 8315W        W25162   6.721  10.063   6.061  0.1506  0.0483 -0.0712
 8316W        W25163   1.993  14.192  12.216  0.0505  0.2473 -0.1342
 8317W        W25164  17.587  16.495   4.749 -0.3799 -0.3619 -0.1840
 8318W        W25165  15.840  12.930   2.258 -0.0194  0.2974  0.2395
 8319W        W25166  10.494   1.756  14.392  0.0049  0.0372  0.1438
 8320W        W25167  15.208   0.592  11.477 -0.3761  0.1614 -0.1332
 8321W        W25168   0.752  17.060   5.476  0.0181 -0.1693  0.1349
 8322W        W25169   9.838   4.939   4.814  0.2284 -0.1490  0.2645
 8323W        W25170  13.685  12.844   3.945 -0.4775  0.3360  0.1840
 8324W        W25171  14.878   1.087  14.145  0.3178  0.0354  0.0794
 8325W        W25172  12.422   1.150  13.403 -0.1795 -0.1818  0.3824
 8326W        W25173   9.878  14.106  12.886  0.0166  0.0379 -0.3512
 8327W        W25174   1.609   9.598  15.552  0.1650 -0.1110  0.0223
 8328W        W25175  17.327   5.089   3.784 -0.1855 -0.1373 -0.2514
 8329W        W25176   0.514  15.166  14.405 -0.0070  0.0495 -0.2935
 8330W        W25177  15.762  11.877  11.577 -0.3889 -0.0375  0.2706
 8331W        W25178   0.619  17.309   5.004  0.1800  0.1562  0.4189
 8332W        W25179   3.008  10.425   2.831 -0.0672  0.0780  0.1287
 8333W        W25180   3.624  16.499   4.006  0.2013  0.2493  0.0872
 8334W        W25181  14.824   2.657  12.160  0.0340  0.1851  0.0363
 8335W        W25182  10.717  10.109   5.468  0.0248 -0.0629 -0.0231
 8336W        W25183  12.490   5.035   3.044  0.0152 -0.2177 -0.1675
 8337W        W25184  16.320   7.989  12.539  0.0665  0.0560  0.0897
 8338W        W25185  18.023  10.452   1.013 -0.2617  0.2744  0.3089
 8339W        W25186  11.844  12.691   2.311 -0.2433 -0.1900 -0.0711
 8340W        W25187   2.757  11.832   6.542 -0.3914  0.0773 -0.3095
 8341W        W25188  10.800  13.209  16.554  0.1566  0.1006  0.4543
 8342W        W25189  17.855   3.912  14.333 -0.2193  0.3831  0.1975
 8343W        W25190   1.349  15.018   3.476 -0.0319 -0.0308 -0.0273
 8344W        W25191  12.911   3.896  12.303 -0.1642  0.1083 -0.3349
 8345W        W25192  12.159   8.486   5.930  0.0542  0.1840 -0.2769
 8346W        W25193  11.088  11.294  13.769  0.2402 -0.0113  0.3908
 8347W        W25194  16.677   6.404   1.030  0.1901 -0.3319 -0.1345
 8348W        W25195   9.858  10.254  14.135  0.0198 -0.0795  0.0912
 8349W        W25196   1.634   4.472   4.823 -0.4119 -0.3015 -0.2862
 8350W        W25197   3.726  11.996  13.389  0.0373  0.1717  0.0260
 8351W        W25198   7.386   6.610   5.698 -0.2922  0.0580  0.2561
 8352W        W25199   7.044   9.418   0.306  0.0562  0.1113 -0.1969
 8353W        W25200  13.727  16.496   0.813  0.1394  0.0228  0.2048
 8354W        W25201   9.670  11.230   2.806  0.2313 -0.0847  0.1506
 8355W        W25202  13.678   5.788   3.797  0.4104  0.0981  0.1711
 8356W        W25203  15.263  10.401   1.947  0.1084 -0.1189  0.3393
 8357W        W25204  14.856   2.487  11.709 -0.2044 -0.1521  0.3483
 8358W        W25205   6.365   8.649   2.214 -0.0501  0.1232  0.2480
 8359W        W25206   2.664  12.657   0.166  0.0657 -0.0644  0.0333
 8360W        W25207   7.469   8.696   2.916  0.2694  0.2547 -0.2050
 8361W        W25208  17.690   5.486  14.631 -0.2973  0.1016  0.2493
 8362W        W25209   1.820   9.924  15.995 -0.0046  0.0268  0.0350
 8363W        W25210   7.781   8.656   1.573 -0.1586 -0.3705  0.0722
 8364W        W25211   4.064  14.579   0.446 -0.0994 -0.0657 -0.0027
 8365W        W25212   0.775   9.179  16.664 -0.0911  0.2448  0.1215
 8366W        W25213   8.649  10.161   1.114 -0.0136 -0.0060  0.0761
 8367W        W25214   0.204  15.165  15.505  0.1214  0.2390  0.1802
 8368W        W25215  12.782   4.570  11.449 -0.0338  0.2345 -0.0374
 8369W        W25216   6.521  17.201  14.752  0.1944 -0.1688  0.0769
 8370W        W25217   3.589   2.294   6.025 -0.2718  0.0389 -0.1529
 8371W        W25218  12.629  16.358  12.436  0.1468  0.0208  0.0935
 8372W        W25219   3.622  12.902  16.485 -0.0030 -0.0372 -0.1187
 8373W        W25220  16.217  12.320  12.883 -0.3483  0.2690  0.2298
 8374W        W25221  12.200  12.739   4.846  0.1630 -0.1289  0.0247
 8375W        W25222  10.246  15.153   6.239  0.0768  0.1136 -0.0102
 8376W        W25223  14.957   5.245  13.194 -0.2039 -0.0175  0.2584
 8377W        W25224   2.723   8.909   4.264 -0.0026 -0.1013 -0.0080
 8378W        W25225  16.577  10.232  12.997 -0.0228  0.1372 -0.1689
 8379W        W25226   1.779  12.475   6.613  0.1566  0.0240 -0.1258
 8380W        W25227   4.534  13.836  14.967  0.0590 -0.0991 -0.1356
 8381W        W25228  11.687   2.344  13.436  0.1318 -0.0426 -0.0216
 8382W        W25229  15.171  13.712  11.384  0.2563 -0.1197 -0.0996
 8383W        W25230  14.566   0.960  14.544  0.2118  0.1570 -0.2308
 8384W        W25231  14.701   7.629   0.215 -0.1368 -0.0455 -0.0598
 8385W        W25232   7.187   3.146  14.721 -0.2290 -0.2191 -0.0875
 8386W        W25233   5.251   8.569   4.536 -0.1197 -0.0029  0.5097
 8387W        W25234   8.732   6.768  13.344 -0.1789  0.0512 -0.0173
 8388W        W25235  15.481  15.630  13.932  0.2691  0.5987 -0.2705
 8389W        W25236   5.227  16.988   3.063  0.0933 -0.1647 -0.0209
 8390W        W25237   9.498   8.557  15.712  0.3264  0.1595 -0.0336
 8391W        W25238   0.717   9.818   4.845  0.0556 -0.1309  0.1115
 8392W        W25239   1.813  10.767  14.290 -0.1494 -0.0492 -0.0679
 8393W        W25240  11.513   8.884   4.816  0.4054  0.3901  0.1322
 8394W        W25241  12.953  14.704  11.622 -0.1078  0.0725 -0.2409
 8395W        W25242   5.051  12.793   2.710  0.1639 -0.1878 -0.0807
 8396W        W25243   1.658  14.186  12.607 -0.1591 -0.3309 -0.1342
 8397W        W25244   1.102   7.362  14.426  0.0664  0.0940 -0.1824
 8398W        W25245   7.115   0.561   4.305  0.1265 -0.3593 -0.1176
 8399W        W25246   9.786   3.056  11.780  0.0337  0.1591  0.0226
 8400W        W25247  13.007  17.356  12.252 -0.2457 -0.1723  0.0061
 8401W        W25248   2.155  15.976   3.755  0.0573  0.1327 -0.0722
 8402W        W25249  14.459  12.162  14.542  0.0663 -0.0998  0.1323
 8403W        W25250  14.623  15.064  13.197  0.1906 -0.0074 -0.0391
 8404W        W25251   0.078  16.483   4.644  0.3466  0.3605 -0.0524
 8405W        W25252   5.383  10.436   5.898  0.1335  0.0076  0.0258
 8406W        W25253   3.734   9.244   4.782 -0.4258  0.1834  0.2716
 8407W        W25254   7.292  14.841  15.238  0.1963  0.1563  0.2467
 8408W        W25255  13.248   2.803   4.718  0.1643 -0.0910  0.0656
 8409W        W25256   9.663   4.758   2.595  0.1305  0.0985  0.0110
 8410W        W25257   8.863  15.364   5.346  0.0027 -0.1678 -0.0310
 8411W        W25258  14.095  15.160  14.002  0.2345  0.1884  0.0331
 8412W        W25259  10.291   2.271  12.821 -0.0217  0.1185 -0.0950
 8413W        W25260   1.138   2.731  14.454 -0.3599  0.0303  0.2629
 8414W        W25261   0.237   0.517  10.410 -0.0712 -0.0290 -0.2314
 8415W        W25262  15.797  16.800  15.314  0.1338 -0.2142  0.1875
 8416W        W25263   7.093   9.796  15.825 -0.0557 -0.1760 -0.1470
 8417W        W25264   5.506   1.652  13.651 -0.1738  0.2050 -0.2091
 8418W        W25265  10.876   2.863   2.670 -0.0575  0.1346 -0.0525
 8419W        W25266  11.374  15.196   0.721 -0.0535 -0.0510  0.0513
 8420W        W25267   8.185  15.623  16.119  0.0810  0.0044 -0.0860
 8421W        W25268   6.409  16.724  15.395 -0.2169 -0.0523  0.1954
 8422W        W25269  15.080   5.950  15.969 -0.1165 -0.0469  0.3191
 8423W        W25270   5.151   1.552  11.194 -0.0489  0.1238  0.0997
 8424W        W25271  17.786   5.015   3.591 -0.2181  0.0367 -0.1097
 8425W        W25272   7.949  10.820  14.402 -0.2045  0.3096  0.1194
 8426W        W25273  10.083  15.198  13.370  0.1863 -0.1774  0.2390
 8427W        W25274  17.833  12.947  15.907  0.1251  0.0360 -0.0856
 8428W        W25275  11.265   6.067  12.658  0.2456 -0.0719  0.1430
 8429W        W25276   8.868  12.991   4.681  0.0114 -0.0178 -0.0868
 8430W        W25277  15.102   6.640  13.307 -0.1247  0.0867 -0.2215
 8431W        W25278   3.860   7.369  16.343 -0.0084  0.1013 -0.1299
 8432W        W25279   2.512   9.078   2.101  0.0700 -0.1380  0.1258
 8433W        W25280   5.424  16.906   1.448  0.0869 -0.1274 -0.1804
 8434W        W25281   1.861   0.518   2.477 -0.1859  0.0701  0.4117
 8435W        W25282   1.273   6.631  16.143  0.3599  0.1737  0.0643
 8436W        W25283  16.443   6.666   4.543  0.4759  0.0615  0.0304
 8437W        W25284   4.547   4.350   4.088 -0.1116 -0.0225  0.0217
 8438W        W25285   9.926  12.170   0.408 -0.0306 -0.0170  0.0243
 8439W        W25286  14.768   6.155   1.495 -0.0036  0.1039 -0.2357
 8440W        W25287   1.379   6.849  13.142  0.0117  0.1235 -0.1317
 8441W        W25288  11.690   5.187  14.331  0.2411  0.0394 -0.0127
 8442W        W25289   2.216   0.494   1.838  0.1864  0.1430  0.0569
 8443W        W25290  15.240   9.335  16.134 -0.0931 -0.3819  0.0171
 8444W        W25291  10.976  15.019  11.263  0.1161 -0.2017 -0.2739
 8445W        W25292   2.861   4.338   1.666 -0.1810  0.0812  0.0447
 8446W        W25293   1.458   1.617  11.936 -0.2965 -0.0364  0.1821
 8447W        W25294  16.576  14.117  16.604  0.2628 -0.1465  0.1532
 8448W        W25295   1.434   9.389  12.270 -0.2072  0.0652 -0.2587
 8449W        W25296   4.441   6.351   2.665  0.1144  0.2276  0.0404
 8450W        W25297   7.046  10.009  16.314 -0.3836  0.2294 -0.0817
 8451W        W25298  13.594  15.250  14.791  0.0488  0.1233  0.0747
 8452W        W25299  13.590   3.923  16.275  0.1495 -0.2368  0.4044
 8453W        W25300   5.914   1.252   2.858 -0.2908 -0.3097  0.0299
 8454W        W25301  12.810   2.320   4.776 -0.2413  0.2444  0.2866
 8455W        W25302   5.996  18.016   3.251  0.0945 -0.2743  0.1435
 8456W        W25303   0.156   4.365  15.224  0.0940  0.1673 -0.0986
 8457W        W25304  14.767  16.724   5.043  0.1006 -0.1077  0.0251
 8458W        W25305   0.909   1.871   2.870 -0.0551  0.2364  0.1881
 8459W        W25306  10.334  15.009  14.383  0.3198  0.1485 -0.1228
 8460W        W25307  15.088  16.565   2.846 -0.0239 -0.0299  0.4063
 8461W        W25308  14.970  12.360  14.749  0.1473 -0.0702  0.0044
 8462W        W25309   3.137   9.250  14.447 -0.0231 -0.0407 -0.4154
 8463W        W25310   4.511   6.428  15.060  0.3743 -0.2516  0.0741
 8464W        W25311   5.548   9.371   0.302 -0.1797  0.1961  0.0493
 8465W        W25312  16.029   4.972   3.990 -0.0057  0.2582  0.0444
 8466W        W25313  14.785  12.320  15.234 -0.1431 -0.1282  0.1718
 8467W        W25314   1.114   1.212   4.291 -0.0872  0.0903  0.0125
 8468W        W25315   4.208   4.760   4.855 -0.1212  0.1381 -0.1484
 8469W        W25316   3.988   9.540  15.716  0.0523  0.2969  0.1685
 8470W        W25317   6.224   7.896   5.080 -0.2941 -0.3334 -0.0241
 8471W        W25318   8.972   2.213  13.650 -0.0059 -0.1528 -0.0446
 8472W        W25319  15.309   7.796   3.387  0.0292  0.0998  0.1519
 8473W        W25320   8.937   4.291  12.673  0.0351  0.1314 -0.0292
 8474W        W25321   4.673   6.903   4.623 -0.0507  0.0284  0.1714
 8475W        W25322   3.230   0.872   0.712 -0.2659 -0.1882  0.0191
 8476W        W25323  13.022  10.858   4.013 -0.1723 -0.0028  0.0533
 8477W        W25324   1.812   0.661   3.191 -0.1010  0.0825 -0.0248
 8478W        W25325   1.695  17.935  12.046 -0.0505  0.0794  0.0603
 8479W        W25326  16.279   4.075  15.611 -0.2720 -0.1934  0.1389
 8480W        W25327   7.681  12.071   3.487 -0.2756  0.0131 -0.0892
 8481W        W25328   5.933   2.744  12.966  0.1002 -0.0743 -0.1467
 8482W        W25329   9.231   2.594   3.870  0.1024 -0.1379 -0.0881
 8483W        W25330   0.311  14.800   4.316  0.0936  0.1841 -0.2362
 8484W        W25331  15.352  11.017   1.535  0.0020  0.0547  0.0938
 8485W        W25332   4.831  12.616   0.800  0.1223  0.0151  0.1369
 8486W        W25333   5.082   6.354   1.919  0.1739  0.1281 -0.2641
 8487W        W25334  14.860   2.329   0.618  0.0320  0.1399  0.0255
 8488W        W25335  15.491  13.638   3.668  0.1499  0.2263 -0.0433
 8489W        W25336   4.571   0.237  12.595 -0.5722 -0.0215  0.0570
 8490W        W25337   9.460   2.873  14.440  0.1175 -0.3277 -0.1045
 8491W        W25338  17.459   6.667  11.867 -0.1043  0.1294  0.1840
 8492W        W25339  14.372  10.475  16.596 -0.0357  0.0729  0.1944
 8493W        W25340   7.340   2.572  11.552  0.2225  0.1792 -0.0083
 8494W        W25341  13.266   8.244  14.324 -0.1580 -0.0083  0.0840
 8495W        W25342   8.519   8.466   4.213  0.0320 -0.1503 -0.0429
 8496W        W25343  11.455   1.573   1.952 -0.2376  0.1327 -0.1387
 8497W        W25344   4.909   3.319  11.275  0.3164 -0.1257  0.0926
 8498W        W25345  12.053  13.237   4.228 -0.0991  0.2759 -0.1725
 8499W        W25346  14.632   5.198   4.586  0.0586 -0.0894  0.3111
 8500W        W25347  15.872   8.783  16.508 -0.0212  0.0869  0.0757
 8501W        W25348   8.968   9.066   3.429 -0.1771 -0.1058 -0.0819
 8502W        W25349   2.415  14.788  14.789 -0.0373 -0.0603 -0.2533
 8503W        W25350  11.740   0.504  15.514  0.0790  0.2976  0.2516
 8504W        W25351   6.218   9.897   2.844  0.0404 -0.1537 -0.2069
 8505W        W25352   2.432  16.925   2.250 -0.1422 -0.1938 -0.1085
 8506W        W25353   3.465  12.564   1.866 -0.0397 -0.2233 -0.0292
 8507W        W25354  10.875  14.856  16.232  0.1488  0.1737  0.0143
 8508W        W25355  11.380  16.570  16.524 -0.0009  0.0124  0.3131
 8509W        W25356   3.595   7.433   4.027  0.1604  0.2011 -0.2133
 8510W        W25357  13.893  12.425   2.607 -0.0496 -0.1285 -0.0228
 8511W        W25358  16.384  10.065   0.115 -0.1582 -0.0633  0.0024
 8512W        W25359  12.228  16.278   4.138 -0.4690  0.3074  0.1597
 8513W        W25360  13.826  11.214  16.288 -0.0935 -0.0969 -0.0026
 8514W        W25361   2.053   7.699  14.092 -0.2887 -0.3736 -0.0671
 8515W        W25362  17.480   5.731   0.180 -0.1676  0.1696  0.1338
 8516W        W25363   7.141   0.002  16.283 -0.2217 -0.1057  0.0762
 8517W        W25364   7.408  11.571  15.551 -0.1596 -0.0362 -0.1325
 8518W        W25365   8.614   1.190  13.851 -0.1271 -0.3064  0.0049
 8519W        W25366  15.658   8.910  11.114  0.1812 -0.0804  0.3021
 8520W        W25367  17.300  15.701   1.409  0.0613  0.2209  0.2571
 8521W        W25368   2.154   2.781  13.746  0.1359 -0.1008 -0.0439
 8522W        W25369  13.282  15.364  11.098 -0.0085  0.0148 -0.2310
 8523W        W25370   6.257   0.566   2.671 -0.2379  0.2464  0.1513
 8524W        W25371  15.990  14.503  13.756  0.3095 -0.3464 -0.3004
 8525W        W25372  17.005   3.939  13.247 -0.0477 -0.2183  0.3527
 8526W        W25373   4.443   8.048   1.460 -0.3815  0.0387 -0.0679
 8527W        W25374   9.927  13.072   5.331 -0.1926  0.0720  0.2172
 8528W        W25375  13.953  10.266   3.368  0.3722 -0.5580  0.1529
 8529W        W25376  11.241   1.325   1.058  0.1953  0.0988 -0.0878
 8530W        W25377   4.037   8.562   3.896 -0.0154  0.2130  0.1070
 8531W        W25378   9.340   0.874  14.167  0.0810 -0.2236 -0.1391
 8532W        W25379   9.956   7.904   1.817 -0.0279 -0.1192 -0.1251
 8533W        W25380  16.774  12.245  13.706  0.4027 -0.0359 -0.1480
 8534W        W25381   8.698  15.309  16.640  0.2675  0.0748 -0.0340
 8535W        W25382   7.704   6.488  16.434 -0.2536  0.2243  0.3794
 8536W        W25383  16.525   2.350  16.355  0.1749 -0.3286  0.0094
 8537W        W25384   0.973  16.654   1.659  0.4032  0.1640 -0.1063
 8538W        W25385   3.895   5.163   4.858  0.1412  0.1780 -0.1469
 8539W        W25386  11.253  14.214   1.193  0.0466 -0.2630 -0.0019
 8540W        W25387  14.552   4.448  16.109  0.4239  0.1393  0.0011
 8541W        W25388   3.055   2.809  12.730  0.3067 -0.3122 -0.0114
 8542W        W25389   6.084  16.744   0.460  0.2622  0.0845 -0.2338
 8543W        W25390  10.589  15.296  13.218  0.2417  0.0355 -0.0652
 8544W        W25391   0.540  14.668  13.576  0.0847 -0.0399  0.2648
 8545W        W25392   4.896   8.317   2.213  0.0115  0.0443 -0.0294
 8546W        W25393  15.109   9.369   4.498  0.2021 -0.0694  0.4130
 8547W        W25394  10.684  11.742  12.174  0.3370  0.4465  0.0228
 8548W        W25395   2.517  15.487   5.048 -0.0105  0.2311 -0.1936
 8549W        W25396  15.570  13.036  13.401 -0.0668 -0.1417 -0.0748
 8550W        W25397  16.001  15.943   3.705 -0.0373 -0.0203 -0.2377
 8551W        W25398  11.889   8.326  14.828 -0.1118  0.2203  0.2979
 8552W        W25399  16.185  17.313   0.138  0.1875 -0.2997 -0.2525
 8553W        W25400   5.362  13.117  11.836 -0.1068 -0.4897 -0.2164
 8554W        W25401  14.202   8.302  14.215  0.2298  0.0336 -0.0851
 8555W        W25402   7.172   2.129  11.729  0.0070 -0.3023  0.2078
 8556W        W25403  10.160   7.790   4.195 -0.3005 -0.1761 -0.1230
 8557W        W25404  14.834   6.685  14.402 -0.0864  0.1895 -0.1138
 8558W        W25405  15.361   6.247  11.801 -0.1736  0.0258  0.1149
 8559W        W25406  12.144   0.997   0.801 -0.2117 -0.0587  0.1705
 8560W        W25407   9.891   2.475   0.883 -0.0507 -0.0490  0.0333
 8561W        W25408  16.097   8.789   4.058 -0.0117 -0.3129 -0.1201
 8562W        W25409   9.078   8.762   5.800 -0.0054  0.1857  0.1085
 8563W        W25410   2.332  12.914   3.716 -0.1276 -0.2268 -0.2822
 8564W        W25411   8.981   0.481  16.457  0.0402 -0.0054  0.0929
 8565W        W25412   0.855  16.300   2.600  0.2519  0.2949 -0.0655
 8566W        W25413  11.946  12.589   3.292  0.3632 -0.0000  0.0580
 8567W        W25414  18.061   5.468   0.636 -0.0359 -0.1904  0.2675
 8568W        W25415   3.829   5.729  11.771  0.0413  0.3838 -0.1391
 8569W        W25416   2.128   4.659  16.356  0.2745  0.2010  0.2409
 8570W        W25417  16.308  14.959   0.195 -0.0377  0.1064 -0.2175
 8571W        W25418   8.290   8.419   2.510 -0.0308  0.3304  0.0828
 8572W        W25419  16.507   6.219   1.557 -0.5283  0.2253  0.1516
 8573W        W25420  12.641  14.188  13.965  0.0306 -0.1435  0.1812
 8574W        W25421  10.782   8.029   0.135  0.1448 -0.0064 -0.0625
 8575W        W25422   1.658  18.020   0.687  0.1550 -0.0706 -0.1056
 8576W        W25423   1.111   8.702  16.240  0.1269 -0.0270  0.1209
 8577W        W25424  11.560  15.812   4.195  0.1400 -0.2865  0.0196
 8578W        W25425   9.917  13.923  14.425  0.3607  0.0197  0.0070
 8579W        W25426   3.064   1.521   1.215 -0.1816  0.1571 -0.2595
 8580W        W25427  16.301  10.632   5.352 -0.0120  0.1990 -0.1246
 8581W        W25428   9.859   2.226  12.515 -0.2306  0.0636 -0.1319
 8582W        W25429   0.705  15.381   3.800  0.0076  0.1389  0.2337
 8583W        W25430  15.581   0.018  15.792  0.1724  0.0992  0.0215
 8584W        W25431  16.250  16.527  11.809  0.1302  0.0274 -0.0804
 8585W        W25432  14.868   5.179  14.437 -0.1502 -0.2821 -0.2837
 8586W        W25433  10.932  13.766  12.197  0.4166  0.2603  0.2343
 8587W        W25434  17.457   4.897  15.281 -0.0992  0.0997 -0.0239
 8588W        W25435   8.156   1.481  14.032 -0.4849  0.0924  0.2800
 8589W        W25436   8.769  10.799  13.001 -0.1288 -0.1335  0.1519
 8590W        W25437  15.553  15.351   0.363 -0.0526 -0.3337 -0.0474
 8591W        W25438   7.383   6.122  14.344 -0.4210  0.1439 -0.2770
 8592W        W25439  14.942  16.345   5.995  0.0270  0.0048  0.2192
 8593W        W25440  17.203   6.714  15.847  0.4523 -0.0951 -0.1938
 8594W        W25441  13.567  13.708   2.487 -0.0572  0.1988 -0.1226
 8595W        W25442   1.888   1.721  12.603  0.0892 -0.0216  0.1224
 8596W        W25443  11.806   7.373   0.668  0.0915  0.2115 -0.0321
 8597W        W25444   3.101   3.928   1.368 -0.1609  0.1484  0.0398
 8598W        W25445  14.556   2.371  11.257 -0.0275  0.1028 -0.2045
 8599W        W25446   1.192   3.128  12.636  0.0106 -0.0734 -0.0987
 8600W        W25447  14.735  17.717   0.737  0.2503 -0.0744  0.1405
 8601W        W25448  13.316  10.946  14.609  0.1023 -0.1268  0.3293
 8602W        W25449  10.731   0.074   4.045  0.1342  0.1577 -0.1499
 8603W        W25450  12.235  12.410   4.185 -0.2620 -0.2189 -0.0261
 8604W        W25451   0.007  13.091   0.211  0.2670 -0.0295  0.0781
 8605W        W25452   4.296   9.082   4.817 -0.0248  0.0532 -0.0028
 8606W        W25453   3.797   2.765   0.585 -0.2441 -0.2251  0.1594
 8607W        W25454  17.515   9.966  14.720 -0.0190 -0.0948 -0.1170
 8608W        W25455   9.770   0.634  13.955  0.2037  0.4651  0.2540
 8609W        W25456  11.828   7.724   2.830 -0.0453  0.0407  0.0868
 8610W        W25457   1.473   8.070   6.293 -0.1449  0.0753  0.1926
 8611W        W25458  10.494   3.433   2.112 -0.2482 -0.0046  0.0980
 8612W        W25459  13.157  10.247   4.232 -0.3019  0.3589 -0.1962
 8613W        W25460   2.366  11.490  12.928 -0.2480 -0.1504 -0.1882
 8614W        W25461   6.967  14.427   4.144  0.0368 -0.2551 -0.0884
 8615W        W25462   0.686   8.755   1.696  0.0322  0.3081  0.2651
 8616W        W25463  17.393  16.720  15.286  0.1296 -0.3076  0.0420
 8617W        W25464  10.072  15.189  16.081 -0.1725 -0.1025 -0.0524
 8618W        W25465   7.507   4.286  16.376  0.1156 -0.0891  0.1502
 8619W        W25466   4.011   2.750   4.964 -0.2822 -0.0646 -0.2850
 8620W        W25467   6.557  10.365  11.900  0.1651  0.3678  0.0627
 8621W        W25468  11.832  11.574   5.840  0.0391 -0.3746 -0.0960
 8622W        W25469   4.450  15.800  12.243 -0.2312 -0.1117 -0.1798
 8623W        W25470  16.493  12.987   2.823  0.1065 -0.3308  0.2767
 8624W        W25471  12.810   4.584   4.789  0.1972 -0.2643  0.0482
 8625W        W25472  14.969  13.455   3.941 -0.0606  0.2100 -0.0669
 8626W        W25473   4.912  13.278   4.503 -0.1480 -0.3412  0.0675
 8627W        W25474  11.223   9.706   3.557 -0.0586 -0.0023 -0.0894
 8628W        W25475  17.198  12.776  12.420  0.0687 -0.0689 -0.1534
 8629W        W25476  13.672  11.774  15.124  0.2050 -0.1263  0.0582
 8630W        W25477   1.932   2.271   1.514  0.1042 -0.2455  0.0556
 8631W        W25478   4.266   6.974  11.800  0.4157 -0.0129 -0.1058
 8632W        W25479   1.183  15.504   4.970 -0.0316  0.1240  0.1689
 8633W        W25480   5.981  12.154   0.755 -0.0414 -0.0246 -0.0595
 8634W        W25481  12.948  11.040  12.827 -0.1010  0.1804 -0.0983
 8635W        W25482   7.605  11.417   2.870 -0.0368 -0.1766  0.0621
 8636W        W25483  17.406   9.723  12.037  0.2586  0.2080 -0.0697
 8637W        W25484   2.257  15.055  14.397 -0.0429  0.2156 -0.2107
 8638W        W25485   0.035   5.050  14.497 -0.1954 -0.2224 -0.1578
 8639W        W25486   2.131   2.784   1.437  0.0914  0.1130  0.0186
 8640W        W25487  16.212   0.781   3.864 -0.1366  0.0079 -0.1901
 8641W        W25488  17.741   8.114   4.248  0.1339 -0.0469  0.0365
 8642W        W25489   7.092   0.727  11.959 -0.0260 -0.1640  0.2046
 8643W        W25490   0.103   0.050   3.321 -0.1387 -0.1064  0.1501
 8644W        W25491   8.087  13.381   1.835 -0.2206 -0.3353  0.2495
 8645W        W25492  12.818  17.268  12.817 -0.1677  0.1468 -0.0024
 8646W        W25493  15.586  16.423   1.756  0.1885  0.0939 -0.2851
 8647W        W25494  12.107   3.803  16.251  0.2069 -0.0925  0.1866
 8648W        W25495  13.170   6.909  14.346 -0.0880  0.0535  0.0391
 8649W        W25496   1.128   6.487   3.436 -0.3386  0.2931  0.0181
 8650W        W25497  17.036  16.449   0.446 -0.1615  0.2228 -0.0844
 8651W        W25498   9.402   0.696   1.358 -0.2373  0.2889  0.1440
 8652W        W25499   9.909   4.787   5.637  0.1045 -0.0325 -0.1058
 8653W        W25500   4.586  11.320   0.494 -0.0260  0.0532 -0.2149
 8654W        W25501  16.424   4.174   1.760  0.1592 -0.0768 -0.1896
 8655W        W25502   1.720   7.383  13.158  0.0565 -0.1091 -0.2118
 8656W        W25503   6.203  17.911   1.397  0.2783 -0.2703 -0.3602
 8657W        W25504   9.512   1.209   6.019 -0.0968  0.1629  0.0023
 8658W        W25505   2.531   3.124   2.336 -0.0352  0.0818  0.1498
 8659W        W25506  10.823   4.292  13.606 -0.2156 -0.1423  0.0675
 8660W        W25507  16.748  14.837   4.538  0.1616 -0.0246  0.0003
 8661W        W25508   2.249   9.909   6.540  0.1967  0.0308  0.1680
 8662W        W25509   6.786  11.692   2.653 -0.3745 -0.1485 -0.0178
 8663W        W25510  16.349   3.364   4.241 -0.2338 -0.2967 -0.1781
 8664W        W25511   4.304  13.835  15.951  0.0175  0.1437 -0.0066
 8665W        W25512   0.454   9.302   2.385 -0.3529 -0.0029  0.2337
 8666W        W25513  12.041   8.294  12.985  0.2991  0.0030 -0.0793
 8667W        W25514   0.018  12.306  11.806 -0.0494  0.2368 -0.3137
 8668W        W25515  15.986  14.122  12.443 -0.0568  0.0859  0.2222
 8669W        W25516  17.295  17.996   4.132 -0.3606 -0.2888 -0.0341
 8670W        W25517  17.021   0.018  15.969  0.0520 -0.2068 -0.2359
 8671W        W25518  12.372   6.162  15.226  0.1072 -0.0279  0.0910
 8672W        W25519   1.463  10.713  15.976  0.2265  0.2376  0.1146
 8673W        W25520   5.679   5.862   4.846 -0.1864  0.0532  0.2764
 8674W        W25521  13.527   6.051  13.390  0.2399 -0.0152 -0.2174
 8675W        W25522   2.208   8.301  13.589 -0.0449 -0.2444 -0.0337
 8676W        W25523  11.017  16.110  11.680  0.0350  0.1466  0.3206
 8677W        W25524   3.951   6.565   1.763 -0.2358 -0.0885 -0.0806
 8678W        W25525   4.900   4.415  12.400  0.1609 -0.3315 -0.2184
 8679W        W25526  11.180   6.541   6.251 -0.0655 -0.0270  0.1186
 8680W        W25527  14.528  17.419  13.274 -0.0267 -0.1352 -0.0031
 8681W        W25528  16.973   4.492   2.116 -0.0740  0.1496  0.1968
 8682W        W25529   4.739   1.279  15.995  0.2265 -0.1359 -0.2258
 8683W        W25530   1.559  14.406  12.143  0.2546 -0.1809 -0.1276
 8684W        W25531   2.743  13.686   4.099 -0.0406 -0.1559 -0.2765
 8685W        W25532  11.485  16.642   1.124  0.0705 -0.4574 -0.0834
 8686W        W25533   7.659   4.962   3.617  0.0408 -0.0013  0.1078
 8687W        W25534  15.597  14.501  12.395  0.0828  0.0072  0.0333
 8688W        W25535   1.438  11.607   4.953 -0.2276 -0.0740  0.0347
 8689W        W25536  12.679  14.434  12.991 -0.0376  0.0639 -0.1226
 8690W        W25537  11.690   2.764   2.676  0.1307 -0.1263 -0.1875
 8691W        W25538   0.630   1.138   5.970 -0.2160  0.2967  0.1984
 8692W        W25539  16.755   0.922  11.151 -0.1403 -0.1054  0.1046
 8693W        W25540  16.207   9.390  13.844  0.3262  0.0357  0.2912
 8694W        W25541  15.047  15.590  11.015  0.0105  0.0288 -0.1055
 8695W        W25542   2.708   3.017  12.194 -0.1101  0.1738 -0.1809
 8696W        W25543  17.770   9.973   0.890  0.2974 -0.2116  0.0059
 8697W        W25544   0.781  13.335   1.137  0.2060  0.2515 -0.0157
 8698W        W25545   8.902   2.135   2.604  0.3425 -0.2666 -0.4021
 8699W        W25546  17.882   8.049   1.315 -0.2918 -0.4169 -0.0338
 8700W        W25547   4.000  11.019  14.655 -0.1678 -0.0519 -0.3943
 8701W        W25548   8.874  15.746   0.735  0.1451  0.0135  0.1324
 8702W        W25549  13.774   8.903  13.231 -0.2025 -0.0617  0.2255
 8703W        W25550   4.471   7.906   4.069  0.3426 -0.1452  0.0423
 8704W        W25551  13.318   3.191   1.462 -0.3339  0.1203  0.0038
 8705W        W25552   6.116  17.958   0.911  0.0073  0.2438  0.0419
 8706W        W25553  16.768  14.817   1.011 -0.0748 -0.3686 -0.0561
 8707W        W25554   9.851  14.227   2.449  0.2083  0.1146 -0.1888
 8708W        W25555   8.408   1.073  12.893 -0.0506  0.1289  0.0466
 8709W        W25556   5.518   5.567  13.324  0.3149 -0.2942 -0.0689
 8710W        W25557  16.269  14.709   2.075 -0.0664 -0.0430  0.0401
 8711W        W25558   6.463  17.454   3.037  0.0445 -0.0662  0.2915
 8712W        W25559  15.501   4.505  15.928 -0.0855 -0.1756  0.2716
 8713W        W25560  10.260  17.928  12.479 -0.1477  0.1364 -0.1330
 8714W        W25561  10.137  17.671   4.481 -0.1292 -0.1382  0.1653
 8715W        W25562   0.093   0.920   5.296 -0.1652  0.2007  0.0395
 8716W        W25563   6.090  16.977   1.693 -0.3004 -0.1458 -0.1705
 8717W        W25564  10.203   7.279   3.174  0.0254  0.3314 -0.1368
 8718W        W25565   2.459  17.768  15.598 -0.1494 -0.0933 -0.1105
 8719W        W25566   4.914   8.098   0.128 -0.0345 -0.6005 -0.1097
 8720W        W25567   5.062   8.794  13.093  0.1015 -0.1127 -0.0847
 8721W        W25568   8.315   9.873   4.094  0.5497 -0.1355  0.2267
 8722W        W25569   6.055  14.969  15.729  0.0809 -0.4622  0.2863
 8723W        W25570   3.473   7.277  15.062 -0.0417 -0.4309  0.1650
 8724W        W25571   5.844   9.618  16.567 -0.1065  0.2010 -0.0171
 8725W        W25572   1.507  11.024  12.832 -0.3716 -0.2500 -0.3667
 8726W        W25573  11.244  14.467  13.325 -0.1365  0.0851  0.2304
 8727W        W25574  16.467   0.733   4.533  0.0896 -0.0754  0.2406
 8728W        W25575   7.397  14.650   5.604  0.3451 -0.0643  0.1835
 8729W        W25576  10.455   9.205  16.594  0.0135 -0.1728 -0.3787
 8730W        W25577   2.813  12.698   3.020  0.0160  0.2082  0.2106
 8731W        W25578   8.529   5.450   1.989 -0.3293  0.1639 -0.1586
 8732W        W25579   1.926   7.666  16.283 -0.2029  0.0660 -0.3505
 8733W        W25580   0.961   4.819  12.419 -0.2005 -0.3643  0.1907
 8734W        W25581  17.250  15.937  16.420  0.1137  0.0152  0.2566
 8735W        W25582   7.568   3.973  12.904  0.0203 -0.1514 -0.1475
 8736W        W25583   7.756  12.508  13.730 -0.0219  0.2232 -0.0964
 8737W        W25584  11.489   7.053   0.437  0.3553  0.1386  0.1223
 8738W        W25585  14.636   9.797   5.845  0.2006  0.2734  0.1967
 8739W        W25586  12.854  17.746  10.936 -0.3256 -0.0682 -0.4548
 8740W        W25587  14.264  14.093  13.248  0.0259  0.1385 -0.0310
 8741W        W25588   3.347   5.717  15.603  0.0577  0.1183 -0.0420
 8742W        W25589   6.276  15.959   5.425 -0.1891 -0.0696  0.6209
 8743W        W25590  11.881   6.816   5.470 -0.0047 -0.2967  0.3395
 8744W        W25591  12.030   5.040   2.017 -0.3305 -0.1307  0.1248
 8745W        W25592  13.990   6.473  14.831 -0.0762 -0.0456 -0.1337
 8746W        W25593  14.438   8.274   0.734 -0.2451 -0.0684  0.1454
 8747W        W25594   0.365   9.772   2.610 -0.2978 -0.2221 -0.0584
 8748W        W25595  13.171  11.967  11.596 -0.4334 -0.0952  0.2030
 8749W        W25596  11.582  14.652  12.266  0.1216 -0.0255  0.0580
 8750W        W25597  17.881  13.316  11.788 -0.0002 -0.0551 -0.0621
 8751W        W25598  11.172   1.892  15.018  0.0917  0.3117  0.0579
 8752W        W25599  14.782   4.365   2.145 -0.4682  0.1484 -0.2317
 8753W        W25600  16.091   0.235  13.050  0.0382  0.1210 -0.1073
 8754W        W25601   2.778  14.172   5.561 -0.2176 -0.0034  0.1888
 8755W        W25602  17.269   7.417   1.611 -0.1541 -0.1432  0.1511
 8756W        W25603   0.461   0.958   0.538 -0.2991 -0.0260 -0.0569
 8757W        W25604  12.966  10.468  13.897 -0.2235 -0.0810 -0.0231
 8758W        W25605  13.875   9.276   0.553  0.0779 -0.0387  0.1122
 8759W        W25606  16.761   0.960   2.920 -0.2895  0.1270 -0.0539
 8760W        W25607   3.765   7.311   3.530 -0.4079  0.0519 -0.0667
 8761W        W25608  12.938   6.290   0.896  0.1463  0.4574  0.0788
 8762W        W25609  16.238  12.637   2.010 -0.1696 -0.4039 -0.1341
 8763W        W25610  12.315   3.067   4.664 -0.1078 -0.1694  0.0350
 8764W        W25611   9.017   9.877  14.552  0.1510  0.0141  0.3533
 8765W        W25612   0.373   0.914   2.013 -0.1938  0.2158 -0.0591
 8766W        W25613  14.331   7.275   0.586  0.1832  0.0737  0.0723
 8767W        W25614  11.657  13.458   1.332 -0.1434  0.0222 -0.1713
 8768W        W25615   5.937   5.236  16.514 -0.2397 -0.1049  0.1765
 8769W        W25616   3.531   7.995  14.122  0.0864 -0.2063 -0.3013
 8770W        W25617  12.146  17.492   3.288 -0.0866  0.1662  0.2183
 8771W        W25618  16.949  13.731  15.701 -0.2696  0.0533 -0.0091
 8772W        W25619  11.416  13.136  12.995  0.0570 -0.1265  0.4532
 8773W        W25620  14.031  12.956   2.936  0.1763  0.1264  0.0994
 8774W        W25621   4.456   0.516   3.095  0.2475 -0.0576 -0.0617
 8775W        W25622  16.329  16.202  13.496 -0.5487 -0.2216  0.1854
 8776W        W25623   3.899   6.408  15.136  0.1481 -0.1870 -0.4181
 8777W        W25624   8.639  10.160   3.310  0.0041 -0.0289  0.2475
 8778W        W25625   1.208  12.238   2.772 -0.2886 -0.0233 -0.0354
 8779W        W25626   0.269  16.985   5.309  0.1769 -0.2290  0.2006
 8780W        W25627   5.804   0.415   5.558  0.0866  0.0765 -0.0729
 8781W        W25628   8.825   8.782  15.677  0.1490 -0.1618  0.2920
 8782W        W25629  17.165   2.052   1.042 -0.2940 -0.1852 -0.4069
 8783W        W25630  17.990  14.656   1.877  0.2084  0.1052  0.1559
 8784W        W25631  12.914   9.103  13.615  0.0492  0.0170  0.1793
 8785W        W25632   2.933   2.348  16.288  0.0319  0.3950 -0.1274
 8786W        W25633   7.533   1.643   3.612  0.1115  0.0327 -0.1249
 8787W        W25634   0.412   9.437  14.865  0.1920  0.0778  0.1710
 8788W        W25635   1.439  13.432   4.438 -0.0553 -0.2197 -0.2680
 8789W        W25636  15.528   7.134   1.183  0.2192 -0.2099  0.1029
 8790W        W25637   6.144   8.811   4.562  0.0580 -0.0151 -0.1677
 8791W        W25638   8.065   8.319  14.559 -0.1494 -0.2896 -0.1637
 8792W        W25639   2.794   3.543   2.625  0.3007 -0.0240 -0.0910
 8793W        W25640  14.691  13.856  11.954 -0.2244 -0.4400  0.0031
 8794W        W25641   9.428   8.549  14.705  0.0096  0.0334 -0.2812
 8795W        W25642  14.388  17.112   0.090  0.0280  0.1275  0.0431
 8796W        W25643   7.717   9.915   5.502  0.2103  0.2426 -0.1136
 8797W        W25644   1.050  13.611  12.361  0.2834  0.4900  0.0480
 8798W        W25645  14.567  16.228   4.161  0.2202  0.0399 -0.1292
 8799W        W25646   1.980   6.514   0.967 -0.2842 -0.0624  0.1262
 8800W        W25647  16.950  17.205  14.784  0.1075 -0.2725  0.1677
 8801W        W25648   5.517  11.289  15.216 -0.0790  0.0444 -0.1010
 8802W        W25649   2.836  15.058   0.658 -0.0784 -0.0387  0.0019
 8803W        W25650  13.508   8.099   4.053 -0.0499 -0.1625 -0.3910
 8804W        W25651   1.793   8.575   3.016  0.0571  0.0218 -0.1045
 8805W        W25652  14.324   6.433  13.732  0.0086 -0.2979 -0.1228
 8806W        W25653  13.406  17.307  15.421 -0.3946 -0.2168 -0.0098
 8807W        W25654   4.861   7.349  16.408  0.0346 -0.1061  0.0648
 8808W        W25655  16.960  13.648   4.514 -0.1121 -0.0433  0.0238
 8809W        W25656  13.878   3.547   2.873 -0.2284 -0.1721 -0.1528
 8810W        W25657   7.895  17.307   1.580 -0.2056 -0.0455 -0.0581
 8811W        W25658   0.995   2.772   2.585  0.2353 -0.0217 -0.1472
 8812W        W25659  15.497  15.640  10.632 -0.0063 -0.1618  0.1393
 8813W        W25660   3.072  10.641   5.094 -0.0705 -0.0588 -0.0132
 8814W        W25661   4.668  10.513  16.470  0.2829 -0.1633 -0.4070
 8815W        W25662  10.873   7.349  15.481 -0.0196 -0.2941 -0.0502
 8816W        W25663   9.421  12.195   0.405  0.0726 -0.0147  0.1612
 8817W        W25664   7.832   2.202   4.137 -0.1220  0.0244  0.0257
 8818W        W25665   6.570  16.894  14.343 -0.0716  0.2689  0.1783
 8819W        W25666   3.919   0.426  13.743 -0.2367  0.0837  0.2807
 8820W        W25667  11.193   3.624  11.546  0.1730 -0.1976 -0.0585
 8821W        W25668  16.846  12.639   3.564 -0.0005  0.1024 -0.0685
 8822W        W25669   2.555   2.471  11.410 -0.0794 -0.1539  0.2393
 8823W        W25670   6.133   3.499   1.312 -0.2078 -0.2757  0.1986
 8824W        W25671  15.978   3.223  15.280  0.0823 -0.1518  0.3357
 8825W        W25672   4.019  13.457   0.830  0.2622  0.0535  0.1171
 8826W        W25673  12.821   3.788  15.201 -0.3905 -0.0348  0.5516
 8827W        W25674  15.498   8.200   3.669 -0.0401  0.1691  0.1152
 8828W        W25675  16.174   6.733   0.225 -0.0093 -0.1323  0.3403
 8829W        W25676   1.202   6.187   1.066 -0.1466  0.1123  0.1900
 8830W        W25677   9.872   7.496   1.099  0.1126 -0.0172  0.1722
 8831W        W25678   9.110  10.504  13.780  0.0084  0.1665  0.1546
 8832W        W25679  10.516   9.442  13.578 -0.0231 -0.1002 -0.1313
 8833W        W25680   4.061   4.340   5.161  0.2176  0.0590 -0.2357
 8834W        W25681   0.366   3.007  15.239 -0.1570 -0.0623 -0.1773
 8835W        W25682   7.867   1.280   3.615 -0.0066 -0.0887 -0.3643
 8836W        W25683  11.556   8.322   0.114 -0.0320 -0.3003 -0.3579
 8837W        W25684  11.716   2.834   0.925 -0.3729 -0.0953 -0.2307
 8838W        W25685   9.927  12.216  12.679 -0.1622  0.1746 -0.0447
 8839W        W25686   5.941   8.416  13.598  0.1116 -0.0442  0.2766
 8840W        W25687   5.122  14.644   2.319  0.2399  0.0976 -0.2336
 8841W        W25688   9.171  12.317  13.317 -0.1715  0.1425  0.1486
 8842W        W25689  10.404  17.754  14.792 -0.3927  0.0086 -0.1449
 8843W        W25690   6.512   3.296   3.633  0.3380  0.3893 -0.0449
 8844W        W25691  13.543  12.250  13.112  0.1821  0.0595  0.4471
 8845W        W25692  12.537  17.297  12.144  0.0666 -0.1316  0.0692
 8846W        W25693   7.764   3.552   3.849 -0.3292  0.0374  0.1181
 8847W        W25694   4.916  16.848  13.610  0.2892  0.3520  0.0865
 8848W        W25695  11.241  12.653   2.244  0.0295  0.0838  0.0020
 8849W        W25696   1.986  16.606   3.286  0.1591 -0.2725 -0.1065
 8850W        W25697   2.780  12.225   0.395  0.0563  0.1287 -0.2006
 8851W        W25698   8.230  11.097  15.197  0.1559  0.2622 -0.3005
 8852W        W25699   2.729   1.924   1.396 -0.1761 -0.0118 -0.1104
 8853W        W25700   8.868   2.608   4.366 -0.0688 -0.2586 -0.0867
 8854W        W25701  15.944  17.579   4.786  0.1425 -0.3746 -0.0381
 8855W        W25702   2.396  13.369   3.299  0.3677 -0.0770 -0.1941
 8856W        W25703  16.227  15.233  14.706 -0.5544 -0.0670 -0.0317
 8857W        W25704  13.613  17.276  14.959  0.0410  0.1199 -0.2968
 8858W        W25705  12.335   3.773   2.331 -0.0942 -0.2036  0.1336
 8859W        W25706   7.731   9.452  16.404 -0.0197  0.1255  0.1279
 8860W        W25707  12.646   6.735   0.990  0.1605  0.2031  0.1108
 8861W        W25708   4.484   9.026  14.591  0.3008  0.0007 -0.1333
 8862W        W25709  13.927   4.055   4.719 -0.0802 -0.2166  0.2177
 8863W        W25710   8.406   3.697  14.392 -0.1529 -0.2236  0.0923
 8864W        W25711  13.722  11.893  11.711  0.2406 -0.0623 -0.3494
 8865W        W25712   1.560   0.279   4.101  0.1046 -0.2316 -0.3179
 8866W        W25713   7.406   1.561  14.477  0.0528 -0.0533 -0.1956
 8867W        W25714   8.782   9.466  14.471  0.1836 -0.0037  0.1868
 8868W        W25715  14.453  17.967  12.158  0.2467  0.1632  0.0760
 8869W        W25716  15.354  11.463   2.288  0.1824 -0.2790  0.2257
 8870W        W25717   4.331  11.111   4.087 -0.0646  0.2467  0.3865
 8871W        W25718   1.509   5.871  14.891  0.0150  0.0825  0.2765
 8872W        W25719  15.439   9.660   0.338  0.2772  0.0497  0.0507
 8873W        W25720   2.455   6.340  16.623  0.2166  0.1893  0.3290
 8874W        W25721   6.228   7.430   0.102 -0.2592 -0.3783 -0.0287
 8875W        W25722   7.900  16.730   5.448 -0.0689  0.4502  0.1277
 8876W        W25723   6.148  15.796  15.049 -0.2344 -0.1905 -0.1829
 8877W        W25724   3.233  11.795   4.348  0.1968 -0.4730  0.0793
 8878W        W25725   4.448  12.229  14.327  0.0469 -0.1033  0.1628
 8879W        W25726  14.432  10.123  14.023 -0.1757  0.1449  0.0552
 8880W        W25727  13.765  14.013   4.824 -0.0996 -0.1054  0.1092
 8881W        W25728   9.217   0.549  14.857  0.0097  0.0967 -0.1897
 8882W        W25729  14.773   1.376   3.257  0.3109 -0.1994 -0.2218
 8883W        W25730  10.160  13.977   3.291 -0.1442 -0.5576 -0.1478
 8884W        W25731   7.513   8.296   5.390  0.0607 -0.0465 -0.1086
 8885W        W25732  14.649   7.511   4.056 -0.3124 -0.1873  0.1647
 8886W        W25733   5.413  11.943  15.848 -0.0714 -0.4175  0.0168
 8887W        W25734  15.314  11.085  12.108 -0.0304  0.1985 -0.1494
 8888W        W25735  12.200   3.462   3.346  0.0012  0.0628  0.0531
 8889W        W25736   2.686  17.577   4.143  0.1715  0.0893 -0.0274
 8890W        W25737   5.860  10.600   5.859 -0.1652 -0.1781 -0.2349
 8891W        W25738   0.580  14.236   4.997  0.1320 -0.3197  0.2807
 8892W        W25739   5.794  14.508  15.730 -0.1668 -0.1245  0.0380
 8893W        W25740  13.087  10.065  13.558 -0.1687  0.0327 -0.2776
 8894W        W25741  14.205   4.797  15.306  0.0424  0.0631  0.0236
 8895W        W25742   0.955  13.271  14.004  0.1532 -0.1529 -0.0791
 8896W        W25743  15.181   6.210   0.773 -0.2553 -0.2288  0.0864
 8897W        W25744   9.336   1.125  12.548 -0.4148  0.2034 -0.1828
 8898W        W25745  16.028   9.002   5.419  0.0582 -0.0937 -0.3410
 8899W        W25746  12.107  15.486  11.807  0.1493 -0.0408  0.1924
 8900W        W25747   8.851   5.749   2.706  0.0133 -0.2980 -0.2662
 8901W        W25748  12.626   6.756   5.646 -0.2143 -0.1616  0.2057
 8902W        W25749  14.845   9.499  13.929  0.0460  0.2422  0.2857
 8903W        W25750  17.772  11.157  12.152 -0.0747  0.1814 -0.0511
 8904W        W25751  17.325   6.609  13.810  0.1052 -0.0307 -0.0952
 8905W        W25752   4.970  15.836  11.871 -0.0119 -0.2595 -0.0094
 8906W        W25753  11.802  11.366   2.068 -0.0010  0.0412 -0.0484
 8907W        W25754   1.331  12.300  14.003  0.1569 -0.0305  0.1734
 8908W        W25755  11.903   2.025  13.025  0.1462 -0.0597  0.2669
 8909W        W25756  11.116   9.419   5.972 -0.1377 -0.1202 -0.0294
 8910W        W25757   0.628  15.279   3.027  0.1639  0.1420  0.0786
 8911W        W25758  12.760  10.790  14.216  0.1198 -0.0034  0.1810
 8912W        W25759   5.726  15.742   1.554 -0.0572 -0.0408 -0.3238
 8913W        W25760   6.657   9.680  16.101 -0.2550 -0.2007  0.1519
 8914W        W25761   9.135   1.669  16.502  0.1395  0.0335  0.1578
 8915W        W25762   4.676   1.103   0.907 -0.1604  0.0765 -0.1698
 8916W        W25763   7.117   2.976   2.709  0.0313 -0.1311  0.0180
 8917W        W25764   9.111  17.776  12.548  0.0194  0.0533  0.0617
 8918W        W25765  14.359   0.813   0.879  0.2937 -0.0070  0.2086
 8919W        W25766  14.074  14.419  12.921  0.3624  0.2254 -0.0096
 8920W        W25767   4.901   7.210  12.940 -0.0690  0.0442  0.0680
 8921W        W25768   8.498  12.085  14.214  0.2866  0.0858  0.1160
 8922W        W25769   2.459   5.016  15.615  0.0975  0.0200 -0.1782
 8923W        W25770  16.940   2.318  12.280  0.0315  0.0830 -0.0696
 8924W        W25771   7.428   1.615   5.173 -0.0643  0.1564 -0.2178
 8925W        W25772  10.226  13.711  13.774 -0.0315 -0.2286  0.0628
 8926W        W25773   1.445   4.275   0.108  0.3016  0.2482  0.0491
 8927W        W25774   4.356   1.321   3.636 -0.0814  0.3528  0.2389
 8928W        W25775   0.923   6.699  13.762  0.2518 -0.1817 -0.1639
 8929W        W25776  14.530  13.148  14.145 -0.1803  0.1007 -0.6212
 8930W        W25777   2.822   2.766   1.036 -0.0954  0.0152 -0.0813
 8931W        W25778   0.161   3.307  13.134  0.2229  0.3560 -0.1972
 8932W        W25779   6.441   0.742   2.077 -0.0969 -0.2949 -0.3132
 8933W        W25780  11.075  10.462  15.028  0.3141 -0.2823  0.1035
 8934W        W25781  14.517   3.911  15.844 -0.1216  0.1887 -0.0428
 8935W        W25782   4.864  16.695  14.105 -0.2111  0.1714 -0.0370
 8936W        W25783  12.103   9.483  12.704  0.1823 -0.1327  0.1239
 8937W        W25784   0.590  11.057   1.553  0.0342 -0.0801  0.3892
 8938W        W25785  14.281   9.348   1.308  0.1437  0.1168 -0.0567
 8939W        W25786  13.227   4.292  12.392  0.1555  0.0803 -0.0749
 8940W        W25787  10.959   2.312  14.089  0.1212 -0.1089  0.0085
 8941W        W25788   2.935  15.996  14.877 -0.1452 -0.1490  0.0284
 8942W        W25789  14.943   9.637   2.662  0.0608  0.0160 -0.0589
 8943W        W25790  15.990  12.225   5.832  0.0960 -0.1147  0.1903
 8944W        W25791  11.271  15.085  15.970  0.1284  0.1364  0.0862
 8945W        W25792   5.849  13.533   4.089 -0.0848 -0.1156  0.3209
 8946W        W25793   5.169   7.372   4.944 -0.0271  0.0158 -0.1504
 8947W        W25794   7.111  13.099  13.846 -0.1348  0.2263  0.2656
 8948W        W25795   0.296   4.574   4.205 -0.2307  0.0617 -0.3239
 8949W        W25796   3.966   8.235   2.632 -0.0685 -0.1911  0.2038
 8950W        W25797   5.674   5.713  15.206  0.2991 -0.2904 -0.0359
 8951W        W25798   4.991   8.153  11.466 -0.3324  0.3320 -0.0962
 8952W        W25799   8.596  11.108   3.589 -0.1951  0.0375  0.1996
 8953W        W25800  12.634  14.173   2.852 -0.2431 -0.2759 -0.1849
 8954W        W25801  14.697   3.644  15.046 -0.0734 -0.3431  0.0470
 8955W        W25802  13.478  10.381   3.295 -0.1975  0.3359  0.2015
 8956W        W25803  13.371   3.550  12.139  0.0020 -0.3257 -0.2141
 8957W        W25804   5.094  10.440   0.552  0.0366  0.0643 -0.1568
 8958W        W25805   8.233  10.928   2.589 -0.0919 -0.4346  0.0146
 8959W        W25806  14.515  17.797  14.455 -0.1228  0.0666  0.2140
 8960W        W25807  11.458   8.235  13.129  0.1505  0.1069 -0.0490
 8961W        W25808  11.133  12.288   1.277 -0.1576  0.1484  0.1834
 8962W        W25809   5.861  10.674   0.707  0.0360  0.1186 -0.1442
 8963W        W25810  11.140  16.217   4.257  0.0304 -0.2235  0.0302
 8964W        W25811   0.149  11.123  11.555 -0.2310 -0.5709  0.2405
 8965W        W25812  16.524   4.370  11.109 -0.1995 -0.0400 -0.2982
 8966W        W25813  13.471  12.344   0.110 -0.0792 -0.0381  0.2385
 8967W        W25814  13.188   8.562   3.792 -0.1224  0.1840  0.0461
 8968W        W25815  12.653  10.649   4.610 -0.1829 -0.0319  0.0436
 8969W        W25816   5.856  12.539  15.057  0.2529 -0.0007  0.1552
 8970W        W25817   4.435  14.112   1.099 -0.2128  0.0504 -0.0599
 8971W        W25818  12.901  14.343   3.710 -0.0699  0.3256 -0.3906
 8972W        W25819   7.018   3.108  11.991  0.1734  0.0644 -0.2420
 8973W        W25820  11.730   0.740  14.864 -0.0751  0.1300  0.3484
 8974W        W25821   7.369   9.483  11.635 -0.0047  0.1878  0.0743
 8975W        W25822   4.338   4.308   1.675 -0.0203  0.3310 -0.0210
 8976W        W25823  11.650   1.829   1.077  0.3331 -0.2076  0.1114
 8977W        W25824  11.008  15.320   3.940  0.0267  0.0280  0.1073
 8978W        W25825  14.740  10.752  16.322 -0.0596  0.0291  0.3296
 8979W        W25826   2.707  10.356   1.581  0.1256  0.0254  0.0433
 8980W        W25827  14.858   2.847   3.625 -0.1202  0.0881  0.2261
 8981W        W25828   3.500  17.232   5.961 -0.2475 -0.0920  0.0696
 8982W        W25829   2.674   8.472   4.589  0.1637  0.0990  0.0184
 8983W        W25830  10.761   1.530   3.447  0.1367 -0.0335  0.1579
 8984W        W25831  13.577  13.387   3.966  0.1363 -0.0928 -0.1392
 8985W        W25832   9.821   6.443  12.483 -0.3641 -0.2138  0.2922
 8986W        W25833  13.246  13.185  13.749 -0.0264  0.3393  0.1870
 8987W        W25834  11.790  12.256   4.834  0.1705 -0.3113 -0.2372
 8988W        W25835   4.699  12.343   3.381  0.0443 -0.1490  0.0574
 8989W        W25836   7.957   9.054  14.930  0.1229  0.2245 -0.0078
 8990W        W25837   5.349  17.297  14.208 -0.2675  0.3207  0.1935
 8991W        W25838   4.824   3.058  14.736  0.0475  0.0088 -0.2839
 8992W        W25839  10.566   0.484   3.174 -0.0356  0.2197  0.0970
 8993W        W25840  16.409  18.020  13.289  0.0861  0.0086  0.1993
 8994W        W25841   0.497   9.109   1.299  0.1385 -0.2279  0.0493
 8995W        W25842  15.044  12.569  15.932 -0.1303 -0.1010  0.2861
 8996W        W25843   6.123   1.807   0.601  0.2851 -0.0721  0.1810
 8997W        W25844  13.114   3.495   3.524 -0.1003 -0.1820  0.1460
 8998W        W25845  10.331  13.341   4.686 -0.1802  0.0590  0.2495
 8999W        W25846   6.140  12.423   3.601  0.1671 -0.0192  0.3401
 9000W        W25847   6.767  14.138  13.182  0.0506  0.1471 -0.1701
 9001W        W25848   0.664  11.617  16.431 -0.0767  0.2773  0.2759
 9002W        W25849   8.374   9.777   0.803 -0.6550  0.0883 -0.0194
 9003W        W25850  11.333  17.417  11.147 -0.2404  0.1366  0.1396
 9004W        W25851  16.065  11.146  14.463  0.0090  0.1134  0.0894
 9005W        W25852   6.533  17.540   2.360  0.0291  0.1036 -0.2318
 9006W        W25853   4.202   1.551  13.887 -0.3441 -0.1766  0.0928
 9007W        W25854  11.545  11.029  15.693  0.1391  0.2236 -0.0686
 9008W        W25855   4.358  14.590  13.699  0.1002 -0.0161  0.1387
 9009W        W25856  12.596  16.211   5.002 -0.3089  0.3733 -0.0045
 9010W        W25857  13.805   9.831   1.387  0.4332 -0.2051 -0.2564
 9011W        W25858   3.443   9.562  12.510  0.0162  0.2692  0.0449
 9012W        W25859  14.347   9.906   1.428 -0.0097  0.1859 -0.0745
 9013W        W25860   4.416   9.177   1.713 -0.0199  0.2870 -0.0015
 9014W        W25861  17.988   9.236  13.401 -0.0812  0.0417 -0.0097
 9015W        W25862  16.445   4.164  11.687 -0.2028  0.1430  0.0404
 9016W        W25863  17.351   7.642  11.736  0.0366  0.0676  0.1934
 9017W        W25864   2.169   6.863  14.638  0.3704  0.0252 -0.0945
 9018W        W25865  12.738  17.895  15.092 -0.1018  0.0740 -0.0443
 9019W        W25866   2.074   1.489   3.561  0.3060  0.0067 -0.0593
 9020W        W25867   3.484   5.690   1.288  0.2183  0.0887  0.1209
 9021W        W25868   8.085   1.722   3.452  0.0239  0.1181 -0.0268
 9022W        W25869  14.731   3.023  14.487 -0.1880  0.2345 -0.2175
 9023W        W25870   3.050   5.218   4.580 -0.1434  0.0744  0.1031
 9024W        W25871  12.829  10.797  14.888 -0.2797 -0.0290  0.0017
 9025W        W25872   2.657  17.438   1.931  0.1271  0.1925  0.0840
 9026W        W25873   7.391   3.669   0.405  0.2757  0.0375  0.1266
 9027W        W25874   4.353   1.396  16.294 -0.1418  0.0073 -0.0898
 9028W        W25875   6.232  12.326   2.281 -0.0634 -0.1533  0.2043
 9029W        W25876   4.625   0.517   0.049 -0.0698 -0.0613  0.0418
 9030W        W25877  15.345   8.366  16.122 -0.2064  0.0739  0.2044
 9031W        W25878   7.989   2.565  12.142  0.0693  0.2207 -0.0907
 9032W        W25879  12.293  17.619  15.023  0.3517  0.0278 -0.1288
 9033W        W25880   1.297  15.093  13.534 -0.4010  0.2513  0.0297
 9034W        W25881   7.182  12.566  11.505  0.2441 -0.1422  0.1805
 9035W        W25882   8.094  14.347  12.961  0.0407 -0.3884 -0.0563
 9036W        W25883   9.436  10.763  11.782  0.1382 -0.0662 -0.2140
 9037W        W25884   6.543  15.807  12.760  0.0013 -0.2250 -0.1512
 9038W        W25885   6.364  11.078   0.677 -0.1738 -0.2573 -0.1509
 9039W        W25886   6.689   5.754   1.821  0.0508 -0.0036  0.0227
 9040W        W25887  10.347   0.341   1.798  0.0181 -0.0942  0.1079
 9041W        W25888  10.374  17.138   0.205 -0.5049  0.0529 -0.2626
 9042W        W25889   7.784   1.612   0.994  0.2707  0.2448 -0.0988
 9043W        W25890  17.328   3.314   3.339 -0.0736  0.0946 -0.2881
 9044W        W25891  17.047   2.660   1.347 -0.0888 -0.0001  0.1514
 9045W        W25892   5.786   7.426   2.246  0.0215  0.1957  0.0732
 9046W        W25893   8.783  10.693   0.501  0.1969 -0.0014 -0.1501
 9047W        W25894   2.166   2.575   4.068  0.1528  0.1920  0.0105
 9048W        W25895   0.242   7.914   2.239 -0.1889  0.0743  0.3377
 9049W        W25896  15.747  11.272   5.925  0.0308  0.1771 -0.4172
 9050W        W25897  14.662   5.219  13.568 -0.0931  0.0878 -0.1601
 9051W        W25898  17.357  12.981  16.088  0.0860  0.1194 -0.1900
 9052W        W25899  10.624   0.951   6.107 -0.2544 -0.2002 -0.2455
 9053W        W25900   6.690   9.933   1.617 -0.1260 -0.0249 -0.2248
 9054W        W25901  16.673  10.699   5.046  0.0567  0.2998  0.1905
 9055W        W25902  11.511  13.834  16.642  0.0447  0.0102 -0.1490
 9056W        W25903  16.497  10.932   2.465 -0.0912 -0.1690  0.1585
 9057W        W25904  13.538   5.769  14.901 -0.1086 -0.2434 -0.0814
 9058W        W25905  16.332   3.172  13.334 -0.0342 -0.1808 -0.0871
 9059W        W25906   7.587  13.364   2.997  0.0265  0.0664 -0.1891
 9060W        W25907  17.149   3.860   0.152  0.0803 -0.1225 -0.1925
 9061W        W25908   3.619   8.543   2.416  0.1741 -0.1655 -0.2265
 9062W        W25909   4.781  12.415   1.533 -0.0326 -0.2153 -0.2943
 9063W        W25910  14.607   7.792  14.513  0.1777 -0.3234  0.0495
 9064W        W25911  16.902   0.048  13.105 -0.0132  0.1141 -0.0774
 9065W        W25912   2.102   9.450   4.912  0.0920  0.0904  0.0032
 9066W        W25913   0.846   6.370  15.953 -0.1372 -0.2856  0.1123
 9067W        W25914   5.500   6.842  12.448  0.0443 -0.2819  0.0163
 9068W        W25915  16.918   9.425  14.950  0.0332 -0.0935 -0.0450
 9069W        W25916   7.746   6.834  13.682  0.1268 -0.1742  0.0555
 9070W        W25917  11.954  15.483   2.785 -0.0697 -0.0103 -0.0992
 9071W        W25918  13.663   9.836   3.474 -0.2267 -0.0695 -0.0878
 9072W        W25919   4.570   4.439   2.803 -0.0065 -0.0413  0.0402
 9073W        W25920  12.940   9.030   4.849  0.4338  0.2501 -0.1222
 9074W        W25921   0.785   9.914   1.141 -0.2085  0.2129  0.0855
 9075W        W25922   5.044  13.853   1.317  0.0676 -0.0484  0.3401
 9076W        W25923   4.883   4.457  15.251 -0.1790 -0.1160 -0.0330
 9077W        W25924   2.523   2.226   2.200 -0.2226 -0.1649 -0.4758
 9078W        W25925  13.179   3.083   0.494 -0.1429  0.1872 -0.1960
 9079W        W25926   8.394   0.225   0.840 -0.0639  0.0846 -0.1025
 9080W        W25927  11.356   8.359  11.598 -0.2265 -0.4627 -0.1801
 9081W        W25928  14.943  11.559   0.613  0.0366  0.0506 -0.0612
 9082W        W25929  16.139  16.537  12.319  0.1694 -0.1268 -0.2308
 9083W        W25930  12.282  14.970   5.391 -0.3721  0.1866  0.3306
 9084W        W25931  16.327  13.846  12.665  0.2158 -0.0065 -0.0053
 9085W        W25932   8.509   6.345  12.428  0.0971  0.0129  0.2220
 9086W        W25933  13.252  14.238   4.952 -0.1267  0.0442 -0.2497
 9087W        W25934   7.175   9.582   4.464 -0.0476  0.0863  0.1129
 9088W        W25935   3.029   4.726   4.160 -0.0073 -0.3132 -0.0527
 9089W        W25936  15.132   6.373   5.403 -0.1094  0.3713  0.0458
 9090W        W25937   1.267   3.635   5.103  0.1544  0.2160 -0.0629
 9091W        W25938   9.354   4.241  13.290  0.1297  0.0118 -0.1997
 9092W        W25939   7.843   3.470  15.816 -0.1573 -0.2731  0.0609
 9093W        W25940  10.834  16.469  14.340  0.4653  0.4340 -0.1245
 9094W        W25941  11.934  12.818  12.567 -0.2900  0.0181  0.0226
 9095W        W25942   5.085  16.422   1.969 -0.0011  0.0243  0.0118
 9096W        W25943   3.729  10.845  12.283  0.0281 -0.0932 -0.1744
 9097W        W25944   0.906   1.553  11.832  0.2163 -0.0488 -0.1408
 9098W        W25945  13.462   1.283  11.130 -0.0941 -0.1359  0.1331
 9099W        W25946  10.396   1.818   3.220 -0.2797  0.0116 -0.0896
 9100W        W25947   5.087  17.775   2.699 -0.2540  0.2021 -0.1166
 9101W        W25948   0.451   9.702   4.435  0.2779 -0.2812 -0.3891
 9102W        W25949  16.849  12.088  16.289  0.3042 -0.0350 -0.2460
 9103W        W25950  11.644   1.343   2.988 -0.1078 -0.3180 -0.0529
 9104W        W25951  15.534  11.126  10.557 -0.1079 -0.4180  0.1818
 9105W        W25952  15.316   9.524  16.606 -0.0832 -0.0799  0.2155
 9106W        W25953   3.834  13.905  11.825 -0.0973 -0.1029  0.0942
 9107W        W25954   5.654  14.649   1.386 -0.4892 -0.1566  0.0238
 9108W        W25955  11.521   6.213  11.561  0.2669 -0.0554 -0.1186
 9109W        W25956   7.085   7.806   0.803  0.0108  0.0769 -0.0185
 9110W        W25957   7.970   6.363   6.283  0.0975  0.3251 -0.2036
 9111W        W25958   9.249  14.705   1.595 -0.0692 -0.1390 -0.2363
 9112W        W25959   9.640   3.008   5.602  0.1187  0.0447  0.1149
 9113W        W25960  10.057   6.769  15.969 -0.1466  0.0860  0.0964
 9114W        W25961  14.733  16.701  13.743  0.0136 -0.1211 -0.2734
 9115W        W25962   6.473   2.759   0.139 -0.1059 -0.2150  0.0863
 9116W        W25963   4.588   7.156  13.371 -0.2297 -0.0461  0.1121
 9117W        W25964   2.446  16.736   3.231 -0.3407 -0.4604 -0.1382
 9118W        W25965   3.513   3.070   0.179  0.1762 -0.4512  0.0373
 9119W        W25966  10.540  13.475  15.672 -0.0294  0.1256  0.1317
 9120W        W25967  16.435   9.338   0.590  0.0501  0.0526 -0.0865
 9121W        W25968   7.606   2.541   3.902 -0.1265  0.3705  0.0064
 9122W        W25969   7.626   3.407  11.687 -0.1069 -0.0541  0.3054
 9123W        W25970   5.979  11.927  13.034  0.0575 -0.3500  0.0303
 9124W        W25971   2.395   1.470  11.792  0.3233 -0.0847  0.0567
 9125W        W25972  11.159  17.698   0.123  0.0754 -0.0328 -0.0039
 9126W        W25973  14.211   4.859  13.483  0.0391  0.0397  0.1784
 9127W        W25974   1.187   7.362  13.181  0.1292  0.0546 -0.2332
 9128W        W25975   9.365   7.069   3.160  0.4003 -0.2691  0.1135
 9129W        W25976   3.304   7.549   5.203 -0.1530 -0.0202 -0.0428
 9130W        W25977   8.973  16.555  15.863 -0.1484 -0.0126  0.2570
 9131W        W25978   6.780   8.344  14.722 -0.1715 -0.1097 -0.0345
 9132W        W25979   4.302  13.592   5.080 -0.1570  0.2257 -0.0197
 9133W        W25980  16.118   5.680   1.598 -0.1469 -0.3301  0.0775
 9134W        W25981   2.955   8.388   0.493  0.0247 -0.0641  0.2614
 9135W        W25982  10.595   0.302   0.981 -0.1653  0.3087  0.0488
 9136W        W25983  14.816   6.427  13.952  0.1601  0.1750 -0.2601
 9137W        W25984  16.883   6.047   3.691  0.3072 -0.1415 -0.1970
 9138W        W25985   0.841   6.363   5.723  0.3029 -0.2513 -0.2328
 9139W        W25986  11.671   0.121  10.162  0.0187 -0.3323  0.2439
 9140W        W25987   3.735   5.947   2.366  0.3822  0.1234 -0.1613
 9141W        W25988  13.511  13.587  13.627 -0.0271 -0.0983  0.1036
 9142W        W25989  17.689   7.524  16.265  0.0189  0.4315  0.0745
 9143W        W25990  16.007   3.854   3.058  0.1857 -0.2982  0.1614
 9144W        W25991   6.458   7.827   3.432 -0.0890 -0.2672 -0.2395
 9145W        W25992  11.082   0.654  13.664 -0.1100 -0.0690  0.0708
 9146W        W25993  12.401  14.298   2.355  0.3952 -0.0108 -0.1327
 9147W        W25994  12.316  16.214  11.582  0.0873  0.0227 -0.0218
 9148W        W25995   2.625   2.975   1.490 -0.0114  0.1725 -0.0256
 9149W        W25996  14.914  13.313   4.925 -0.3808 -0.0404 -0.0240
 9150W        W25997   1.065  10.947  13.082 -0.2311  0.1648 -0.1361
 9151W        W25998   5.944  17.914  14.208 -0.2856  0.0124 -0.0642
 9152W        W25999   2.537   0.632  14.556  0.2181  0.2131 -0.0158
 9153W        W26000  13.042  11.543  15.823 -0.2987  0.2082 -0.0104
 9154W        W26001  15.161  16.952   2.506 -0.3857 -0.1682  0.0193
 9155W        W26002   8.297   7.975   1.863  0.4298 -0.0084  0.2815
 9156W        W26003   9.021   0.712  13.802 -0.0539 -0.1305 -0.1311
 9157W        W26004  14.476   8.622  15.017  0.2356  0.1131 -0.2887
 9158W        W26005   5.302   8.046   4.321 -0.0358  0.3888  0.0545
 9159W        W26006   0.261  17.880   4.731  0.0634 -0.0161 -0.2440
 9160W        W26007  15.565  16.810  14.235 -0.2798 -0.0250 -0.0052
 9161W        W26008  16.235  16.537  14.788  0.1935  0.0662  0.0648
 9162W        W26009   0.530  12.598  12.658 -0.3389  0.3485 -0.2968
 9163W        W26010  17.672   5.179  11.737 -0.3431  0.2274 -0.0643
 9164W        W26011   3.201   5.077   2.783 -0.2703  0.1564 -0.0156
 9165W        W26012  12.751   9.356  14.371  0.2084  0.0608 -0.0562
 9166W        W26013  10.036   1.226   1.791  0.2409  0.0184 -0.0320
 9167W        W26014   4.209   5.793   5.190  0.0296 -0.4011  0.0524
 9168W        W26015   3.004   2.400   4.729  0.0550  0.0530  0.0037
 9169W        W26016  15.676  15.438   3.271 -0.0722 -0.4320  0.0064
 9170W        W26017  17.484   7.512  14.630 -0.0747  0.1341 -0.3724
 9171W        W26018   7.546  17.583  15.110  0.2375  0.1151  0.1127
 9172W        W26019   9.239   0.489   3.409  0.0157  0.2229  0.0561
 9173W        W26020   4.503   2.750  12.242  0.0569 -0.1858  0.0635
 9174W        W26021   4.553  13.424  15.864 -0.0147  0.1938  0.0022
 9175W        W26022   9.544   7.805   4.797  0.0221  0.0402  0.0370
 9176W        W26023  12.773   4.092  11.657  0.1223 -0.1793 -0.2400
 9177W        W26024   9.085  16.798  16.448 -0.0120 -0.2175 -0.0764
 9178W        W26025   4.961  17.010  12.533  0.3623  0.0108 -0.1526
 9179W        W26026   3.857   0.186  15.638  0.1606  0.3088  0.1213
 9180W        W26027   8.011   3.487  12.233 -0.1883 -0.1790 -0.0555
 9181W        W26028  12.791   5.509   4.015 -0.1309  0.0351 -0.0509
 9182W        W26029   2.768   1.488  12.695 -0.4305  0.0641 -0.1402
 9183W        W26030   0.994  16.248  12.647 -0.0450 -0.0261  0.2582
 9184W        W26031   4.769   6.993   1.404  0.1280  0.1016  0.0162
 9185W        W26032  11.404  11.349  13.267 -0.1995 -0.0778  0.1158
 9186W        W26033  16.616  16.018   0.607 -0.0155 -0.2368 -0.0683
 9187W        W26034  12.794  14.299   0.390 -0.3421 -0.1325  0.2450
 9188W        W26035  15.689   9.539  13.396 -0.1446 -0.2486 -0.0453
 9189W        W26036  13.442   3.527  14.724  0.1351 -0.2969 -0.0098
 9190W        W26037  13.931  14.277  11.109 -0.1928  0.0310  0.0278
 9191W        W26038   0.197   5.260  12.856 -0.1598 -0.2116  0.2841
 9192W        W26039  15.096  17.366  13.241 -0.1904  0.1214  0.0630
 9193W        W26040   0.152   2.977  16.225 -0.1111 -0.1186  0.5878
 9194W        W26041  12.739   2.282  12.645  0.1964  0.3029  0.3867
 9195W        W26042   5.814  11.410   4.113 -0.0571  0.1004  0.0591
 9196W        W26043  13.792  11.080  14.357  0.1619 -0.0509 -0.1498
 9197W        W26044   2.100  11.033   2.797  0.1775  0.2053  0.1055
 9198W        W26045  13.452   9.146   1.677 -0.0251  0.2405 -0.1914
 9199W        W26046   3.474   7.207   1.501  0.1069 -0.1288 -0.0218
 9200W        W26047   4.075   3.946  11.969 -0.0402 -0.0237 -0.0318
 9201W        W26048  11.165   2.360  13.485 -0.0968 -0.1279 -0.0572
 9202W        W26049   2.974  16.899   2.430 -0.1727 -0.1381  0.1322
 9203W        W26050  17.680  15.726  16.645  0.0555 -0.1936  0.0465
 9204W        W26051  13.885  16.653   2.592 -0.0948  0.0806 -0.4286
 9205W        W26052  14.417  10.220   4.410  0.1799  0.3736  0.3315
 9206W        W26053   5.683   9.100   3.765  0.3731 -0.2675 -0.0758
 9207W        W26054   0.460  10.676   2.413  0.0592 -0.1329  0.1139
 9208W        W26055   6.196  12.339   3.104 -0.1270 -0.1034  0.1183
 9209W        W26056   4.316   0.310   5.101  0.1131  0.0508  0.0605
 9210W        W26057  17.293  15.514   2.750  0.1688 -0.3140  0.1408
 9211W        W26058   6.620  11.980   4.003  0.2096 -0.0060 -0.1163
 9212W        W26059  13.204  11.469   4.200 -0.0754 -0.3302  0.1458
 9213W        W26060   1.065   0.068  15.324 -0.2244 -0.1506 -0.1951
 9214W        W26061   9.968  14.443   0.398 -0.4465  0.0502 -0.3384
 9215W        W26062  10.097   5.145   5.299 -0.1179 -0.1192 -0.0251
 9216W        W26063   9.294   9.690   5.614  0.2226 -0.3034 -0.1399
 9217W        W26064   6.998   4.055   1.210 -0.0321  0.0499 -0.0102
 9218W        W26065   7.101   3.814   2.700  0.1735 -0.1033  0.1688
 9219W        W26066  16.542  11.850  15.728 -0.2191  0.2252 -0.0985
 9220W        W26067   5.709  13.019  13.818 -0.1054 -0.1201  0.1075
 9221W        W26068  16.066   1.839   1.319  0.0382  0.3169  0.2686
 9222W        W26069  14.061  11.222  15.827  0.0612  0.1260  0.2001
 9223W        W26070  12.842  16.518  15.076 -0.2456 -0.4185  0.1249
 9224W        W26071   6.853  11.404  14.483  0.1319  0.1221  0.0603
 9225W        W26072   8.389  12.594   4.078  0.1546  0.0741 -0.3361
 9226W        W26073  14.803   9.234  15.249 -0.2089  0.1483 -0.1855
 9227W        W26074   2.684   7.312  12.890  0.2549  0.2091 -0.1785
 9228W        W26075  16.464  13.937   3.793 -0.0684 -0.0562  0.0455
 9229W        W26076   3.892  13.868   5.392  0.0537 -0.1122 -0.0141
 9230W        W26077   0.454   5.656   4.552 -0.1696  0.2817  0.1913
 9231W        W26078  11.506   0.597  12.534  0.1686 -0.1456 -0.0324
 9232W        W26079   1.647   4.030  15.848 -0.1525 -0.0330 -0.1157
 9233W        W26080   0.773   4.443  11.734 -0.0709  0.3670 -0.2056
 9234W        W26081   8.630   3.905   3.507  0.2539 -0.2757 -0.1414
 9235W        W26082  15.709  11.719  16.635 -0.2293  0.1148 -0.1086
 9236W        W26083   5.427  14.631  15.352 -0.2070 -0.0084  0.0437
 9237W        W26084   8.937   1.913   0.234  0.1960  0.1528 -0.0788
 9238W        W26085   9.365   8.340  12.740  0.2387 -0.1491 -0.1068
 9239W        W26086   9.801   5.150  15.990  0.1551 -0.0425  0.1477
 9240W        W26087   0.055   8.472   2.901 -0.1594  0.1019 -0.0112
 9241W        W26088  12.025  14.531   4.026  0.0431  0.2022 -0.1104
 9242W        W26089   4.323   9.130   3.981 -0.1404 -0.1926 -0.3643
 9243W        W26090  14.281  14.309   3.697 -0.2023 -0.2520  0.2757
 9244W        W26091  15.346   9.382   6.350  0.2316 -0.3458  0.0219
 9245W        W26092  13.537  15.757   5.017 -0.2368 -0.3917  0.0899
 9246W        W26093  14.888   2.967   0.983 -0.1890 -0.0583  0.2334
 9247W        W26094   7.455  10.741  13.794 -0.1738  0.0632 -0.4260
 9248W        W26095  15.808   2.896  12.968 -0.1542 -0.1952  0.4202
 9249W        W26096   8.210  13.734  13.988 -0.1564  0.1733  0.0092
 9250W        W26097   3.938   5.578   0.027 -0.1237  0.0303  0.1069
 9251W        W26098   8.327   9.509  15.545  0.0541 -0.1037 -0.2292
 9252W        W26099   2.037   6.780  12.457 -0.1892 -0.1349  0.1048
 9253W        W26100  15.815   5.415  12.082  0.0912 -0.0996  0.2812
 9254W        W26101  16.207  15.174  11.147  0.2648  0.1090  0.1075
 9255W        W26102   6.538  15.933   4.186  0.0571 -0.3655 -0.1904
 9256W        W26103  16.386   6.484   0.647 -0.2082 -0.1381 -0.0801
 9257W        W26104  12.149   2.151   3.181 -0.0019 -0.0856 -0.3287
 9258W        W26105   3.962   7.228  14.283 -0.1479  0.0968 -0.0951
 9259W        W26106   6.696   5.585   0.236  0.0034 -0.2666  0.1829
 9260W        W26107   0.952   6.803   6.006  0.0188 -0.0913 -0.0068
 9261W        W26108   4.675  14.363   1.616 -0.2153 -0.0029  0.0270
 9262W        W26109   7.980  10.608  15.978 -0.0843  0.0056 -0.0699
 9263W        W26110   1.416   3.360   3.050 -0.0107  0.1096  0.0072
 9264W        W26111  17.845   4.504   4.284  0.3410 -0.2560  0.0171
 9265W        W26112  10.201  17.740  13.934 -0.0605 -0.0078  0.2399
 9266W        W26113  14.787   9.350   1.284  0.0571 -0.0747 -0.0262
 9267W        W26114  12.331   5.280  12.808  0.0656 -0.0416 -0.3155
 9268W        W26115  14.043   2.683   1.816  0.1933 -0.0886 -0.0489
 9269W        W26116   8.041  12.852   5.458  0.2600 -0.0244  0.2153
 9270W        W26117   4.972   4.871  11.384  0.0288 -0.0630  0.2200
 9271W        W26118  11.458   4.197  15.042  0.2249 -0.0422  0.2153
 9272W        W26119  17.449   4.946  12.615 -0.0740  0.0348  0.1396
 9273W        W26120   2.374  13.944   0.526 -0.2077 -0.0424 -0.0952
 9274W        W26121  14.918  15.811   2.558  0.0853 -0.1802  0.0767
 9275W        W26122   8.713  17.878  10.982 -0.2267  0.0256 -0.0064
 9276W        W26123  16.252   0.224   4.181 -0.0701 -0.2003 -0.0924
 9277W        W26124   7.002   2.642   0.682  0.1623 -0.1066  0.2271
 9278W        W26125   6.352  17.382  15.176 -0.0351  0.0686  0.0571
 9279W        W26126   2.817  15.804  16.172 -0.4278  0.0452  0.0608
 9280W        W26127   0.698  10.987   0.557  0.0687 -0.2259 -0.1055
 9281W        W26128  13.846  13.216  13.030 -0.0522 -0.0100  0.1342
 9282W        W26129  16.239  13.038   4.765 -0.3695  0.0620  0.1028
 9283W        W26130   2.883   1.563   3.967 -0.0416 -0.0769  0.0191
 9284W        W26131   2.223  10.115   5.580  0.2309  0.0622 -0.0745
 9285W        W26132   3.221  10.026  14.333  0.1113  0.0338 -0.0252
 9286W        W26133   5.054  17.479  12.747  0.1060 -0.0549  0.1320
 9287W        W26134  11.951  10.807  13.925 -0.1087  0.0308  0.1696
 9288W        W26135   8.848   8.023  12.599 -0.3379  0.3624 -0.1655
 9289W        W26136  14.408  15.219   3.780  0.0774 -0.0992  0.0374
 9290W        W26137  17.700   5.290  16.005  0.0136 -0.0632 -0.2080
 9291W        W26138   4.536  17.914   5.386 -0.0561 -0.0065 -0.0356
 9292W        W26139  13.688   2.143  14.817 -0.0903  0.1343 -0.1182
 9293W        W26140   8.372  15.116   4.028 -0.0530  0.0220  0.0639
 9294W        W26141  13.406  10.566   1.947 -0.4440 -0.1443 -0.1616
 9295W        W26142   4.605  17.103  16.219 -0.1138  0.1514  0.2128
 9296W        W26143  14.729  15.329  13.616 -0.1964 -0.0026  0.0824
 9297W        W26144   9.618   2.927   3.138 -0.2433 -0.1113 -0.1401
 9298W        W26145   7.210  10.335  13.580  0.1033 -0.0482 -0.2183
 9299W        W26146  14.281   6.989  13.616 -0.0810 -0.1007  0.0584
 9300W        W26147   2.560  13.220  12.333  0.0629 -0.3017 -0.0267
 9301W        W26148  12.654   6.921  14.219  0.0789 -0.1630 -0.1994
 9302W        W26149   0.690  16.696   4.915  0.1939  0.2211 -0.3025
 9303W        W26150   3.121  14.722   1.726  0.0176  0.1082 -0.0061
 9304W        W26151   6.671   0.534   0.292  0.0943  0.1204  0.2090
 9305W        W26152  15.287   5.431  12.525  0.3872  0.0117  0.3005
 9306W        W26153   2.201   9.104  12.551 -0.2763 -0.1268  0.1032
 9307W        W26154   4.199  11.779   5.810  0.0553  0.1808  0.1067
 9308W        W26155   3.041  12.688  14.139 -0.0365  0.1382  0.1411
 9309W        W26156  10.904   0.522   3.576  0.0547 -0.0767  0.0026
 9310W        W26157  15.565  10.805   1.942 -0.0096 -0.0926  0.2235
 9311W        W26158   5.498   9.008   4.713  0.2397 -0.0187  0.1013
 9312W        W26159   7.744   7.788  13.527  0.1083  0.0454  0.1334
 9313W        W26160   6.131  12.857   0.173  0.1330 -0.2502 -0.1168
 9314W        W26161  10.692   6.949   3.285 -0.1008  0.1142 -0.1166
 9315W        W26162   9.090   6.202   2.882 -0.0597  0.3934 -0.0441
 9316W        W26163  15.469  17.813   4.012  0.1577  0.1611  0.1197
 9317W        W26164   5.659   2.896  15.612 -0.1265 -0.1682  0.1063
 9318W        W26165   8.733   0.390   3.165 -0.0900 -0.2694 -0.2028
 9319W        W26166   9.316   2.899  15.346 -0.1878  0.3666  0.1229
 9320W        W26167   3.697  10.549  15.336  0.1065 -0.0986 -0.0296
 9321W        W26168   5.927   7.672  12.488  0.4878 -0.0783 -0.0926
 9322W        W26169   8.833   0.057   0.093 -0.0584 -0.0385 -0.0590
 9323W        W26170  15.665  10.960  13.299  0.1820  0.0183  0.1635
 9324W        W26171   1.567  14.313  14.390 -0.2995 -0.1815  0.2239
 9325W        W26172  14.205  11.040   3.477  0.0767 -0.0809  0.2710
 9326W        W26173   9.596  17.366  16.228 -0.2655  0.0053  0.0911
 9327W        W26174  17.080   8.196   0.610 -0.0153  0.2146 -0.1011
 9328W        W26175  13.118  10.216  16.048 -0.1483  0.0931 -0.1570
 9329W        W26176   9.091  17.028  14.040 -0.1334 -0.3385  0.0467
 9330W        W26177  17.478   6.482  14.311 -0.0442 -0.0331  0.0195
 9331W        W26178   5.220  17.694   3.612  0.5132  0.2188  0.2384
 9332W        W26179  11.192   2.986  12.183 -0.0611  0.2934  0.0520
 9333W        W26180   1.247  11.124   4.877  0.1234 -0.0278  0.0690
 9334W        W26181  16.905  14.551  14.225 -0.0770 -0.3445 -0.0575
 9335W        W26182  14.781   7.184   4.996  0.1650  0.1642  0.1324
 9336W        W26183  17.662   9.605  14.378  0.3612  0.1980  0.0118
 9337W        W26184  10.558   4.187  15.017 -0.0865  0.2533  0.0977
 9338W        W26185  13.073  15.840   5.853  0.1190 -0.0534  0.4609
 9339W        W26186   9.685  14.693  12.230 -0.1941  0.1951  0.0955
 9340W        W26187   7.198   6.228  13.785 -0.1796 -0.1247  0.1207
 9341W        W26188   9.590  16.004  12.621 -0.1770  0.3282 -0.1685
 9342W        W26189   1.900   5.666  16.126  0.1107 -0.1103 -0.0576
 9343W        W26190   4.719   2.886  14.309  0.0864  0.2731  0.1669
 9344W        W26191  14.802   5.628   0.308  0.0736 -0.0860  0.0168
 9345W        W26192  15.054   7.731  15.521  0.2562 -0.2834 -0.1811
 9346W        W26193   5.549   8.451   4.123 -0.0950  0.2121 -0.0713
 9347W        W26194   0.149  10.015   5.350 -0.1730 -0.0312 -0.0388
 9348W        W26195   6.975  16.048   1.852  0.0103  0.2184  0.1384
 9349W        W26196  16.498   3.047  15.984  0.1666  0.2514  0.1201
 9350W        W26197  17.558   7.997   2.717  0.2194 -0.0821 -0.0093
 9351W        W26198   3.452  14.378   3.742  0.1474  0.1373  0.1114
 9352W        W26199  14.070   2.353  14.555 -0.1090 -0.1641 -0.0467
 9353W        W26200  10.124  16.737  11.781  0.0497  0.0839  0.1247
 9354W        W26201  16.340  13.046   5.635  0.1298 -0.0127 -0.1619
 9355W        W26202  13.860  11.591  14.227 -0.1742  0.0337 -0.2933
 9356W        W26203   4.783   6.823  16.356  0.0439  0.1449  0.1600
 9357W        W26204   9.374  14.944   2.682 -0.1648  0.1872  0.0907
 9358W        W26205   4.939  16.432   3.276 -0.1298 -0.0018  0.2285
 9359W        W26206  14.049  16.686  12.739 -0.0518 -0.2664 -0.1768
 9360W        W26207   9.468  12.420   5.365  0.2167 -0.0477 -0.0849
 9361W        W26208   6.494  11.131  14.313  0.1398 -0.1284  0.1129
 9362W        W26209   5.162  10.073   4.689  0.3138 -0.1991  0.0235
 9363W        W26210   8.898   1.717   4.510  0.2160  0.2805  0.2612
 9364W        W26211   0.284  11.890  11.887 -0.0492  0.1465  0.2159
 9365W        W26212   9.081   9.596   1.541  0.0675  0.1979 -0.0731
 9366W        W26213   8.298  15.573  12.953 -0.0436  0.0751 -0.0082
 9367W        W26214  17.852   9.398   0.962  0.0424 -0.0428 -0.0271
 9368W        W26215   0.325  12.279   2.081 -0.1216  0.0133 -0.3036
 9369W        W26216   5.885   4.714  14.977  0.0900  0.0535 -0.0265
 9370W        W26217  14.076   6.406   2.394 -0.1434  0.2382 -0.0261
 9371W        W26218  10.632  15.906   0.280 -0.1200 -0.2630  0.2390
 9372W        W26219  10.591  10.757   0.527 -0.0523 -0.0626  0.3405
 9373W        W26220   9.864   2.027  13.757  0.1513 -0.1184  0.3011
 9374W        W26221   9.261   5.324   1.322  0.2534  0.0182 -0.1649
 9375W        W26222  13.444  16.211  14.234  0.0519 -0.3940 -0.1370
 9376W        W26223  17.436  16.106  14.126 -0.2655  0.4500  0.0651
 9377W        W26224  15.458   4.094  11.506 -0.2202  0.0545  0.1551
 9378W        W26225  11.769  16.615   2.183  0.2174 -0.0853 -0.1245
 9379W        W26226   6.469  16.450   4.791 -0.0777  0.0628 -0.2424
 9380W        W26227  14.365   2.243  16.187 -0.1840  0.0911 -0.0461
 9381W        W26228  12.187   5.584  16.543  0.0524 -0.2143 -0.1098
 9382W        W26229   8.274  12.841  13.851  0.2306 -0.1623 -0.0487
 9383W        W26230   1.829   2.012   0.991 -0.2158  0.1132 -0.0198
 9384W        W26231   4.316   7.965   3.021 -0.1262  0.1799 -0.1100
 9385W        W26232  10.047   8.895  16.499 -0.0132  0.0141  0.0166
 9386W        W26233   0.963   8.392  11.654  0.2719  0.0042  0.0655
 9387W        W26234   3.349   3.815  15.154  0.1770  0.3469 -0.0108
 9388W        W26235   9.993   4.784   0.842  0.0920  0.0224 -0.1240
 9389W        W26236  14.347  14.073  14.911 -0.1491 -0.3066  0.1482
 9390W        W26237   9.778  13.982  13.356 -0.1488  0.4443  0.0559
 9391W        W26238  13.862   3.826  14.121  0.1128 -0.0368 -0.0399
 9392W        W26239   1.392  15.490  14.240  0.1710  0.1026  0.1867
 9393W        W26240  17.628   2.754  12.680  0.1017 -0.0396  0.0978
 9394W        W26241   2.940   5.125  15.580 -0.0138 -0.0017  0.0757
 9395W        W26242  16.686   7.782   3.368  0.0553 -0.2311 -0.0490
 9396W        W26243   0.915   4.234  12.174 -0.2572  0.1268 -0.0706
 9397W        W26244   2.706   5.932   5.157  0.1388 -0.2210  0.0701
 9398W        W26245  12.959  13.310   4.844 -0.0797 -0.0570  0.1061
 9399W        W26246   4.580  16.585   3.828 -0.1468 -0.0785  0.0990
 9400W        W26247  17.371   0.600   5.483  0.1759  0.0162 -0.2685
 9401W        W26248  10.825   9.151  14.888 -0.1243 -0.1102  0.2386
 9402W        W26249  14.522   4.906   0.918 -0.2600 -0.0900  0.4216
 9403W        W26250   8.296  11.072  14.105 -0.3007  0.1395 -0.0853
 9404W        W26251   1.248   0.947  14.147 -0.2753  0.0100 -0.0049
 9405W        W26252  10.934  14.561  16.618  0.0931 -0.1164 -0.0171
 9406W        W26253  17.828  12.837   5.746 -0.0980  0.2663  0.0849
 9407W        W26254   4.744   1.475  14.268 -0.0853 -0.0012  0.0159
 9408W        W26255   5.185  17.145   0.245 -0.2027  0.0196 -0.0480
 9409W        W26256  14.646   0.160   3.235 -0.2199 -0.1266 -0.0486
 9410W        W26257   4.793   1.531   3.552  0.1431  0.0111 -0.1125
 9411W        W26258   3.685  17.354  14.002  0.3069 -0.0432  0.0461
 9412W        W26259   3.584   0.684  13.533  0.2262  0.4144 -0.1379
 9413W        W26260  16.878   1.731  13.502  0.1516 -0.2573 -0.0132
 9414W        W26261   7.316   7.683   3.055  0.1314 -0.2267  0.3274
 9415W        W26262   2.902  17.046  12.095 -0.1257 -0.0999  0.2223
 9416W        W26263  15.459  10.620  15.854 -0.1725 -0.0150  0.2682
 9417W        W26264   7.103  14.505   2.671 -0.0942  0.1529 -0.0363
 9418W        W26265   8.033  17.037   3.829  0.1079 -0.0156 -0.0238
 9419W        W26266   5.978   0.801   1.020 -0.0027 -0.1600  0.3777
 9420W        W26267   2.170   6.991  12.906 -0.1025 -0.0082  0.1413
 9421W        W26268   9.363   8.586  16.486 -0.0218 -0.4861  0.0947
 9422W        W26269   5.732  12.615   1.130 -0.2857  0.0824 -0.2654
 9423W        W26270   8.787   1.120   4.679  0.2748  0.1938 -0.1190
 9424W        W26271   4.638  13.146   2.674 -0.0106 -0.1291  0.2358
 9425W        W26272   4.394   2.759   3.516 -0.0618 -0.0473  0.0002
 9426W        W26273  13.799  15.519  14.365  0.2643  0.0121 -0.0542
 9427W        W26274  13.050   0.405   5.327  0.1724  0.1026 -0.0988
 9428W        W26275  10.609  12.882   3.976 -0.1754  0.1267  0.4044
 9429W        W26276  14.139   6.705   2.961 -0.0652 -0.1481  0.0138
 9430W        W26277   1.734   8.337   4.837  0.5011 -0.0480  0.1528
 9431W        W26278   7.059   8.736  16.158 -0.0664  0.1781  0.2153
 9432W        W26279  14.285  13.729   1.264  0.0279  0.3442 -0.2921
 9433W        W26280  15.221   9.566  12.000  0.1816  0.1119 -0.0511
 9434W        W26281   3.609   8.259  14.939  0.0014  0.0231 -0.2776
 9435W        W26282   9.999  16.036   1.551  0.2678  0.0758  0.0538
 9436W        W26283   1.028   5.999   2.079 -0.0836  0.1256  0.0248
 9437W        W26284   1.524  11.134  15.682  0.0408  0.0752  0.2416
 9438W        W26285   0.913  17.465   1.632  0.0062 -0.0987 -0.4993
 9439W        W26286   0.412   6.998   2.592  0.0384 -0.0254 -0.1657
 9440W        W26287   7.776   2.164  12.990  0.2109  0.0262 -0.1349
 9441W        W26288   3.059   1.010  11.980  0.1856 -0.0398 -0.0552
 9442W        W26289  13.724  10.861   3.373 -0.1059 -0.1282  0.2375
 9443W        W26290  15.238   7.560   2.141  0.2019 -0.0683  0.0983
 9444W        W26291   6.940  17.308   5.507  0.0838 -0.0798  0.1450
 9445W        W26292   5.982  14.740  14.283  0.1163 -0.0630 -0.1639
 9446W        W26293   4.812   2.784  11.337  0.3214 -0.1813  0.2312
 9447W        W26294   8.346  13.600  12.361 -0.1093 -0.0185  0.3482
 9448W        W26295   1.076  14.326   5.827 -0.2778  0.2501  0.0405
 9449W        W26296   2.706   4.917   5.432 -0.0976 -0.0172 -0.1374
 9450W        W26297  11.741  10.450  15.817 -0.2128  0.0459 -0.2648
 9451W        W26298   8.663  15.713  15.990 -0.2453  0.1262  0.2001
 9452W        W26299  17.459   5.558  13.853  0.0714  0.3261 -0.1991
 9453W        W26300  15.381   2.504   5.991  0.1107  0.0407 -0.0905
 9454W        W26301  16.074   8.046  13.762 -0.1644  0.1077 -0.0137
 9455W        W26302   4.363  12.709  14.099 -0.1643 -0.1705 -0.0248
 9456W        W26303   2.809  11.101   0.469 -0.0608 -0.0731 -0.1718
 9457W        W26304   7.395  10.552   0.441  0.3076  0.0461 -0.0114
 9458W        W26305  17.072   4.657   4.089  0.0867 -0.0668 -0.1959
 9459W        W26306   0.147   9.044  15.826 -0.4316  0.0062 -0.0576
 9460W        W26307   8.714  13.024   1.091  0.4686 -0.4622 -0.0270
 9461W        W26308   6.949   2.447   1.419  0.2404  0.1079  0.3401
 9462W        W26309  11.881   7.326   5.547  0.0205 -0.1100 -0.2300
 9463W        W26310  11.159   5.300   3.366  0.2059  0.1582 -0.2522
 9464W        W26311  12.179   4.512  15.506 -0.0238 -0.2470  0.1287
 9465W        W26312  14.380   3.490   1.758 -0.2175 -0.0592  0.2369
 9466W        W26313   8.607   9.749   2.889 -0.2617 -0.0107 -0.2382
 9467W        W26314  14.601  10.332   5.168 -0.1622  0.2338  0.2605
 9468W        W26315   2.855  17.471  14.274  0.0867 -0.1310  0.0963
 9469W        W26316  12.829   1.903  14.167  0.0842 -0.0975  0.3318
 9470W        W26317   0.832  12.007   5.058  0.2839  0.0386 -0.2724
 9471W        W26318   7.438  11.670   5.256  0.1729 -0.0927  0.0302
 9472W        W26319  15.097   7.106  13.395 -0.1820 -0.2502  0.3167
 9473W        W26320   3.370  14.826  12.089 -0.1085 -0.0454  0.1269
 9474W        W26321   3.129  17.757   3.942 -0.1521  0.0675 -0.0162
 9475W        W26322  12.196   3.298  16.287 -0.1896 -0.1809  0.2312
 9476W        W26323  11.118   2.685   5.201 -0.0619 -0.1228 -0.0738
 9477W        W26324   0.036  11.688   1.482  0.3277  0.0612 -0.0003
 9478W        W26325  16.385   4.635  12.147 -0.2028  0.0253 -0.1096
 9479W        W26326  11.811  16.012  13.617 -0.0922 -0.0434  0.2473
 9480W        W26327   4.757   1.453  12.252 -0.1059 -0.1999 -0.1893
 9481W        W26328  12.087   3.065   2.930  0.5131  0.0565 -0.0449
 9482W        W26329  16.692   2.601  12.815  0.0836 -0.0533  0.3874
 9483W        W26330  12.438   9.493   5.630  0.1803 -0.4938 -0.3697
 9484W        W26331   2.952   8.701   5.781  0.0737 -0.1667 -0.3134
 9485W        W26332  10.866   6.847  15.297  0.0740 -0.1846  0.1805
 9486W        W26333   0.696   5.945  16.470  0.1703 -0.4458  0.0364
 9487W        W26334  13.862  15.367  13.149  0.0883 -0.1484  0.3453
 9488W        W26335   5.455   8.175  14.176 -0.1460 -0.1748  0.1720
 9489W        W26336  13.673  13.341  14.097  0.0774 -0.0724 -0.1112
 9490W        W26337  13.957   3.442  12.229 -0.2279  0.1256  0.1484
 9491W        W26338  13.472  10.112  14.795  0.3596 -0.1227 -0.0079
 9492W        W26339   6.773   7.182   4.608  0.1690 -0.2317  0.0564
 9493W        W26340   6.213   9.485  15.036  0.1306  0.0292 -0.0440
 9494W        W26341   5.172   4.826   0.624  0.0493 -0.1166 -0.0603
 9495W        W26342  14.134   6.074  14.043 -0.1204  0.1170 -0.2783
 9496W        W26343  12.543  12.264   5.535 -0.0394 -0.1437 -0.2594
 9497W        W26344  15.274   6.572  12.845  0.1520  0.0543  0.2080
 9498W        W26345   4.628  13.948   2.864  0.0051 -0.1593 -0.1653
 9499W        W26346  13.216  12.279   1.737  0.0283  0.0482  0.2320
 9500W        W26347   0.612   1.031  12.885  0.2987  0.1442 -0.1014
 9501W        W26348   3.267   2.870  11.719 -0.2416  0.1278 -0.3162
 9502W        W26349  10.648  17.482   1.472 -0.0039  0.0671  0.1503
 9503W        W26350  15.466  15.844   1.684 -0.2330  0.2190 -0.1568
 9504W        W26351   7.698  16.706   3.053 -0.1572 -0.0115  0.1236
 9505W        W26352  16.100   3.842   2.111 -0.1839 -0.1980 -0.1713
 9506W        W26353   9.888   7.963   0.037  0.1237 -0.1112  0.1057
 9507W        W26354   8.167   4.972  12.842  0.1614 -0.0840 -0.0580
 9508W        W26355   6.321   4.810  16.561 -0.1515 -0.0556  0.0453
 9509W        W26356   2.296   1.949   0.787  0.0757  0.3048 -0.1233
 9510W        W26357   7.536  13.239  13.547 -0.2109 -0.1090 -0.1028
 9511W        W26358   3.071  10.910   3.420 -0.0560  0.0446 -0.2088
 9512W        W26359   9.034   4.376  12.019  0.1262  0.3320 -0.3639
 9513W        W26360  14.836   0.347   4.031 -0.1316 -0.2304  0.0991
 9514W        W26361  15.256   0.583  12.552 -0.0463 -0.2970  0.3516
 9515W        W26362   0.655  14.325   1.296  0.0184 -0.2158 -0.0739
 9516W        W26363   0.101   1.181   0.282  0.2333 -0.3078  0.0602
 9517W        W26364  11.408  17.856  14.603 -0.0479 -0.1063 -0.1528
 9518W        W26365   7.629   0.172   5.581 -0.1713 -0.3435 -0.1944
 9519W        W26366   4.913  16.030  14.519  0.1323 -0.0465  0.2346
 9520W        W26367  13.685  17.444  11.704 -0.1138  0.0406  0.0604
 9521W        W26368   9.465   8.603   0.460 -0.0268 -0.0523 -0.0229
 9522W        W26369  10.903   5.567  11.712  0.2935 -0.0799 -0.3896
 9523W        W26370   5.809   3.107  13.269  0.0255 -0.2883  0.0748
 9524W        W26371   4.562   0.089  16.541 -0.0584  0.3137  0.0317
 9525W        W26372  18.051   8.839   0.612 -0.0447 -0.2043  0.0093
 9526W        W26373   4.444  13.383   4.297 -0.0546 -0.1004 -0.0963
 9527W        W26374   9.790  17.033  15.640  0.0398 -0.1898  0.0585
 9528W        W26375  17.999   7.440  14.620 -0.1791 -0.2603  0.3525
 9529W        W26376   9.718   7.974  13.222  0.0724  0.3033  0.0848
 9530W        W26377   8.865   0.420   5.558 -0.0600  0.3667  0.0582
 9531W        W26378   4.523   7.840  14.024 -0.0112 -0.0597  0.3995
 9532W        W26379   0.767  17.212  15.226 -0.0784  0.1304 -0.0577
 9533W        W26380   8.095  12.792  12.666 -0.1926 -0.0442  0.0443
 9534W        W26381   3.394  15.185   5.492 -0.0153  0.2669 -0.1660
 9535W        W26382  17.038   9.900  14.786 -0.0050  0.0308  0.1902
 9536W        W26383   0.489  14.754  12.628 -0.1020 -0.1282 -0.0662
 9537W        W26384   7.928  14.101   0.849  0.0505 -0.2251 -0.1768
 9538W        W26385  16.817   1.952  14.782  0.3110 -0.1335  0.2241
 9539W        W26386   5.318   6.093   3.270 -0.0610 -0.0136 -0.1670
 9540W        W26387  10.939  12.639  14.046  0.0190  0.1719  0.3174
 9541W        W26388  16.165   7.992   0.255 -0.2675  0.2296 -0.1169
 9542W        W26389  17.741   7.659   2.328  0.0662  0.0660 -0.0638
 9543W        W26390   4.466  13.617   3.761  0.2582 -0.1213 -0.0658
 9544W        W26391  13.156  16.477   4.087 -0.1127 -0.0721  0.1787
 9545W        W26392   1.905  10.853   3.597 -0.1394 -0.2667  0.1143
 9546W        W26393   6.652  11.060  13.106  0.3989  0.0949 -0.1478
 9547W        W26394   6.626   1.264   0.931  0.2697  0.4447  0.2351
 9548W        W26395  12.323   2.960   0.619 -0.0970 -0.0093 -0.2113
 9549W        W26396   3.894  14.495  15.974  0.1464  0.0886 -0.0693
 9550W        W26397  16.903   5.818  14.123  0.1741 -0.0613 -0.0097
 9551W        W26398   8.280  11.752   1.213  0.0114  0.1283 -0.2530
 9552W        W26399  15.669  14.743  14.032  0.0119 -0.3005 -0.0197
 9553W        W26400   6.612  17.123   2.669  0.2119 -0.0253 -0.0207
 9554W        W26401  14.867  15.434  14.570 -0.1030  0.1586  0.2019
 9555W        W26402   3.484   1.965   5.591  0.1681 -0.0102 -0.3327
 9556W        W26403   4.965   4.094  11.545  0.1489 -0.3580  0.0313
 9557W        W26404   6.092   6.707  12.526 -0.0202 -0.4853 -0.0074
 9558W        W26405   5.513   4.189  12.895  0.1762 -0.0259  0.0384
 9559W        W26406  10.060   2.228  14.469 -0.0040  0.0750 -0.0987
 9560W        W26407  11.436   4.417   0.401  0.0461  0.3434  0.0792
 9561W        W26408  15.623  10.113   4.550  0.0073  0.1726  0.0161
 9562W        W26409   8.844  11.551  16.243  0.1281  0.1148  0.2963
 9563W        W26410   0.464  15.649   6.042  0.1696 -0.2302  0.0670
 9564W        W26411  12.626   4.455   4.357  0.0396  0.1073 -0.0423
 9565W        W26412  15.678  17.411   3.206 -0.0728  0.0698  0.0742
 9566W        W26413   0.115  12.612  14.539  0.1536 -0.0012  0.1304
 9567W        W26414   6.126   9.109   2.242 -0.0701 -0.1499  0.0912
 9568W        W26415  13.232  16.733  15.583 -0.0419 -0.1869  0.2776
 9569W        W26416  17.781  15.869  12.635 -0.1219 -0.0906 -0.0399
 9570W        W26417   1.837   9.850   4.142  0.1845  0.1712 -0.1005
 9571W        W26418  11.071   9.960   4.544  0.2522 -0.2164  0.0754
 9572W        W26419   2.127  16.019  13.854  0.0651 -0.4188  0.1277
 9573W        W26420   9.235   5.241   5.120  0.0058  0.1876 -0.0526
 9574W        W26421   2.927   8.151   1.318  0.2207 -0.0903 -0.0715
 9575W        W26422  16.814   7.670  11.909 -0.1127  0.1844 -0.0367
 9576W        W26423   2.057   3.004   0.256 -0.1645 -0.0546  0.0856
 9577W        W26424  10.755   5.205  12.549  0.1012  0.0567 -0.3384
 9578W        W26425  11.057   0.236  11.510  0.1558 -0.0091 -0.0759
 9579W        W26426  15.511   1.707   4.363 -0.1708  0.2106  0.1605
 9580W        W26427   8.327   0.292  11.793 -0.2602  0.0103 -0.2390
 9581W        W26428  16.811   7.542  16.606 -0.1410 -0.0328  0.1649
 9582W        W26429  14.529   4.038  12.503 -0.2461 -0.0947  0.0845
 9583W        W26430  17.314   0.484   1.246  0.2054 -0.2856 -0.1730
 9584W        W26431   2.567   1.965  14.723  0.1038  0.2718  0.0333
 9585W        W26432   4.881   3.341  13.464  0.0802 -0.0827  0.0655
 9586W        W26433   0.456  16.236   2.288  0.1133  0.3314  0.1243
 9587W        W26434  15.294  10.587  12.280  0.0813 -0.2110 -0.2435
 9588W        W26435  16.679   0.737   0.372  0.0271 -0.2358 -0.0937
 9589W        W26436   2.463   6.892   1.491  0.1310 -0.2080  0.0127
 9590W        W26437   2.305   9.005   5.170 -0.1694  0.1013  0.2483
 9591W        W26438  13.698   9.237  16.388 -0.1405  0.1937  0.3229
 9592W        W26439   2.939   5.217   1.520  0.0838  0.0274  0.0077
 9593W        W26440  15.317  11.537   4.638 -0.0057 -0.1633  0.0093
 9594W        W26441   0.845   5.532   3.097  0.2208 -0.0500 -0.1806
 9595W        W26442   7.910  12.509  14.864  0.1444  0.2922 -0.2326
 9596W        W26443   7.995  12.343  15.346  0.0787  0.1783  0.0536
 9597W        W26444   5.028   1.966   0.178  0.1032 -0.0129  0.0431
 9598W        W26445   5.668   5.994   0.216  0.1427  0.1056 -0.2068
 9599W        W26446   6.956   6.792  15.324  0.2448 -0.0083 -0.1875
 9600W        W26447  16.904   3.971  13.771  0.0243 -0.0674 -0.1266
 9601W        W26448  10.813   9.187  15.391  0.0731 -0.0250  0.2168
 9602W        W26449  12.625  13.665   3.011  0.0393  0.0795  0.1320
 9603W        W26450   8.718  10.691   2.627  0.0903 -0.0134 -0.0305
 9604W        W26451  10.128   6.863  10.872  0.1067 -0.1132 -0.1183
 9605W        W26452   6.775   7.707   6.356  0.1835  0.2849 -0.0822
 9606W        W26453  14.758   4.390  15.631  0.0814 -0.1098 -0.0210
 9607W        W26454  14.562  13.571   6.048 -0.0899  0.1013 -0.0729
 9608W        W26455  12.548  17.700  12.919 -0.2138  0.1885  0.0689
 9609W        W26456  14.633   5.032   3.403 -0.3348 -0.1751  0.0890
 9610W        W26457  17.600   6.606   4.396 -0.0354  0.0096  0.0094
 9611W        W26458   6.841  14.243  12.397  0.0250 -0.0926 -0.0730
 9612W        W26459  11.467   7.518  16.249 -0.2015 -0.1562 -0.2315
 9613W        W26460   6.286   0.261   0.001  0.1883  0.2097 -0.0040
 9614W        W26461   2.636   9.055   5.993  0.0203  0.2635  0.0844
 9615W        W26462  16.721   4.663   0.459 -0.2291  0.2479  0.1891
 9616W        W26463  12.420   1.946  14.476  0.0292  0.0473 -0.1486
 9617W        W26464   1.252   8.487   2.999  0.0682 -0.1119  0.1362
 9618W        W26465   7.377   0.721   1.615 -0.1543 -0.0497 -0.5025
 9619W        W26466   0.983  11.606   1.438  0.1298  0.2194 -0.2027
 9620W        W26467  12.167  10.769   3.935 -0.0751 -0.0003  0.0146
 9621W        W26468  10.798   4.144  13.106 -0.0889 -0.0494 -0.1139
 9622W        W26469  11.808   3.103   1.445 -0.1399 -0.3479  0.0107
 9623W        W26470   4.021   3.076   1.397 -0.0173 -0.1198 -0.0535
 9624W        W26471   5.891  15.100  16.441  0.0198 -0.1617 -0.0318
 9625W        W26472   0.180  15.077   2.141 -0.0263 -0.3901  0.0502
 9626W        W26473   6.692  14.069   4.490 -0.1273 -0.1786 -0.1324
 9627W        W26474   8.228   7.219   0.312 -0.0459  0.0187 -0.3022
 9628W        W26475   2.701  17.156   5.019 -0.1727 -0.0151  0.0307
 9629W        W26476  13.475   1.073  12.536 -0.0795  0.0428 -0.1504
 9630W        W26477  17.532   5.933  14.372 -0.2727  0.1354 -0.2156
 9631W        W26478   6.272   8.851   0.328 -0.1618  0.0404 -0.0949
 9632W        W26479  15.761   6.335   2.292 -0.0562  0.0579  0.1445
 9633W        W26480  15.377  12.059   6.227 -0.0415 -0.1586 -0.4088
 9634W        W26481   4.951  12.882   4.155 -0.1126 -0.1062  0.2904
 9635W        W26482  14.038   4.269  14.535 -0.1607 -0.4202  0.1646
 9636W        W26483   1.068  10.841  14.778  0.2317 -0.1151 -0.1262
 9637W        W26484  11.474  15.029  15.431  0.2060 -0.0255  0.0888
 9638W        W26485   1.658  13.871  12.272 -0.1555  0.3348 -0.1619
 9639W        W26486   3.209   0.816  12.817 -0.1196  0.1309 -0.1408
 9640W        W26487   4.791  10.076   3.031 -0.1963  0.0193  0.1574
 9641W        W26488   8.055  14.479   4.440  0.2232  0.0313  0.0834
 9642W        W26489  12.883   8.437   1.544 -0.0417  0.2113  0.0160
 9643W        W26490   0.781   5.310  12.528  0.0829  0.1157  0.0818
 9644W        W26491  15.195  11.519  13.948 -0.2139 -0.0997 -0.0371
 9645W        W26492  12.398  15.805  13.136 -0.0714 -0.1917 -0.0593
 9646W        W26493   6.956   1.645  13.216 -0.0431 -0.4731  0.4987
 9647W        W26494  11.483  10.642  11.410  0.0317  0.0700  0.0536
 9648W        W26495  13.929   9.617   4.924 -0.1847  0.1054 -0.4119
 9649W        W26496   9.509   3.802   4.133 -0.1315 -0.0203 -0.3093
 9650W        W26497   5.550  16.199  12.665 -0.0593 -0.3944  0.0493
 9651W        W26498  16.448   3.869   4.459 -0.0537  0.3063 -0.2157
 9652W        W26499   2.835   9.746   3.644  0.0541  0.2930  0.1941
 9653W        W26500   9.211  12.205   2.204 -0.3799 -0.0946 -0.0447
 9654W        W26501   2.046  16.715   4.239 -0.1036 -0.0980 -0.3432
 9655W        W26502   5.969   8.841  13.248 -0.2637 -0.0327  0.0090
 9656W        W26503   1.733  15.034   2.985  0.1365 -0.0501  0.1198
 9657W        W26504  12.455  10.675  15.256  0.0060  0.0446  0.1683
 9658W        W26505   7.966  10.577   2.760  0.0165 -0.1850 -0.0639
 9659W        W26506   8.877  13.670   0.778 -0.2826 -0.0164 -0.3656
 9660W        W26507  12.825   5.854  15.436  0.2755 -0.4439  0.4276
 9661W        W26508   3.861   2.070  15.651 -0.1579  0.0638 -0.3432
 9662W        W26509   3.594   9.618  15.123  0.3854 -0.1959  0.0571
 9663W        W26510  16.138  17.311  13.768  0.1390 -0.1123  0.2073
 9664W        W26511   5.665   3.206   5.701  0.0121  0.2373  0.1567
 9665W        W26512  16.338   6.567   3.977 -0.0119  0.0338 -0.1031
 9666W        W26513  10.830  14.465   1.516  0.0692 -0.0241 -0.1787
 9667W        W26514  15.025  11.903  12.353 -0.2234 -0.0149  0.0250
 9668W        W26515  14.319   8.247  12.735 -0.1336 -0.0671  0.0823
 9669W        W26516  14.397  11.467  11.749 -0.1324  0.2304 -0.0065
 9670W        W26517  13.316  10.519  15.144 -0.3072 -0.2808  0.0162
 9671W        W26518   1.942   6.535  13.836  0.3313  0.2076 -0.2167
 9672W        W26519  15.527   6.320   0.397  0.2272 -0.1614 -0.3011
 9673W        W26520   5.889  17.484   3.006  0.0540 -0.1698 -0.0239
 9674W        W26521   8.537   7.398   5.591  0.3524  0.1297 -0.0820
 9675W        W26522   7.445  11.824  16.535  0.0325  0.3501 -0.0164
 9676W        W26523   2.053   3.625  12.736 -0.0883  0.1242 -0.1706
 9677W        W26524  15.442   6.622   0.815  0.1100 -0.2778  0.0373
 9678W        W26525  14.076   5.937  12.143  0.0792 -0.2596  0.2285
 9679W        W26526   5.351   0.951   1.551 -0.2797 -0.1980  0.1279
 9680W        W26527  13.763   8.539   4.473 -0.4192 -0.0133  0.1642
 9681W        W26528   7.073  16.687  12.889 -0.1459  0.3154 -0.0999
 9682W        W26529  12.285  16.586  15.773  0.1485  0.0860 -0.0226
 9683W        W26530  16.230   4.601  15.440  0.0160 -0.0623 -0.2713
 9684W        W26531  10.752  10.510   2.047 -0.0844 -0.1031 -0.0413
 9685W        W26532  16.650  13.445   3.477 -0.0735 -0.1423 -0.3898
 9686W        W26533  16.963   4.953   1.918 -0.2554  0.0410 -0.0390
 9687W        W26534   9.788   4.894   2.087  0.0590 -0.0104 -0.0851
 9688W        W26535   1.284  12.381   0.792 -0.2202  0.2779 -0.0013
 9689W        W26536   1.027   4.294  15.175  0.0011  0.1537  0.0794
 9690W        W26537  10.107   2.130   0.586 -0.4892 -0.0868  0.0777
 9691W        W26538   4.441  14.205  15.283 -0.0074 -0.0264  0.4271
 9692W        W26539   7.695   7.210  13.154 -0.3998 -0.1714  0.1214
 9693W        W26540   6.094   0.296  15.099 -0.1228  0.2515  0.1450
 9694W        W26541  14.279  11.026   0.440  0.2271 -0.5143  0.1797
 9695W        W26542  10.964   1.849  13.519 -0.2433 -0.0518 -0.0714
 9696W        W26543   8.851   7.467   4.522 -0.0876  0.2905  0.0102
 9697W        W26544  15.400  15.660  16.511 -0.1712  0.1707 -0.2458
 9698W        W26545   5.121  14.999  15.525 -0.0299 -0.0304  0.1150
 9699W        W26546   9.948  13.602   4.223 -0.1083 -0.1825  0.1512
 9700W        W26547   6.516   9.319  15.785 -0.1200 -0.0810  0.1120
 9701W        W26548   7.307  10.978  12.383 -0.0739 -0.0178 -0.2240
 9702W        W26549  12.282   7.641   5.700 -0.0841  0.0623 -0.1017
 9703W        W26550  16.764   4.369   2.667 -0.0229 -0.2256 -0.1063
 9704W        W26551   0.362  10.338  12.166  0.1362  0.2703  0.0673
 9705W        W26552  15.076   5.301  13.821 -0.0969  0.2359 -0.1493
 9706W        W26553  17.016  10.341   5.002 -0.0665  0.2289  0.0739
 9707W        W26554  16.801  14.411  11.945 -0.1432 -0.0366  0.0210
 9708W        W26555  14.913  14.526  15.979 -0.0896  0.1792  0.0314
 9709W        W26556   0.344   4.496  16.554 -0.0243 -0.1293  0.3870
 9710W        W26557  11.311   8.882  12.451  0.0759  0.1168 -0.0212
 9711W        W26558  17.692   0.606   2.515  0.2946 -0.2608 -0.0222
 9712W        W26559   3.282   7.658   2.495 -0.1148 -0.0316 -0.2588
 9713W        W26560   7.556   9.310   2.426  0.2059 -0.2052  0.2363
 9714W        W26561   3.126  11.103   1.061 -0.0074  0.0813 -0.1568
 9715W        W26562  13.212   3.706   4.000  0.0596 -0.3116 -0.0759
 9716W        W26563  14.257  17.797   2.038 -0.0656 -0.1158  0.0897
 9717W        W26564   5.280  16.016  12.269  0.0012  0.0943 -0.2523
 9718W        W26565   7.567   5.316   4.355  0.1622 -0.2727 -0.3905
 9719W        W26566   1.522   3.141  13.624  0.0674 -0.1663  0.4655
 9720W        W26567  12.007  13.207  14.990  0.0472  0.1533 -0.0696
 9721W        W26568  17.312  16.178  14.587 -0.1530  0.0253  0.0190
 9722W        W26569   7.003  14.613   0.303 -0.1157 -0.0480 -0.0820
 9723W        W26570   3.466   8.234  13.284  0.0537 -0.1938  0.3517
 9724W        W26571  11.058  14.666  15.224  0.2028  0.0985 -0.1240
 9725W        W26572   9.079   1.501  11.110  0.1100 -0.1713  0.1405
 9726W        W26573   8.091   2.484   3.752 -0.1805 -0.1115  0.1238
 9727W        W26574   3.634   4.624   2.608  0.1776 -0.0026 -0.1500
 9728W        W26575  16.042   6.203   0.271 -0.0590 -0.2552 -0.2488
 9729W        W26576  16.444  12.378   0.972  0.0236 -0.0690 -0.1292
 9730W        W26577   1.687  12.073   4.939 -0.0257 -0.1594 -0.2138
 9731W        W26578  10.839   1.011  13.369  0.2097  0.1390 -0.3018
 9732W        W26579   5.537  13.275   5.931  0.1273  0.0241  0.0526
 9733W        W26580   9.501   6.944  13.378 -0.0302  0.0094  0.2599
 9734W        W26581  13.699  10.398   4.316  0.1333 -0.0606  0.1880
 9735W        W26582  16.001   7.001  15.405 -0.0800  0.0075 -0.0058
 9736W        W26583  11.431   2.964  14.078 -0.2153 -0.1240  0.1115
 9737W        W26584   3.991  16.775  14.645  0.2282  0.2129  0.1651
 9738W        W26585   7.174  16.865  15.411  0.0050 -0.1391  0.1441
 9739W        W26586  17.103  11.390  13.707 -0.3192 -0.1729 -0.0788
 9740W        W26587   7.892  12.164   0.996  0.1915  0.3604 -0.0177
 9741W        W26588   9.833   0.982   3.713  0.1864  0.0967  0.1565
 9742W        W26589  12.599   3.854   6.001  0.2491  0.0052 -0.0365
 9743W        W26590  12.249   8.781  16.283 -0.0083 -0.1221  0.0977
 9744W        W26591  13.233  16.109   4.438 -0.0592 -0.1108 -0.0786
 9745W        W26592   1.626   2.631   1.502 -0.0533  0.1323 -0.1796
 9746W        W26593  17.969  11.592  12.151 -0.0912  0.1561  0.1418
 9747W        W26594  15.188   0.642  15.294  0.0705 -0.1292 -0.0406
 9748W        W26595   7.498  16.013   5.214 -0.2095 -0.0444 -0.1381
 9749W        W26596  16.080  15.546  16.040 -0.3921 -0.0096 -0.5416
 9750W        W26597  12.433   6.668   4.814  0.1889 -0.0495 -0.1291
 9751W        W26598   6.478   4.271   1.903  0.3402 -0.1737 -0.1480
 9752W        W26599   8.927   7.822  11.498  0.4042 -0.4945  0.0260
 9753W        W26600  11.932   0.936  12.730 -0.0080  0.1171 -0.2971
 9754W        W26601  12.007  12.484   2.813 -0.0742 -0.2638 -0.0471
 9755W        W26602   6.001   1.623  13.780 -0.1560  0.0730 -0.2455
 9756W        W26603   1.314   1.087  16.465  0.0647 -0.0274  0.0751
 9757W        W26604  17.708  13.910  14.405  0.0321 -0.1438  0.0166
 9758W        W26605  16.973   7.956   2.437 -0.3980  0.1587  0.1420
 9759W        W26606  11.658   4.864  13.893  0.1195 -0.3916 -0.1480
 9760W        W26607  13.312   1.866  11.855  0.2872 -0.0731 -0.0385
 9761W        W26608   1.500   8.818   3.302  0.1443  0.0402 -0.0347
 9762W        W26609  10.154  17.393  15.416 -0.1402  0.0817 -0.1786
 9763W        W26610  13.450  10.653   0.856  0.0150 -0.0832 -0.0327
 9764W        W26611   7.081  11.447  12.415 -0.0562  0.1386  0.0678
 9765W        W26612   7.101   1.074   2.294 -0.2611 -0.2123 -0.2797
 9766W        W26613   6.030   3.637   2.676 -0.0164  0.0358  0.0557
 9767W        W26614  14.233   8.943   3.580 -0.1728 -0.0016  0.1534
 9768W        W26615   5.707   6.397  11.639  0.3840  0.3542  0.1123
 9769W        W26616   2.640   4.600   5.038 -0.2534 -0.0435 -0.2368
 9770W        W26617   5.338   2.923  14.797 -0.0283  0.1975  0.0138
 9771W        W26618   0.183  11.841  13.465 -0.0206 -0.1814  0.2586
 9772W        W26619   5.603   9.616  16.135  0.1329  0.3396  0.2387
 9773W        W26620   9.386   9.406   0.650 -0.0408  0.0615  0.1349
 9774W        W26621   7.271  12.506  13.961 -0.0549  0.1508  0.1654
 9775W        W26622  14.378   6.459   3.400 -0.2187  0.6116 -0.0786
 9776W        W26623  17.272  15.396  16.380  0.2353 -0.2163  0.2019
 9777W        W26624   8.424  16.036  12.728 -0.0349  0.0064  0.1420
 9778W        W26625   6.124   0.415   3.623  0.0591  0.4052 -0.1383
 9779W        W26626   1.058  14.986  14.942 -0.1108 -0.1293  0.1378
 9780W        W26627  16.962  12.231   2.345 -0.0729  0.2069  0.0603
 9781W        W26628   1.644  14.006   4.910 -0.0671  0.2064  0.3713
 9782W        W26629  15.859   8.532  13.780  0.0540 -0.1142  0.3420
 9783W        W26630  12.428   1.566   4.611  0.0201  0.3559  0.0650
 9784W        W26631   6.286   8.393  14.953  0.0134  0.1935 -0.1724
 9785W        W26632  14.954   9.882  12.753 -0.0444 -0.1313 -0.0553
 9786W        W26633   3.409  12.382   1.390  0.0047 -0.3170  0.0301
 9787W        W26634   4.131  10.441   0.322 -0.3015 -0.0983 -0.3703
 9788W        W26635  11.507  11.341   3.230 -0.0145  0.0501 -0.0321
 9789W        W26636   0.803  15.563  14.225  0.3689 -0.1386 -0.1544
 9790W        W26637  11.762   9.316   4.560  0.0350  0.0008  0.0598
 9791W        W26638   4.911   0.125  14.029 -0.1971 -0.1324  0.2794
 9792W        W26639   1.666   0.037  14.426  0.0736  0.4164 -0.1935
 9793W        W26640   5.399   8.573   5.729 -0.0059 -0.1171 -0.1576
 9794W        W26641   5.145   3.981  12.583 -0.0341  0.1694  0.0827
 9795W        W26642   1.739  17.729  13.532  0.0281  0.2534 -0.0098
 9796W        W26643   3.769  14.002  16.070  0.0236  0.1609  0.0311
 9797W        W26644  16.712   5.298  15.821  0.1641 -0.0020 -0.0742
 9798W        W26645   5.883   6.363   2.446  0.2411  0.2504 -0.1499
 9799W        W26646  12.824  12.971   2.212  0.1053 -0.0446  0.1192
 9800W        W26647   9.764   0.498  14.899 -0.2478 -0.0056 -0.0937
 9801W        W26648   3.134   3.474  14.794 -0.4205 -0.1411 -0.0159
 9802W        W26649   2.862   9.215   6.483  0.1670  0.3525 -0.1485
 9803W        W26650   6.904   7.267  15.167 -0.0693 -0.0086  0.2078
 9804W        W26651   5.813  17.357   0.749  0.0425 -0.1400  0.1251
 9805W        W26652   7.254  14.618  14.701  0.0279  0.0538  0.0206
 9806W        W26653  10.991  10.671   1.176  0.2804  0.0457 -0.0054
 9807W        W26654   0.216   3.971   3.504 -0.1420  0.1722  0.0197
 9808W        W26655  14.340   5.019  12.654 -0.0579  0.1550  0.0744
 9809W        W26656   0.679   0.085  12.657  0.2421 -0.2754  0.1681
 9810W        W26657  14.382   7.862   4.425  0.0571  0.1703  0.0415
 9811W        W26658   9.456  15.048   0.500  0.0025  0.0791 -0.1310
 9812W        W26659   8.594  14.048  12.691 -0.0781 -0.0339 -0.2570
 9813W        W26660  15.512   5.832  14.463 -0.0215  0.0640 -0.1406
 9814W        W26661   0.683  14.512   3.631 -0.1178 -0.0202 -0.0444
 9815W        W26662   7.424  11.449   0.841  0.2699  0.0687  0.0932
 9816W        W26663   4.639   9.032  16.130 -0.0086  0.0401  0.2387
 9817W        W26664   4.846  15.986  12.568  0.2629  0.1372 -0.0146
 9818W        W26665  10.682  16.413   0.451 -0.2128  0.1044  0.0158
 9819W        W26666   4.702   6.626  13.573 -0.1187  0.2605  0.0523
 9820W        W26667  12.007   7.340   1.149  0.0454 -0.3272 -0.1513
 9821W        W26668   3.974  12.889  12.241 -0.0676  0.0323 -0.0601
 9822W        W26669  12.292  15.893   5.463 -0.1965 -0.4477 -0.1965
 9823W        W26670   0.505   2.876   5.332 -0.1369 -0.0219 -0.1346
 9824W        W26671   0.861   8.896  11.841 -0.3737  0.2269 -0.0709
 9825W        W26672   3.249  15.783  11.755  0.1424 -0.3955  0.0129
 9826W        W26673   7.195  11.271   4.604  0.4623  0.0217  0.0610
 9827W        W26674  13.237   2.927  14.891 -0.0672  0.1148 -0.1324
 9828W        W26675  13.542   2.960  13.657 -0.0507  0.0929  0.1350
 9829W        W26676   5.228   2.105  12.483 -0.0647  0.0646 -0.0380
 9830W        W26677  10.726   1.605   4.510  0.0940  0.0155  0.0701
 9831W        W26678  12.477  17.740   4.304  0.1662 -0.2100 -0.1186
 9832W        W26679   1.351   7.946   5.232  0.3295  0.0948 -0.0444
 9833W        W26680  15.440   8.967  16.451  0.3651 -0.1768  0.0995
 9834W        W26681  17.743  16.393  12.486 -0.1988 -0.0514  0.0372
 9835W        W26682   1.183   2.338   4.145  0.0888  0.2078  0.0988
 9836W        W26683   3.554  14.928  14.220  0.1683  0.0217  0.1841
 9837W        W26684  17.370  17.936  13.655 -0.0325  0.1249 -0.2423
 9838W        W26685  16.742   1.426   4.368 -0.2382  0.2589 -0.0214
 9839W        W26686   0.685  13.708   0.161  0.0547 -0.4820 -0.0550
 9840W        W26687   6.521  18.010   5.125  0.0628  0.1036  0.1023
 9841W        W26688  12.196  13.226  15.466  0.0700  0.0037 -0.1054
 9842W        W26689   0.308  15.695  12.761  0.4361  0.1856  0.5188
 9843W        W26690  12.681  11.581  15.436  0.1009 -0.1244  0.1516
 9844W        W26691  11.576  16.766   2.925  0.0736 -0.0028 -0.0874
 9845W        W26692   4.803   8.201  14.317 -0.1496  0.3218 -0.3050
 9846W        W26693   4.417  12.577  15.581  0.1644 -0.0720 -0.3005
 9847W        W26694   0.582   8.648   0.192 -0.0899 -0.1262  0.2270
 9848W        W26695   9.156  12.593   1.645 -0.1884  0.2049  0.0100
 9849W        W26696  12.782   6.865  15.683 -0.1311  0.0214 -0.1454
 9850W        W26697  15.500  15.553   1.203 -0.4051  0.0352 -0.1745
 9851W        W26698  16.037  14.341   2.387 -0.0171 -0.0961 -0.0344
 9852W        W26699  12.849   9.010   3.658 -0.0017 -0.0082  0.1069
 9853W        W26700   9.939  16.414   0.829 -0.0193 -0.1723 -0.1510
 9854W        W26701   2.447   6.754   0.933  0.0073  0.1537 -0.0030
 9855W        W26702   7.059   3.859  14.966  0.1019  0.5634  0.0901
 9856W        W26703   5.865   4.417   2.353  0.1337  0.1348 -0.1221
 9857W        W26704  11.236  15.683   5.154  0.0670  0.0095 -0.2988
 9858W        W26705   5.237   9.576   0.640  0.0209 -0.1217  0.1562
 9859W        W26706  15.611   4.778   0.029 -0.1292 -0.0021  0.2361
 9860W        W26707  10.368   9.669   5.016  0.0225 -0.0146 -0.1443
 9861W        W26708  10.224  12.165   5.378 -0.1075 -0.0380 -0.1276
 9862W        W26709   7.698   6.696  14.853 -0.2203  0.0316 -0.5333
 9863W        W26710   8.722   9.517   2.028 -0.0012  0.1004 -0.2554
 9864W        W26711   6.522   7.287   2.040  0.3923 -0.1313 -0.0902
 9865W        W26712  11.789   7.028   4.622 -0.0602  0.3129 -0.0688
 9866W        W26713  13.470  14.784  16.403  0.1280  0.1036  0.2197
 9867W        W26714  17.552  14.871  12.456 -0.0024 -0.3226  0.4113
 9868W        W26715  17.151  15.559   4.035  0.0786 -0.0551  0.0844
 9869W        W26716   7.112  11.146  13.352 -0.5312 -0.0209  0.0457
 9870W        W26717  16.872  11.681   3.748  0.2730 -0.1058  0.1323
 9871W        W26718   4.156   6.304  16.145  0.2134 -0.0961  0.0936
 9872W        W26719   0.394   2.022  16.660  0.0521  0.2675 -0.0058
 9873W        W26720  11.151  14.433   4.607  0.2000  0.4348 -0.1292
 9874W        W26721   2.713  14.277  14.134 -0.0653  0.1482  0.0329
 9875W        W26722   9.937   2.038   1.191 -0.2263  0.0618  0.0235
 9876W        W26723  11.362   5.597  15.598 -0.1565 -0.0747  0.3701
 9877W        W26724   7.013  15.661  16.076  0.0432  0.5670  0.1706
 9878W        W26725  11.833   8.064   3.582 -0.2405  0.0573  0.0306
 9879W        W26726   1.211  16.237   6.116  0.1063  0.0836 -0.0614
 9880W        W26727   4.400   8.598  13.018 -0.1260 -0.0522 -0.4736
 9881W        W26728   6.919  12.764   5.953  0.3468  0.0505 -0.4683
 9882W        W26729  16.815  13.050  11.489  0.1051  0.0279  0.1688
 9883W        W26730   4.311  13.303   0.482  0.0185 -0.2359 -0.0563
 9884W        W26731   3.492  10.942   5.476  0.1893 -0.2505  0.1947
 9885W        W26732   3.901  11.615  14.759 -0.0807  0.0094 -0.2526
 9886W        W26733   0.007  15.312   0.371  0.0570  0.1716  0.1381
 9887W        W26734   6.379   9.060   5.406 -0.4283 -0.3501  0.1753
 9888W        W26735   3.551  12.863   0.527 -0.2232 -0.1826 -0.0911
 9889W        W26736   6.799   4.891  16.068  0.2494  0.0078  0.3330
 9890W        W26737   2.633   1.235  11.460 -0.1560 -0.1761  0.2097
 9891W        W26738   8.940   7.887  12.082 -0.0386 -0.0962 -0.1678
 9892W        W26739   2.535   8.071   4.995 -0.0589 -0.1333  0.0194
 9893W        W26740  17.192  14.483  12.300 -0.1679  0.1245 -0.1308
 9894W        W26741   6.289   9.388  16.509 -0.1388 -0.0809  0.1590
 9895W        W26742  15.918   4.127  15.192 -0.0470 -0.2450 -0.2824
 9896W        W26743   4.008   7.265   2.537  0.3271 -0.1843 -0.2328
 9897W        W26744   8.154  10.811   0.313 -0.0227 -0.1631  0.3008
 9898W        W26745   1.277   7.919  14.527  0.0356 -0.0541 -0.0948
 9899W        W26746  15.295   8.579   1.217  0.0543 -0.1758  0.0403
 9900W        W26747  15.624   3.124  16.514 -0.2878  0.0834  0.0818
 9901W        W26748   2.073  13.161   1.224 -0.1689  0.1930 -0.1061
 9902W        W26749   5.995  11.557  15.079 -0.2117 -0.0077 -0.1149
 9903W        W26750   2.169  12.108   0.994  0.1120 -0.2185  0.0403
 9904W        W26751   5.809  14.069  14.711 -0.1767 -0.1232  0.2261
 9905W        W26752  10.421  13.105  11.507 -0.2130 -0.1465 -0.0351
 9906W        W26753  17.563   1.013   2.894 -0.2149  0.1216 -0.1906
 9907W        W26754   2.525  10.913  15.140 -0.0089  0.1018 -0.0579
 9908W        W26755   3.377  16.454   4.535  0.0475 -0.2053 -0.1017
 9909W        W26756  17.203  12.024  13.529  0.2085 -0.4937  0.1850
 9910W        W26757   1.700   7.998   2.850  0.0227  0.1704 -0.1287
 9911W        W26758  16.865   1.565   1.081 -0.1952 -0.1722  0.1800
 9912W        W26759  11.137   6.005  13.642 -0.2490 -0.1294  0.1579
 9913W        W26760   6.595   3.387   5.622  0.0195  0.0387  0.0040
 9914W        W26761  12.814  15.334   2.966 -0.0879  0.1991  0.0482
 9915W        W26762   4.987  13.904   1.796  0.3071 -0.0099 -0.3571
 9916W        W26763   5.217   6.590   3.148  0.0425 -0.1121  0.1376
 9917W        W26764   3.638   3.517  11.447  0.0380 -0.1299 -0.1052
 9918W        W26765  12.899  18.009   0.574  0.1327 -0.3479 -0.0839
 9919W        W26766  15.220  17.620  15.082  0.5738 -0.0050  0.0168
 9920W        W26767   7.529   2.779   2.373 -0.0885 -0.1038 -0.1929
 9921W        W26768   9.598   4.367  13.748  0.0019 -0.3858  0.0439
 9922W        W26769  17.986   2.301   4.073 -0.2451 -0.1345 -0.0308
 9923W        W26770   1.242  17.108   2.483 -0.2647 -0.1915 -0.3125
 9924W        W26771  16.695   5.990  16.372 -0.2271 -0.1454 -0.1172
 9925W        W26772  10.259  13.212  13.630  0.2178  0.1945  0.1620
 9926W        W26773   3.897  15.846   4.825 -0.2074  0.0066  0.3899
 9927W        W26774  15.922   9.664   2.860  0.0736  0.0061 -0.1505
 9928W        W26775   4.558  17.900  14.195  0.0706  0.1329 -0.1152
 9929W        W26776  15.921   4.084   1.629  0.0432 -0.0978  0.0977
 9930W        W26777   2.596   1.718  11.359  0.0164 -0.2387  0.3601
 9931W        W26778   0.267  13.505  12.321 -0.0747  0.1554 -0.0802
 9932W        W26779  12.561   9.481  13.959 -0.1068  0.0860 -0.0164
 9933W        W26780   2.518   9.091  14.213 -0.1364  0.1168 -0.1661
 9934W        W26781  11.144   7.741   4.629 -0.0459  0.0270 -0.2504
 9935W        W26782   2.684   8.163   0.879  0.2852 -0.3972  0.1719
 9936W        W26783   8.393  13.525   0.776  0.0514  0.0575 -0.4331
 9937W        W26784   5.559   1.130   4.080  0.0421 -0.1492 -0.3912
 9938W        W26785   8.562   1.060   2.790  0.0918 -0.0574 -0.2992
 9939W        W26786  15.123   3.476  14.039  0.1102 -0.3358  0.0905
 9940W        W26787  16.513   4.710  16.247 -0.1957 -0.0549 -0.1474
 9941W        W26788   8.662  14.932   5.543 -0.0457 -0.0447  0.1920
 9942W        W26789  10.819  14.605   1.978  0.3126 -0.0511  0.1280
 9943W        W26790   7.246   5.864   2.654  0.0748  0.2176 -0.0669
 9944W        W26791   4.489   3.059  15.659  0.0504 -0.0076 -0.0251
 9945W        W26792   1.687  17.120   1.283 -0.0833  0.2152  0.1471
 9946W        W26793   1.348   7.845   0.082  0.0434 -0.1854  0.0050
 9947W        W26794  14.543   6.579   0.149 -0.1810  0.0439  0.2331
 9948W        W26795   1.820  16.355   1.199 -0.1032 -0.0949 -0.0531
 9949W        W26796   1.152  13.862  13.375 -0.0874  0.0071 -0.0453
 9950W        W26797  10.107   8.002  14.170  0.1903  0.1604 -0.0365
 9951W        W26798  13.352   4.997  11.967 -0.0132 -0.3247 -0.0233
 9952W        W26799   2.370   3.772   1.704 -0.1871  0.0800  0.0700
 9953W        W26800   2.458  14.216   5.084  0.0968 -0.0851 -0.0669
 9954W        W26801  16.586   0.099  15.706  0.1600  0.1146 -0.3168
 9955W        W26802   6.897   1.148  14.048 -0.1651  0.0213  0.0582
 9956W        W26803   5.445  15.531  12.193 -0.1186 -0.1945 -0.0797
 9957W        W26804   2.219   0.561  15.052  0.1846  0.1331 -0.2362
 9958W        W26805   8.302  17.447   1.194  0.0237  0.2382 -0.1735
 9959W        W26806   5.617  16.984   5.112 -0.0093  0.1192 -0.0126
 9960W        W26807  15.972   0.868   4.692 -0.1804 -0.1590  0.1050
 9961W        W26808   2.173  10.004   2.035 -0.0786 -0.2792 -0.4150
 9962W        W26809  10.474   8.097  13.888 -0.0887 -0.1190 -0.4242
 9963W        W26810  17.182  10.481   1.323 -0.2530 -0.2075  0.1348
 9964W        W26811   0.046   6.434  16.484  0.3085  0.3340  0.3089
 9965W        W26812  12.517  16.529   2.884  0.0400 -0.0256 -0.0009
 9966W        W26813  14.241   5.357   1.806 -0.2310 -0.0796  0.0173
 9967W        W26814  16.303   5.662   4.862 -0.3170 -0.1007 -0.0030
 9968W        W26815  11.654  15.765   1.438  0.1402  0.2657 -0.2175
 9969W        W26816  13.150   5.151   4.207  0.1560 -0.0097  0.1250
 9970W        W26817  17.979  10.641  14.487 -0.2377  0.0337 -0.0358
 9971W        W26818  13.118   2.003  16.656 -0.0442  0.1224 -0.0684
 9972W        W26819   7.853  13.428   3.974 -0.0371 -0.0471 -0.1292
 9973W        W26820   2.085  14.665  15.159  0.2658  0.1662  0.2097
 9974W        W26821   1.617  17.319   2.237  0.1929 -0.0821  0.0816
 9975W        W26822   1.926  13.560   4.243  0.0409  0.1152 -0.2173
 9976W        W26823   8.506  13.710   3.312 -0.0204 -0.0267 -0.0393
 9977W        W26824  12.533  16.993  15.900  0.2508 -0.1061  0.1470
 9978W        W26825   9.561   6.075   2.677  0.1149  0.2311 -0.0710
 9979W        W26826   0.311   2.459  12.793 -0.1587  0.2014 -0.0176
 9980W        W26827   3.528   1.138   1.100  0.2691  0.1586 -0.1451
 9981W        W26828  12.916   6.787   4.757 -0.1261  0.1216  0.0614
 9982W        W26829   5.485   5.185  14.042 -0.1563  0.0227  0.2608
 9983W        W26830   4.100   3.494  11.690 -0.0798  0.0647  0.0294
 9984W        W26831   6.886   1.878  15.543 -0.1774 -0.2027 -0.1251
 9985W        W26832   7.116  12.485   4.409  0.0557  0.2029  0.0110
 9986W        W26833  14.437   5.099  16.612  0.1582  0.1752 -0.1874
 9987W        W26834  12.137  10.505   1.319  0.0164  0.0068  0.2581
 9988W        W26835  17.363   6.223   0.316 -0.0483  0.0568  0.1651
 9989W        W26836   8.082   9.014   1.494  0.1760  0.1519 -0.0535
 9990W        W26837   6.708   2.304   5.127 -0.1430  0.0099 -0.3804
 9991W        W26838  14.528   2.755  12.617  0.0135  0.1121  0.1524
 9992W        W26839  16.300  17.082   3.046  0.1704  0.1246  0.3530
 9993W        W26840   2.280  10.374   3.609  0.0676 -0.1005 -0.0358
 9994W        W26841  14.055  10.327   0.317  0.2872 -0.1576 -0.2237
 9995W        W26842  12.744  14.444   4.634 -0.1767  0.2291  0.2787
 9996W        W26843   9.358   9.231  10.462  0.0525  0.3073 -0.2817
 9997W        W26844   0.813  15.843   2.175  0.2857  0.1513 -0.1485
 9998W        W26845   1.880  10.300   4.836 -0.1476  0.2428 -0.1289
 9999W        W26846  10.725   0.887  14.081 -0.2962  0.1836  0.3292
10000W        W26847  16.512   7.105   2.229  0.0513 -0.0273 -0.0745
10001W        W26848   8.495  14.695   4.303  0.1464 -0.1292  0.1050
10002W        W26849  18.064  17.853  15.833  0.1893  0.0088 -0.0724
10003W        W26850   3.733  11.922   4.360 -0.0478  0.3976  0.1123
10004W        W26851   0.781  13.946   5.676 -0.0507 -0.0344  0.1195
10005W        W26852  11.745   3.852   2.432  0.1679 -0.1147  0.4403
10006W        W26853  17.733   6.198   3.959  0.1649  0.0441  0.1323
10007W        W26854   5.413   9.835   3.663  0.1943 -0.0568  0.1209
10008W        W26855  15.282  16.761  15.465 -0.2298  0.0566 -0.0226
10009W        W26856   3.974   3.171   2.222 -0.1460  0.0532 -0.1744
10010W        W26857   6.341   6.239   2.355 -0.0309  0.2540  0.5395
10011W        W26858   0.812  15.762   5.080  0.1740 -0.1284  0.2388
10012W        W26859  16.630   2.543   3.211  0.1188 -0.2419 -0.1165
10013W        W26860   3.340  16.199  15.157 -0.0246 -0.0609 -0.1614
10014W        W26861   9.378  13.877   2.302  0.1107 -0.0950  0.0067
10015W        W26862   2.693  15.678  16.620  0.3933  0.1430 -0.0127
10016W        W26863  13.837  17.903  11.947 -0.1944  0.1037  0.3395
10017W        W26864   8.705  13.588  14.045  0.0470 -0.0678  0.3535
10018W        W26865   0.024   8.476   1.518 -0.0905 -0.0875  0.1282
10019W        W26866  12.496  11.298  14.133  0.1443 -0.5067  0.4972
10020W        W26867  10.438   3.948   1.168  0.0005 -0.0596 -0.3447
10021W        W26868  17.286  17.084   3.877  0.1183 -0.1846 -0.0097
10022W        W26869  10.274  14.164  14.662  0.0002  0.2457 -0.1676
10023W        W26870   6.132   6.545   1.286  0.1671  0.0085 -0.0942
10024W        W26871  11.493   0.761   5.212 -0.0393  0.0571 -0.0060
10025W        W26872   6.830  17.993  13.827 -0.3547 -0.1135 -0.1930
10026W        W26873  10.146  14.226  16.011  0.0762  0.0910 -0.0961
10027W        W26874  15.262   8.067   4.709  0.0472 -0.2119 -0.3349
10028W        W26875  17.863  12.042  16.099 -0.1251  0.2947  0.3521
10029W        W26876  15.083  12.760   1.163 -0.2697  0.1888  0.1222
10030W        W26877   8.553  12.202  15.519 -0.1423  0.0551 -0.0074
10031W        W26878   5.480   3.322  15.762  0.0558  0.1358 -0.0213
10032W        W26879   3.740  17.828   2.257 -0.1917  0.3016  0.0923
10033W        W26880   0.652  17.802   1.992  0.4366  0.1237  0.1767
10034W        W26881   5.613  13.301  16.629 -0.0858 -0.0220  0.2185
10035W        W26882  13.577   4.466  14.927 -0.3450 -0.0396  0.0458
10036W        W26883  10.161  11.492   2.214 -0.0635  0.1013  0.1095
10037W        W26884   1.738  16.315   4.455  0.3566 -0.0346  0.2113
10038W        W26885  16.966   9.998  13.726 -0.1287  0.3663 -0.2123
10039W        W26886   9.159   3.401  11.478 -0.0883 -0.3527  0.0223
10040W        W26887   8.677   3.397   0.029  0.2895 -0.1025 -0.0709
10041W        W26888  17.921   1.808   4.384  0.1677  0.0645  0.0451
10042W        W26889  13.881   1.206  15.036 -0.1186  0.0736 -0.2710
10043W        W26890   3.643  16.401  15.904  0.0420  0.3770 -0.0177
10044W        W26891  16.054   6.772   1.563 -0.3386  0.0227 -0.3987
10045W        W26892  11.301  10.266   3.854 -0.1400 -0.1297 -0.0043
10046W        W26893  11.293   6.504   0.472 -0.1804 -0.0043  0.2503
10047W        W26894  16.350   9.454  14.879  0.0369 -0.0698 -0.1568
10048W        W26895  15.755   5.268  14.370  0.0429 -0.0214  0.2843
10049W        W26896  17.209   0.780   5.002  0.2615  0.1098 -0.4045
10050W        W26897  16.049  16.860   2.038 -0.1934  0.0957 -0.1589
10051W        W26898  10.643   7.697  12.107  0.1976  0.1760  0.2336
10052W        W26899  17.904   9.341  11.508  0.2758 -0.1775 -0.0092
10053W        W26900   0.760   1.358  15.665  0.0168  0.0551  0.0062
10054W        W26901  14.099   4.236  11.620  0.1836 -0.2090  0.0797
10055W        W26902  15.065   6.884   1.094 -0.2100  0.0184 -0.0114
10056W        W26903   4.626   6.068   6.185 -0.0663  0.1414 -0.1977
10057W        W26904  10.608  16.583  15.347 -0.0250  0.0058  0.0609
10058W        W26905  12.560  17.968  16.199  0.1596  0.0473 -0.2074
10059W        W26906   2.937   5.977  11.737 -0.2989 -0.2346  0.0177
10060W        W26907   7.110  17.753  14.210  0.1455 -0.0750 -0.2354
10061W        W26908   7.031   2.276  10.705 -0.0712  0.0554  0.4125
10062W        W26909   8.095   5.671   0.468 -0.0877 -0.1780 -0.1246
10063W        W26910  17.514   2.483  13.092  0.2605 -0.2114 -0.0216
10064W        W26911  14.591   8.226   5.257 -0.2661  0.0071 -0.3424
10065W        W26912  16.837  15.831   1.394 -0.1736 -0.2398  0.0504
10066W        W26913  14.368   3.057   0.988 -0.0800 -0.1359  0.0966
10067W        W26914  17.689   6.233  15.294  0.2157 -0.1675  0.1838
10068W        W26915  12.900   1.064  11.791 -0.2184 -0.0601 -0.0459
10069W        W26916  14.790  14.792  11.503  0.0620  0.2469 -0.3555
10070W        W26917   4.944  17.279   3.839 -0.1728  0.1823 -0.0387
10071W        W26918   5.415   8.652   2.823 -0.1798 -0.0341  0.0925
10072W        W26919   2.618  15.270  11.640 -0.2807  0.0466  0.1509
10073W        W26920  16.667  11.744   4.703 -0.0632  0.1530 -0.1695
10074W        W26921  16.016  15.387   4.121 -0.1365 -0.0829 -0.2312
10075W        W26922   2.327   9.983  15.721 -0.0898  0.1919 -0.1577
10076W        W26923   9.210   1.100   4.053  0.3692  0.2402  0.1292
10077W        W26924   3.365  10.044  13.869  0.0224  0.2800  0.1532
10078W        W26925   2.005  17.219   0.369 -0.4136  0.0629  0.2292
10079W        W26926   5.344   6.772   3.988 -0.2158  0.1385  0.1406
10080W        W26927   5.584   6.993  11.606  0.2444 -0.2274  0.0483
10081W        W26928   0.017   2.649  13.949  0.1348 -0.1859  0.3521
10082W        W26929   6.613  15.618   1.019 -0.2739 -0.2018 -0.0819
10083W        W26930   5.670   1.174  12.047 -0.0341  0.0797 -0.0543
10084W        W26931  15.432  12.851   2.650  0.3136  0.2131 -0.2972
10085W        W26932   9.851   6.506  11.718 -0.0590  0.0352  0.0196
10086W        W26933  15.415  13.665   0.738  0.0438  0.1253  0.0521
10087W        W26934   3.738   6.145  11.391 -0.0506 -0.1633  0.1939
10088W        W26935  13.913   2.922   5.309 -0.3547 -0.0787  0.1761
10089W        W26936   2.303   5.054  12.985 -0.0369  0.2629 -0.1187
10090W        W26937  10.471   3.311  15.451 -0.0704 -0.0368  0.3311
10091W        W26938  14.289   8.253  12.066 -0.0728 -0.0590  0.0372
10092W        W26939  10.857  14.503   0.420 -0.4513 -0.2004 -0.0549
10093W        W26940   0.361  16.382  13.364 -0.1667 -0.1317 -0.1284
10094W        W26941   3.601   3.482  15.516  0.2550 -0.0635  0.2106
10095W        W26942  10.836   8.313  14.302  0.1339  0.0955  0.0807
10096W        W26943  10.983   3.383   5.047  0.2629 -0.0291 -0.1643
10097W        W26944   8.602   6.947  13.854  0.1973  0.0848 -0.0149
10098W        W26945   7.827  10.225  12.281  0.0512  0.2817  0.0592
10099W        W26946   4.397   4.698   4.397 -0.2961  0.1084 -0.1640
10100W        W26947  10.185   4.801  15.908 -0.0895  0.0579 -0.0546
10101W        W26948  14.219  12.007   4.735 -0.1733 -0.0315 -0.2141
10102W        W26949   4.143  10.944  16.068  0.3557  0.1308  0.3451
10103W        W26950   0.431   4.603  12.068 -0.1875 -0.0492 -0.0023
10104W        W26951   0.334   7.707  14.754 -0.3261  0.1299 -0.0092
10105W        W26952  17.757   1.275   3.761 -0.3398 -0.2003 -0.0942
10106W        W26953   8.410   8.382   2.981 -0.0175 -0.0268  0.1747
10107W        W26954   2.352   5.415   5.691  0.1235  0.0237 -0.3513
10108W        W26955   6.322  13.768   1.211  0.1211  0.0802  0.2298
10109W        W26956   9.302   3.513  14.318  0.1959 -0.3856  0.0519
10110W        W26957  17.275  17.684   0.147  0.2471  0.2601 -0.0922
10111W        W26958   0.567  17.773   4.064  0.0581 -0.0415 -0.0201
10112W        W26959   5.358   8.959   4.234  0.2432 -0.0737 -0.2304
10113W        W26960   2.145   6.711   4.981 -0.1063  0.3030 -0.4468
10114W        W26961   6.614  14.993  13.499  0.1828  0.1648 -0.1833
10115W        W26962  16.616  14.674  16.337  0.2540 -0.1912 -0.1290
10116W        W26963   5.988   6.206  12.640 -0.0039  0.1072 -0.0351
10117W        W26964   5.605  16.331  11.299 -0.1793  0.2493  0.0484
10118W        W26965   2.546  12.856   5.748  0.1956 -0.0734 -0.2299
10119W        W26966   8.098   3.330   2.518  0.1914  0.0982  0.0247
10120W        W26967  12.600   0.257   0.852  0.0076  0.3014  0.1115
10121W        W26968  16.898  11.658   2.832 -0.4225  0.1236  0.1751
10122W        W26969   8.841   9.879   5.564 -0.1861  0.3412  0.0950
10123W        W26970   1.967   1.512  14.511 -0.0569  0.0012  0.2284
10124W        W26971   2.489  13.185   2.257  0.0230 -0.1588 -0.1632
10125W        W26972  14.301   6.039  13.447 -0.3133 -0.2159 -0.1200
10126W        W26973  16.423   7.035   0.533 -0.2342 -0.0007 -0.1369
10127W        W26974  12.616   6.254   1.474 -0.1048 -0.1421  0.0381
10128W        W26975  14.248  14.683   2.777  0.3559  0.1367  0.1619
10129W        W26976   1.392   1.480   5.218 -0.0842 -0.0370 -0.0894
10130W        W26977   1.095  16.809   2.867 -0.1714 -0.0923 -0.2315
10131W        W26978  14.316   9.779  11.791 -0.0295 -0.0774  0.0865
10132W        W26979   9.273   9.195  11.700  0.0938 -0.0914  0.2367
10133W        W26980   3.523   3.624   4.161 -0.0975 -0.1042  0.1268
10134W        W26981  16.909  16.240  16.110 -0.0322 -0.0452 -0.2248
10135W        W26982   2.708   0.766  11.720  0.0119  0.1703  0.0350
10136W        W26983   0.318   7.927  13.175 -0.1485 -0.1080 -0.0759
10137W        W26984  15.855   8.942   2.048 -0.1585 -0.1175 -0.0099
10138W        W26985   7.544   9.953  14.863 -0.2729  0.1612 -0.3794
10139W        W26986  11.512   1.871  11.442 -0.2404  0.2990 -0.1010
10140W        W26987  10.611   1.766   1.846 -0.3662  0.1855  0.0329
10141W        W26988   4.739  14.022   0.105 -0.0079 -0.0028 -0.2148
10142W        W26989   4.348  15.124   4.400 -0.0518 -0.2174 -0.3067
10143W        W26990  12.848  11.720  16.432 -0.1751 -0.0934  0.0342
10144W        W26991  16.828  14.981   0.402  0.1055 -0.1466  0.1315
10145W        W26992   6.280   6.967  12.129  0.1052  0.2757 -0.0040
10146W        W26993  16.705  12.618   4.151 -0.1181  0.2836 -0.0251
10147W        W26994   8.825   9.373  11.904  0.2667  0.0858 -0.2045
10148W        W26995   1.811   8.110   1.326  0.1076  0.4499  0.0158
10149W        W26996   6.437   9.689   2.022 -0.1695  0.1921  0.0614
10150W        W26997   6.496   9.239  14.365 -0.1151 -0.0858 -0.1781
10151W        W26998   0.247  13.049  12.611  0.1095  0.1280 -0.3336
10152W        W26999   7.501   1.304   4.002  0.2374 -0.1909 -0.1136
10153W        W27000   3.429  17.154  16.622 -0.0632  0.0192 -0.1917
10154W        W27001   4.838  15.875   1.235  0.1353  0.0888  0.1961
10155W        W27002   1.521   3.560  15.721  0.2027 -0.1332  0.0060
10156W        W27003   3.445   1.496  11.640 -0.0677 -0.2681 -0.0322
10157W        W27004   5.224  13.080  13.708 -0.3549 -0.1627 -0.0307
10158W        W27005   6.557  18.000  14.270  0.0127 -0.1989 -0.0285
10159W        W27006   1.747  15.468   4.366  0.1237 -0.3012  0.0742
10160W        W27007  15.619  16.140  13.970  0.0660  0.0761 -0.1702
10161W        W27008   1.334   9.959   1.754 -0.0588  0.0576 -0.0046
10162W        W27009  10.646   5.020  15.746 -0.2731 -0.2668 -0.1921
10163W        W27010  17.348  11.264  12.310  0.2289  0.1735  0.1356
10164W        W27011   2.620   3.898   3.755  0.1265  0.1306 -0.1423
10165W        W27012  17.278  15.241  12.812  0.0663  0.2600  0.1391
10166W        W27013   6.177   5.354  11.071  0.0734 -0.0926  0.2130
10167W        W27014   3.791  11.615   1.676  0.1270  0.0708 -0.0431
10168W        W27015   3.486   1.173   3.294 -0.1241 -0.1386 -0.2182
10169W        W27016  16.330   1.481  12.250 -0.1946 -0.0540 -0.0319
10170W        W27017  11.254   6.953  13.113 -0.1562  0.5681  0.1122
10171W        W27018  11.603  15.713   3.305  0.0033  0.0095  0.0076
10172W        W27019   4.586   4.841   1.830  0.4914 -0.0596  0.1784
10173W        W27020   8.926   6.105  11.717 -0.0995 -0.2384  0.0019
10174W        W27021  10.969   0.648   0.337 -0.1225 -0.0112  0.0333
10175W        W27022   4.511   5.694   3.306 -0.0988  0.3412 -0.1707
10176W        W27023   5.095  14.632  13.049  0.1206  0.3254 -0.1338
10177W        W27024  16.634   8.113  15.520  0.2009 -0.0802  0.0218
10178W        W27025   2.118  16.242  13.313  0.1081 -0.1149  0.0320
10179W        W27026  17.604   0.552  12.166  0.0845 -0.1891  0.1113
10180W        W27027   8.840   8.500  16.515 -0.0371  0.1118  0.0198
10181W        W27028   0.273  14.638   5.856  0.1835 -0.0320  0.1336
10182W        W27029   2.039   7.655   3.045  0.0849  0.0575 -0.1967
10183W        W27030  17.636  15.685  16.146  0.2516  0.1995  0.0184
10184W        W27031   4.838  14.349  12.575 -0.1199  0.0838  0.2452
10185W        W27032  17.699   6.366   4.826 -0.5633 -0.1275  0.0704
10186W        W27033   0.955  11.141  16.380  0.2761 -0.0822  0.1655
10187W        W27034  14.052  12.414   4.002  0.0251 -0.0146  0.2909
10188W        W27035  12.713   1.818   4.961 -0.0723  0.1771  0.0058
10189W        W27036   1.522   8.068  13.608 -0.0255  0.1429 -0.2327
10190W        W27037  16.406   5.688   4.380  0.3883  0.1828 -0.0321
10191W        W27038   8.819  16.957   2.733 -0.1027  0.2410  0.1479
10192W        W27039   7.385   6.778  14.070 -0.3467 -0.2037 -0.0074
10193W        W27040   1.801  16.080  12.066  0.1131  0.1508  0.0063
10194W        W27041   0.369   6.144  15.567  0.1089  0.0172 -0.0503
10195W        W27042  10.553  17.835   3.698 -0.0961  0.1355 -0.1119
10196W        W27043   2.206   1.822  15.759  0.0190 -0.1307 -0.0079
10197W        W27044  16.259   3.267   2.129 -0.3541 -0.3225  0.0622
10198W        W27045  17.616   1.734   5.263  0.1824  0.0765 -0.2382
10199W        W27046  10.413  14.348   3.107  0.2876  0.0874 -0.1593
10200W        W27047   9.647  10.666  13.833  0.3490  0.1119 -0.2123
10201W        W27048  12.562   9.984   0.159 -0.0374  0.2281  0.1918
10202W        W27049   3.732   9.615   6.290 -0.0990  0.2304  0.3634
10203W        W27050  14.762   5.355  12.614 -0.1112 -0.0819 -0.0758
10204W        W27051   1.790   2.771   4.627  0.4536 -0.0201 -0.0334
10205W        W27052   6.356  11.616   0.004 -0.0031 -0.2404 -0.0808
10206W        W27053  12.418  17.375  11.573  0.3878 -0.0890  0.1583
10207W        W27054  14.268   2.293   4.047 -0.2067  0.1244  0.0343
10208W        W27055   5.433  16.516   2.859  0.1219  0.1437  0.4376
10209W        W27056  14.492  15.859  14.714  0.1191  0.1973 -0.2318
10210W        W27057  14.726   2.073  16.576  0.2212  0.2115 -0.0696
10211W        W27058   7.105   0.877  13.198  0.1451  0.2674 -0.0206
10212W        W27059   6.184  12.574  12.345 -0.2423 -0.1092  0.2684
10213W        W27060  14.949   0.685   2.628 -0.0146 -0.1488 -0.1546
10214W        W27061   4.060   0.268  12.479 -0.0341  0.0603 -0.0035
10215W        W27062  13.440   8.199  15.602 -0.1789 -0.2003  0.0735
10216W        W27063   7.290   2.052   3.900 -0.2452  0.2183 -0.0001
10217W        W27064   2.700  15.954   5.216  0.2460 -0.3069  0.1151
10218W        W27065   7.633   3.653   5.582  0.0103 -0.5283 -0.0715
10219W        W27066   4.009  11.428  15.770 -0.1697 -0.0166 -0.2141
10220W        W27067   7.073   3.384   5.815 -0.2057 -0.0778 -0.2148
10221W        W27068  11.474   3.622  12.906  0.1776  0.1132  0.0824
10222W        W27069  11.134   3.748   4.180 -0.0637  0.0045 -0.1647
10223W        W27070   9.236   5.101   5.648  0.0128 -0.2641  0.0362
10224W        W27071   6.563   5.797   3.663 -0.0094  0.0995  0.0845
10225W        W27072   7.816   0.698  14.314 -0.0981  0.1264  0.0563
10226W        W27073   6.557   7.161  13.366 -0.1772 -0.0683 -0.0046
10227W        W27074  11.716  17.016  11.867 -0.1900  0.1022  0.1546
10228W        W27075   5.622   8.890   2.297  0.1637  0.0687  0.3824
10229W        W27076   9.021   9.594   2.602  0.3658 -0.1774  0.0917
10230W        W27077  14.033   6.617  16.047  0.0965 -0.0567 -0.0327
10231W        W27078  12.169  14.754  14.304 -0.2276  0.1288 -0.0218
10232W        W27079   0.090  13.075   1.783 -0.1223  0.0980 -0.0709
10233W        W27080   7.489  15.198  13.157  0.1625  0.0029  0.1518
10234W        W27081  10.105   1.679   0.327  0.0398 -0.2507  0.0249
10235W        W27082   0.145   0.560   2.299 -0.4603 -0.3226 -0.1366
10236W        W27083  15.480  16.427   3.169 -0.2040 -0.0461  0.1491
10237W        W27084  16.205   1.080   1.668  0.0253 -0.1137  0.0527
10238W        W27085   9.552  14.186  14.180 -0.0996 -0.0904 -0.0641
10239W        W27086  15.302   8.561  15.610 -0.1561  0.2109 -0.4547
10240W        W27087   9.500  15.048  12.591  0.2778  0.0773  0.2493
10241W        W27088   1.547   1.683   3.527 -0.0174  0.0951  0.1756
10242W        W27089   5.709  15.661  16.544 -0.1709 -0.0514  0.2427
10243W        W27090   1.733  14.710   2.067  0.0121 -0.1248  0.3905
10244W        W27091  16.581   1.257   5.389 -0.1531 -0.0595 -0.0649
10245W        W27092   2.916   2.188   1.806 -0.0969  0.4208 -0.1144
10246W        W27093   7.378   0.594   2.988 -0.1519  0.3490  0.1451
10247W        W27094  16.800  10.069   3.840 -0.2939  0.0441  0.1457
10248W        W27095  12.126   5.640   2.439 -0.0692 -0.1182 -0.1101
10249W        W27096  14.179  10.668   3.112  0.1717  0.0617  0.0749
10250W        W27097   0.223   8.378  11.661  0.2345 -0.0766 -0.1176
10251W        W27098   4.173  13.876   2.758 -0.2728  0.1156 -0.0950
10252W        W27099   9.281  10.043   4.405  0.0806  0.1186 -0.1046
10253W        W27100   2.056   9.385  14.614  0.0435  0.2589 -0.0102
10254W        W27101   5.222  15.954  16.424  0.0559  0.0731 -0.0669
10255W        W27102   2.985   4.923   3.688 -0.0194 -0.1223 -0.0817
10256W        W27103  12.670   8.547   3.774 -0.1781 -0.1013 -0.1341
10257W        W27104  18.053   2.267  11.738  0.0141  0.0336 -0.1580
10258W        W27105   5.320  10.951  13.607  0.0510  0.2087 -0.0348
10259W        W27106   6.332   3.022  11.507 -0.0522 -0.1861  0.2322
10260W        W27107  10.683  11.837  16.107 -0.2384 -0.0935 -0.0236
10261W        W27108   8.986  15.000  14.205 -0.2545 -0.0249  0.1541
10262W        W27109  14.011   7.601   2.866 -0.2779 -0.0559  0.1364
10263W        W27110   5.205   5.258  11.830 -0.4782 -0.1089 -0.0101
10264W        W27111   7.102  16.659  11.580  0.3421  0.1215 -0.1054
10265W        W27112   0.745   3.334  11.879  0.3859 -0.1271  0.0727
10266W        W27113  10.517  10.436  15.162  0.3222 -0.0091  0.1937
10267W        W27114  11.688  16.893  13.355  0.1862 -0.1947  0.3164
10268W        W27115   0.938  10.290  16.203  0.1734 -0.0098 -0.0171
10269W        W27116  12.348  11.836   3.381  0.0217 -0.0666 -0.0910
10270W        W27117   6.816   6.720   4.436  0.0692 -0.2293  0.0866
10271W        W27118  16.865   3.869   0.838  0.1322 -0.0120  0.3470
10272W        W27119   3.418  17.152  13.582  0.2169 -0.0200  0.1053
10273W        W27120   2.276   0.154  15.401 -0.3207  0.0442 -0.1137
10274W        W27121  16.660  13.368   0.864 -0.4897  0.1434 -0.1580
10275W        W27122   1.629  13.458   1.899 -0.0781  0.0222 -0.3449
10276W        W27123   0.333   0.440  12.234  0.1413 -0.0896  0.1976
10277W        W27124  15.697  11.806   5.599 -0.0922 -0.0160  0.0752
10278W        W27125  17.416   3.245   2.227 -0.0044  0.2792 -0.0331
10279W        W27126   9.020  15.225  16.257 -0.1351  0.0149 -0.0896
10280W        W27127  10.977   7.606   0.260  0.0548  0.0126  0.1446
10281W        W27128   2.927   9.434  13.120  0.0387  0.1549 -0.1392
10282W        W27129   7.830   4.792  14.939  0.1859  0.2590 -0.2725
10283W        W27130   3.921  15.513   2.631 -0.0222  0.1695  0.1629
10284W        W27131   9.374   7.145   0.057  0.1742 -0.1190  0.2964
10285W        W27132  12.289  11.566  16.408 -0.0142  0.1813 -0.0171
10286W        W27133  10.543  14.926   1.687 -0.2235 -0.0888 -0.0638
10287W        W27134   5.317   6.284  15.971  0.1583 -0.3599  0.1828
10288W        W27135  10.007   8.953   3.931  0.2409  0.2587  0.0788
10289W        W27136   4.681  12.591  12.303 -0.2959  0.0564 -0.3715
10290W        W27137  13.458   3.982   3.424 -0.0486  0.1000 -0.0461
10291W        W27138  15.993  16.428   1.399  0.0838 -0.1914 -0.1051
10292W        W27139  10.196  17.459  14.314 -0.1165 -0.0645  0.0668
10293W        W27140   6.225  14.131  11.837  0.1600 -0.1334  0.0387
10294W        W27141   7.282  11.230  13.825  0.3557 -0.1600  0.1607
10295W        W27142   7.836   1.922   0.433 -0.1136  0.2991  0.0128
10296W        W27143  17.797   8.865  14.094  0.0676 -0.1282 -0.0562
10297W        W27144   1.360   3.923   5.891  0.0554 -0.1178  0.1560
10298W        W27145  12.051  17.529  12.920 -0.0194  0.0004 -0.0595
10299W        W27146   7.808   5.660  14.263  0.0791 -0.0979 -0.2762
10300W        W27147   0.948   9.618   2.405  0.0580 -0.0486  0.0200
10301W        W27148  13.177  12.564   2.454  0.0496 -0.1046  0.2407
10302W        W27149   0.471  17.520   2.934 -0.3163  0.1250  0.2886
10303W        W27150   4.539   4.266  12.076 -0.3120  0.0294  0.2230
10304W        W27151  15.645   6.858  12.591  0.2012 -0.1961 -0.1029
10305W        W27152  12.732  16.010   4.199  0.1889 -0.2499 -0.1186
10306W        W27153  11.019  12.824   1.758 -0.4426 -0.0204  0.0172
10307W        W27154  10.920   6.153  11.675  0.2508  0.1135 -0.0129
10308W        W27155  16.541  16.488   4.891 -0.0508 -0.5216 -0.1029
10309W        W27156   2.909   4.158  16.388 -0.2395 -0.2088 -0.1613
10310W        W27157   5.138  15.434  13.840  0.0597  0.2702  0.0798
10311W        W27158   1.864   5.919   2.169 -0.3818  0.0017 -0.0201
10312W        W27159   6.089  10.249   4.959  0.1718  0.1085  0.1522
10313W        W27160  10.123  14.654  13.595  0.0922  0.2356 -0.1624
10314W        W27161   8.134   3.829   1.834 -0.1399  0.1402  0.3667
10315W        W27162  16.273   8.426  11.693 -0.1748 -0.0146  0.5381
10316W        W27163   8.918   5.648  15.011  0.2323  0.2319  0.1718
10317W        W27164  13.988   3.577   4.930  0.2315 -0.0857 -0.1772
10318W        W27165  17.168  13.682  12.522 -0.0861 -0.1511 -0.2127
10319W        W27166   1.465  11.026  15.097  0.0366  0.0689 -0.3119
10320W        W27167  13.281  17.098  14.575  0.0498 -0.1669  0.4416
10321W        W27168  13.730  16.778  12.310  0.0255 -0.1130 -0.0208
10322W        W27169   8.740  10.606  15.766 -0.0124  0.0711 -0.0830
10323W        W27170   7.285   2.311   1.087  0.2342  0.3569  0.1944
10324W        W27171  16.539   0.760   2.533 -0.1480 -0.3364  0.0456
10325W        W27172   8.998   9.222   3.935 -0.0770  0.4049 -0.0009
10326W        W27173   4.580   7.501  15.656 -0.4074  0.1819 -0.1167
10327W        W27174  12.872   0.480  12.685 -0.1058  0.0398 -0.1515
10328W        W27175   2.959  15.443   2.320 -0.0775 -0.0464  0.1465
10329W        W27176   4.400   7.665   1.061  0.1826  0.0045  0.0266
10330W        W27177   1.774   5.764  11.604 -0.1056 -0.2068  0.2301
10331W        W27178  15.401   7.737   2.721 -0.4385 -0.2361  0.2590
10332W        W27179  15.463  11.610  12.048 -0.2289 -0.0027  0.1136
10333W        W27180  11.183  11.148   5.165 -0.1259  0.0659  0.0137
10334W        W27181   8.657  11.964   4.810 -0.3362 -0.2220  0.0946
10335W        W27182   9.337   5.064   2.208  0.3245  0.0853  0.0663
10336W        W27183  16.931   8.622   4.683 -0.1333 -0.1805  0.0611
10337W        W27184  10.868  11.470  12.527  0.3742  0.1027 -0.0905
10338W        W27185   7.041  11.828  15.284  0.2468  0.3899  0.1573
10339W        W27186  13.405  17.855   4.265 -0.2378  0.3662  0.1648
10340W        W27187  10.347  11.991   3.950 -0.0439  0.0400  0.2827
10341W        W27188   0.292   1.045   2.483  0.0197 -0.0726  0.2981
10342W        W27189   1.424  12.539  11.938  0.1841 -0.3847 -0.0679
10343W        W27190   1.054   7.685   3.884 -0.1844 -0.0045 -0.2683
10344W        W27191  17.778  15.334   5.393  0.0111 -0.0321 -0.2095
10345W        W27192   8.588  14.330  13.155 -0.1374  0.1797  0.0328
10346W        W27193  13.012   6.269  13.320  0.1933 -0.0096  0.2085
10347W        W27194  10.843  15.355  15.686 -0.0806  0.1140  0.0629
10348W        W27195  12.888  10.490  12.712 -0.4199  0.1186 -0.0063
10349W        W27196  17.024  16.977  15.631 -0.0027 -0.1868 -0.2256
10350W        W27197   8.361  17.150   5.022 -0.3234 -0.1126 -0.2027
10351W        W27198   2.957   8.210  14.126  0.0638 -0.2323  0.1026
10352W        W27199  10.180   9.333   3.690 -0.2442  0.0700  0.0504
10353W        W27200   2.462  11.412   0.642  0.0527 -0.0836 -0.0758
10354W        W27201   1.216  10.009  11.637 -0.2219  0.0324  0.0946
10355W        W27202   1.241   6.288   6.025 -0.0080  0.1699 -0.1648
10356W        W27203  14.917  12.336   1.339  0.0479 -0.0068  0.2814
10357W        W27204  17.200   2.256  16.523 -0.0172 -0.3206 -0.0591
10358W        W27205  18.041  16.262   0.898  0.0662  0.1271 -0.3560
10359W        W27206  15.655  12.818  15.303 -0.4138  0.1983  0.2413
10360W        W27207   6.944   0.108  12.688  0.2009  0.2149 -0.0481
10361W        W27208  16.200  13.712  11.632 -0.2268  0.1663  0.5506
10362W        W27209   2.838   5.952  13.198 -0.0292  0.0642 -0.1280
10363W        W27210  14.213  17.225   3.381  0.1319  0.0990  0.1124
10364W        W27211   2.459  11.639   2.174 -0.4865  0.0165 -0.0996
10365W        W27212   1.034   1.704   0.723 -0.0446 -0.0224 -0.0789
10366W        W27213   9.193  17.874   1.605 -0.2281 -0.0490  0.0732
10367W        W27214   2.544  17.850  14.043  0.0212  0.1201 -0.3339
10368W        W27215   0.678   7.991   4.105 -0.0205  0.0551  0.5059
10369W        W27216   4.816   4.022   0.051  0.0066  0.2426 -0.0031
10370W        W27217   2.887   5.931   1.985  0.0522 -0.0458 -0.0263
10371W        W27218  17.437   4.107  14.701 -0.0789  0.2228  0.4328
10372W        W27219   7.537   2.269   2.546 -0.2437  0.0038 -0.0918
10373W        W27220  14.018   1.624  11.665  0.0790  0.0441 -0.3088
10374W        W27221   4.269  15.124   4.886 -0.2587  0.4446  0.2085
10375W        W27222  15.248   2.835  15.000  0.1547  0.1318  0.0199
10376W        W27223   2.621  13.089  15.167 -0.0281  0.1627  0.2115
10377W        W27224   2.693  16.463   2.486  0.1043 -0.1454  0.0073
10378W        W27225  10.547  15.849  11.852  0.0744  0.1081  0.0354
10379W        W27226  16.013  15.053  15.202  0.1014  0.2192 -0.0536
10380W        W27227   0.593  11.700  15.926  0.3798 -0.1420  0.0549
10381W        W27228   0.877  12.435  13.967  0.1749 -0.2356 -0.2257
10382W        W27229  16.362  13.046   2.361  0.2916 -0.0840  0.4058
10383W        W27230  10.849  12.212  14.470  0.3291 -0.2731 -0.2516
10384W        W27231   8.399   7.503   2.215  0.0272  0.0789  0.3142
10385W        W27232   2.148   9.565   5.409  0.1483 -0.2468  0.2127
10386W        W27233   6.798   5.645  14.664 -0.0722  0.0498  0.2057
10387W        W27234   9.645  12.456   1.653  0.2029  0.0128  0.0417
10388W        W27235  16.792   5.330   0.417  0.1178 -0.4245 -0.2118
10389W        W27236  17.025   0.630   2.573  0.1062 -0.0871  0.0093
10390W        W27237  15.177  11.939   4.923  0.2446 -0.2622  0.0429
10391W        W27238   4.190  11.067  11.560 -0.1125 -0.1043 -0.2322
10392W        W27239   4.952   1.688   2.136 -0.1910 -0.0138  0.1733
10393W        W27240  15.819   7.770   2.409  0.1633 -0.3040 -0.2635
10394W        W27241  16.648   6.682   2.531  0.1582 -0.0509 -0.3537
10395W        W27242  16.330  11.687   4.249  0.0768 -0.0910  0.1577
10396W        W27243   0.448  11.139   2.070  0.2601  0.1502  0.1404
10397W        W27244   0.782   2.850  15.446  0.2582 -0.1842  0.0073
10398W        W27245  11.933   9.253  11.688 -0.0978 -0.1621 -0.2119
10399W        W27246  16.426  11.758  16.192 -0.0221  0.2210  0.1053
10400W        W27247   3.863   5.422  15.513  0.0036 -0.0306  0.3420
10401W        W27248   9.978  15.339  16.601  0.1285  0.0993  0.0532
10402W        W27249  13.203   1.014  16.448  0.0517  0.0983 -0.0198
10403W        W27250   4.202   8.376   4.375  0.1412 -0.0349 -0.0796
10404W        W27251  14.041  17.857  13.981 -0.2640  0.2823 -0.0250
10405W        W27252   7.633   8.261  12.801  0.0089  0.0907 -0.0169
10406W        W27253   3.948   3.288   4.872 -0.0126  0.1594 -0.0217
10407W        W27254   4.876  13.646  16.215 -0.2113 -0.2958  0.1470
10408W        W27255   3.837  13.320  13.722  0.0978  0.2116 -0.1720
10409W        W27256   5.633  10.408   3.165 -0.1209  0.0780 -0.3072
10410W        W27257  16.779   3.900  14.348 -0.2464  0.2299 -0.0678
10411W        W27258  14.367   7.504  12.343 -0.2752  0.0447 -0.0138
10412W        W27259  13.715  14.766   4.370  0.2167  0.2709  0.4176
10413W        W27260   9.152  11.160  11.741 -0.1208  0.2134  0.1256
10414W        W27261   3.210   0.700   3.577 -0.0232  0.0109 -0.0759
10415W        W27262   9.920   5.873   0.571 -0.1731  0.2203 -0.1024
10416W        W27263   9.452  12.975   1.625  0.2105 -0.2832  0.1636
10417W        W27264   0.449   6.451   2.349 -0.0899  0.0500 -0.0226
10418W        W27265   1.199  15.816   1.333 -0.0788 -0.1581 -0.1102
10419W        W27266  10.967  16.345   1.123 -0.0412  0.0641 -0.0757
10420W        W27267   1.922  14.163  14.033 -0.3134  0.0339  0.0365
10421W        W27268   9.366  13.923   0.651 -0.0175  0.0718 -0.2962
10422W        W27269  16.569   6.131  14.760 -0.1347 -0.0297  0.1929
10423W        W27270   2.396   5.856  15.978 -0.1816 -0.1398 -0.1428
10424W        W27271  12.628   1.971  11.376  0.0846 -0.1972 -0.2407
10425W        W27272   6.912   6.386   0.094  0.0620 -0.0217  0.1567
10426W        W27273  15.109   1.506  15.080  0.0052 -0.2064  0.2618
10427W        W27274   2.630  14.207  12.520 -0.1679  0.2946  0.1967
10428W        W27275   2.298  14.096   3.088  0.1826  0.1250 -0.0049
10429W        W27276  11.520   8.913  14.153  0.0421  0.3366 -0.0511
10430W        W27277  15.921   6.655  13.731 -0.1439 -0.1493  0.1475
10431W        W27278  12.098  13.550   2.627 -0.1370  0.0786 -0.0867
10432W        W27279   5.718   8.213   2.704  0.0263  0.0292  0.0464
10433W        W27280  12.120   2.209  15.353  0.0069  0.1051 -0.0711
10434W        W27281  15.759  15.870   5.682  0.1965 -0.3613 -0.0492
10435W        W27282   9.592  17.877  12.626 -0.2589 -0.0943  0.2560
10436W        W27283   9.855  10.097  12.011  0.0187 -0.1909 -0.1971
10437W        W27284   6.684  11.582  15.465  0.1976 -0.0061  0.0225
10438W        W27285   9.168  15.918  12.352  0.0230 -0.1337  0.0760
10439W        W27286   2.572   6.587   0.418  0.4217  0.1781 -0.0874
10440W        W27287  17.095   5.373   0.006  0.3520 -0.1445 -0.0042
10441W        W27288  15.261  13.546   1.196  0.3730  0.0528  0.0787
10442W        W27289  11.398  17.851  14.100 -0.0566  0.1385 -0.2429
10443W        W27290   1.517  10.707  11.063 -0.1617  0.1865  0.1520
10444W        W27291   5.306  16.426  14.082  0.2242  0.1446  0.1476
10445W        W27292   3.419  10.681   3.099  0.0166 -0.0535 -0.0520
10446W        W27293   6.000   4.493  16.426 -0.0288  0.0704  0.1168
10447W        W27294   0.853   6.655   4.439 -0.2021 -0.0240 -0.1457
10448W        W27295   4.606   1.266   5.142 -0.0828 -0.0698  0.0502
10449W        W27296   0.702   5.391  15.785  0.3337  0.3404 -0.0279
10450W        W27297  12.433  15.582  14.728 -0.1198 -0.1639  0.0429
10451W        W27298   8.688   4.098  11.834  0.0331 -0.5134  0.1561
10452W        W27299   7.131   9.355   1.548 -0.2880  0.0192  0.0659
10453W        W27300  15.597  16.625   0.309 -0.1559  0.0571  0.0186
10454W        W27301  15.178   4.511  11.412 -0.1602 -0.4976 -0.2293
10455W        W27302  12.624   4.100  16.219 -0.1817  0.1522 -0.2086
10456W        W27303   6.686   5.324  13.889  0.1652 -0.0691  0.1282
10457W        W27304  18.040   6.109  13.487  0.0868 -0.1463 -0.2633
10458W        W27305  15.664   6.569   4.627 -0.2087 -0.1671 -0.0337
10459W        W27306   5.251  10.129  13.394  0.1950  0.1448 -0.2194
10460W        W27307  14.214  14.878   0.267  0.0826 -0.0031 -0.0581
10461W        W27308  11.863   2.246  14.027 -0.1907  0.1608 -0.0332
10462W        W27309   6.713   9.193  16.257 -0.0706 -0.2320  0.2332
10463W        W27310   2.134   9.191   2.398  0.3008  0.0262  0.1670
10464W        W27311   4.722   8.720  16.597  0.1552  0.0226  0.2922
10465W        W27312   7.275   1.150   1.456  0.0023 -0.1846  0.1583
10466W        W27313  12.747   7.575   0.358 -0.0445  0.1222 -0.1027
10467W        W27314   3.342   4.308   1.509  0.4065  0.0118  0.0595
10468W        W27315   6.282   7.060   4.617  0.2044 -0.2521 -0.0203
10469W        W27316   2.929  10.826  15.485  0.1643 -0.0661 -0.1636
10470W        W27317   1.135   4.493  13.149 -0.0208  0.2498  0.1477
10471W        W27318   7.877  10.350   0.369  0.0015 -0.1056  0.0919
10472W        W27319  16.648  11.572  12.619  0.5457 -0.0305 -0.0340
10473W        W27320   3.818   6.897  16.453 -0.0749 -0.0356  0.0775
10474W        W27321   3.355  11.825   1.517 -0.0609 -0.0459 -0.0362
10475W        W27322  16.049   7.228  14.100  0.0057  0.2090 -0.0007
10476W        W27323  17.889   9.068  15.374  0.0314  0.2356  0.2542
10477W        W27324   1.746  14.927   1.048 -0.3337 -0.2878  0.1513
10478W        W27325  16.269   4.742  10.901  0.2402  0.0799  0.0873
10479W        W27326  15.685   6.485   1.298  0.1747 -0.1057 -0.1842
10480W        W27327   1.079  16.593  13.161  0.0563  0.1252 -0.0614
10481W        W27328   9.286   6.156   4.178 -0.1507  0.1712 -0.1209
10482W        W27329   7.912  12.991   3.150  0.0881  0.0792  0.1556
10483W        W27330  12.169  17.833  15.891 -0.1605 -0.0669 -0.0396
10484W        W27331   5.746   1.260   1.171  0.5408  0.3473 -0.1043
10485W        W27332   2.231  13.643  14.478 -0.1747  0.0248 -0.1938
10486W        W27333   4.635   1.661  15.136  0.1939 -0.1615 -0.3691
10487W        W27334   0.029  16.252   1.388  0.0097 -0.2919  0.1822
10488W        W27335  11.237  17.250  14.703  0.1416  0.1779  0.2785
10489W        W27336   6.223  17.578  15.626  0.0328  0.0887  0.0137
10490W        W27337   3.539  15.597   5.090  0.3755  0.2704  0.4179
10491W        W27338   4.084  15.071  15.360  0.2883  0.2891  0.1614
10492W        W27339   4.122   0.539  15.361  0.0276  0.0623 -0.1450
10493W        W27340  11.763   4.615   3.571  0.0053 -0.0027  0.1773
10494W        W27341   3.597  15.090   1.735  0.1153  0.0683 -0.0626
10495W        W27342   2.416   3.264  13.394  0.0294  0.3499  0.0838
10496W        W27343   2.914  13.570   2.810  0.0823  0.3795  0.1392
10497W        W27344  16.618  14.541   3.674  0.0689 -0.2452  0.1034
10498W        W27345   6.212   6.941  14.675 -0.0371 -0.2745 -0.1335
10499W        W27346  15.488  12.270   4.011 -0.0392  0.4029  0.2885
10500W        W27347  14.467   7.734  16.211 -0.1329  0.0611  0.0458
10501W        W27348   3.421   4.887  13.797  0.3172  0.0050  0.2845
10502W        W27349   7.081  14.378  15.219 -0.1071  0.1550  0.0888
10503W        W27350   2.362  15.606   0.726  0.3395  0.2931  0.1862
10504W        W27351   1.274   5.940  14.171 -0.0448  0.3152 -0.0121
10505W        W27352  10.434   6.720   0.797  0.0325  0.4650 -0.3755
10506W        W27353   5.229  14.832  11.687  0.1028  0.0329  0.1007
10507W        W27354   6.104   5.117   5.634  0.0117  0.1954  0.1671
10508W        W27355   2.294   2.521   0.311 -0.2844 -0.0779 -0.1748
10509W        W27356  17.630  17.675  15.702  0.0693 -0.2804  0.1625
10510W        W27357   0.775  11.204   5.788 -0.1263 -0.2291  0.0086
10511W        W27358   6.661   1.843   3.796 -0.0427 -0.1528 -0.0886
10512W        W27359   5.681   1.592   4.268 -0.1202  0.2140 -0.3140
10513W        W27360  16.061   3.173   3.814 -0.3380  0.2880 -0.1824
10514W        W27361  13.908   6.183   3.553  0.0320  0.0017 -0.2207
10515W        W27362  12.528   6.026  11.579  0.4884 -0.0605 -0.1994
10516W        W27363  10.841  14.111   2.081  0.2186  0.0147 -0.0222
10517W        W27364   7.578  11.329  12.585 -0.0822 -0.2343  0.3518
10518W        W27365   0.339  16.072   2.779 -0.1134 -0.0973 -0.3328
10519W        W27366   7.023   6.788  13.694 -0.1235  0.1314 -0.3099
10520W        W27367  10.452   0.223   3.645  0.1095  0.0220 -0.4117
10521W        W27368  17.878  14.036   5.436  0.1834 -0.2773  0.1958
10522W        W27369  13.215  15.333  10.316  0.1258  0.1083  0.2959
10523W        W27370   8.194  11.867   4.579 -0.1975 -0.1974  0.3086
10524W        W27371  11.868   0.636  11.397 -0.1810  0.0489  0.0392
10525W        W27372   6.151   3.393  11.836  0.0121  0.0664 -0.1321
10526W        W27373   2.069   7.825   3.850 -0.0125  0.0213 -0.0481
10527W        W27374  10.762   9.553   1.487  0.0947 -0.0517 -0.1682
10528W        W27375   8.315   5.230   0.301  0.3527  0.1659  0.0664
10529W        W27376  10.490  11.133  15.802  0.1209 -0.3670  0.1307
10530W        W27377  10.294   5.394  14.165  0.0588  0.2390  0.0932
10531W        W27378   7.910   9.953  12.753 -0.1300 -0.2042  0.0284
10532W        W27379  17.990   2.745  12.966  0.1598 -0.1383 -0.2068
10533W        W27380   5.650   6.589  14.028 -0.1600 -0.0550 -0.1304
10534W        W27381  10.591  12.381  16.528  0.2117 -0.0206 -0.0637
10535W        W27382   6.261  15.629   4.965 -0.1686  0.1452 -0.1674
10536W        W27383  14.064  14.749   0.739 -0.0580  0.1410 -0.2647
10537W        W27384  15.976  11.488   2.801  0.1562 -0.0149  0.1963
10538W        W27385   4.643   6.703  15.463  0.0586  0.0369 -0.0767
10539W        W27386  12.757   6.626   0.531  0.4372 -0.1375 -0.1401
10540W        W27387   2.106   2.655  11.146 -0.1623 -0.1206 -0.0688
10541W        W27388   6.569  13.112  15.468  0.1879 -0.0418 -0.0110
10542W        W27389  16.938   8.383   1.921 -0.1689  0.0956 -0.0554
10543W        W27390   6.215  14.138  13.238 -0.0937 -0.1136  0.1318
10544W        W27391   7.069  15.068   0.909  0.2185 -0.0313  0.0833
10545W        W27392   5.335   2.963   2.573 -0.2145  0.0175 -0.0046
10546W        W27393  10.215  15.513   5.750  0.0721 -0.1362  0.2680
10547W        W27394  10.849  14.744  13.198  0.0007 -0.2188  0.1361
10548W        W27395  15.067   9.722   2.016  0.3369 -0.2090 -0.0445
10549W        W27396  14.227  12.794  15.364 -0.1144  0.0580  0.0522
10550W        W27397   0.934   7.686   1.067  0.1348 -0.1896 -0.0250
10551W        W27398   1.844   0.603   0.510 -0.1617 -0.2207 -0.2855
10552W        W27399  14.697   6.634   3.004  0.1183  0.0027  0.3553
10553W        W27400   1.199   7.261   1.111 -0.0399 -0.0337 -0.0980
10554W        W27401   3.954   3.910   0.195 -0.2453 -0.0655  0.1871
10555W        W27402   4.772  16.593   6.115  0.3473  0.1949  0.1068
10556W        W27403   8.439  15.649   2.879 -0.1260  0.0995 -0.0090
10557W        W27404  11.135   9.047   5.219 -0.0736  0.1756  0.3432
10558W        W27405   6.554  10.988   1.134 -0.0341 -0.1198  0.0651
10559W        W27406   8.660  14.337  15.850  0.1989  0.3093 -0.0098
10560W        W27407   2.958   7.275   0.630  0.2504  0.0995 -0.0665
10561W        W27408   0.365  17.196   3.650 -0.1706  0.0117 -0.3702
10562W        W27409   0.009   1.686  13.883  0.1113 -0.2374  0.0063
10563W        W27410   8.477  15.570   1.728 -0.1803 -0.2612  0.0440
10564W        W27411  12.210   4.302   1.342 -0.0940 -0.0691 -0.2026
10565W        W27412   4.878  16.052  15.435 -0.1107  0.1235 -0.0712
10566W        W27413   0.298  17.956  14.588 -0.4369 -0.5311  0.1125
10567W        W27414  16.556   8.230  16.022  0.0250  0.0980  0.0379
10568W        W27415   4.055  12.660  14.738  0.1125 -0.0445  0.1364
10569W        W27416   5.540  16.479  12.198 -0.0335  0.2511  0.0790
10570W        W27417  16.170  10.072   3.188 -0.0791 -0.1219  0.1179
10571W        W27418  11.595   2.918   3.160  0.1689 -0.0372 -0.1352
10572W        W27419  14.333   6.916   4.859  0.2366 -0.0674 -0.1001
10573W        W27420   4.598   6.890   0.600  0.0756  0.0380  0.0915
10574W        W27421   3.089  12.913   1.034 -0.3200 -0.0384 -0.0558
10575W        W27422   9.545   8.875   2.648  0.1572 -0.0449  0.0299
10576W        W27423  16.397  11.522   1.147 -0.0525 -0.0242 -0.2366
10577W        W27424   8.279   6.751  12.582  0.0621 -0.3690  0.0149
10578W        W27425   3.287   4.263   0.029  0.0914 -0.2963 -0.1274
10579W        W27426  10.161   4.754  13.259  0.1319 -0.0208 -0.0202
10580W        W27427  13.011   6.916   0.203  0.1743 -0.0362  0.0595
10581W        W27428  15.971   1.229  12.432  0.0773 -0.0701 -0.0288
10582W        W27429  16.445  16.644  14.181  0.0023 -0.2446  0.2932
10583W        W27430   2.722   7.429   3.622 -0.1823 -0.2263  0.4327
10584W        W27431   0.070  15.256  16.018 -0.1864 -0.1017  0.0026
10585W        W27432  16.654   4.427  13.680 -0.0482  0.1195  0.0241
10586W        W27433   3.986  10.506  14.848  0.2228  0.1813  0.0067
10587W        W27434   5.003   5.839  12.573  0.0172 -0.1571  0.0666
10588W        W27435   3.101  16.834  16.522  0.2737  0.4059  0.1658
10589W        W27436   5.363  11.401   3.189 -0.0471 -0.4803  0.2467
10590W        W27437   5.011   8.496  15.426 -0.0385  0.1969 -0.0527
10591W        W27438  17.503  16.692  14.318 -0.1166  0.0367  0.2562
10592W        W27439   3.980  10.219   1.824 -0.0692  0.1383 -0.0778
10593W        W27440  12.010  17.312  13.443 -0.1369 -0.1003  0.0779
10594W        W27441  15.875   2.060   3.176 -0.1197  0.1025  0.0320
10595W        W27442  12.608  10.129   3.020  0.3770 -0.1523  0.0674
10596W        W27443  18.058  14.829   0.235 -0.0223  0.0425  0.2084
10597W        W27444  13.418  12.248   2.804 -0.0013  0.2184 -0.0103
10598W        W27445  11.579   0.250  14.737  0.0655 -0.0907 -0.1967
10599W        W27446   0.917   6.817  12.130  0.1084  0.1783 -0.2405
10600W        W27447   2.303  14.558  12.347 -0.0669 -0.1810 -0.3934
10601W        W27448  15.267   6.175  13.580  0.1780 -0.1103  0.0447
10602W        W27449   4.364   6.329  11.818 -0.0921  0.1259  0.0346
10603W        W27450  12.662   9.085   0.143  0.0371 -0.2257 -0.2776
10604W        W27451  10.799   6.503   2.638  0.0797  0.0995  0.1054
10605W        W27452  10.955   4.659  16.400  0.0832  0.0089  0.0584
10606W        W27453   1.685  12.379   5.379  0.1504  0.1147 -0.0669
10607W        W27454   2.395   1.061   4.160  0.1527  0.0285  0.3287
10608W        W27455  12.028   3.631  15.225  0.1682  0.0850 -0.1228
10609W        W27456   2.168  14.690   5.251  0.5079  0.2061 -0.1316
10610W        W27457   5.151   9.851  16.102 -0.3157  0.4604 -0.4940
10611W        W27458  15.986   1.664   5.075  0.4152 -0.2296  0.0988
10612W        W27459   7.114  14.274   3.095  0.2663  0.0606  0.1680
10613W        W27460   0.750  11.879  11.779 -0.7348  0.2341  0.0229
10614W        W27461  11.102  15.753  15.842  0.2784 -0.4064  0.1058
10615W        W27462   3.924   5.983   3.946 -0.0220  0.2203  0.1428
10616W        W27463   9.686  11.932   4.430 -0.0393  0.2817  0.1092
10617W        W27464  10.039  15.669   3.066  0.0375  0.0925  0.0167
10618W        W27465   0.064   8.129  14.676 -0.0186  0.1425  0.1224
10619W        W27466  11.369  16.693  15.985 -0.0095 -0.0498  0.0449
10620W        W27467  16.545  13.141  13.183 -0.0391 -0.2508  0.3374
10621W        W27468  11.199   6.365   4.822  0.0827  0.0708  0.1410
10622W        W27469  15.190  15.633   3.205 -0.1291  0.0126  0.0985
10623W        W27470   8.044  13.605   5.032  0.1658 -0.0199 -0.1679
10624W        W27471   6.373  16.281   2.363  0.0873  0.2555 -0.1195
10625W        W27472  12.917  12.338   2.102  0.1650  0.1332 -0.0019
10626W        W27473   6.788  14.596  14.815  0.0728 -0.2804  0.0144
10627W        W27474  10.332   6.611  13.533  0.2776 -0.2601 -0.1862
10628W        W27475  17.953   7.258  15.529 -0.1862  0.1890  0.0432
10629W        W27476   2.577  16.662   4.023  0.3901  0.1158 -0.1967
10630W        W27477  15.839  11.614  12.515 -0.0589  0.1073  0.0246
10631W        W27478   5.230  13.814   0.834 -0.3823 -0.1523 -0.0446
10632W        W27479  15.616   3.581  11.592 -0.0446 -0.1378 -0.1696
10633W        W27480   8.031   3.927  15.113  0.1620  0.0154 -0.2285
10634W        W27481   4.716  15.956   3.998  0.2436  0.1088 -0.1552
10635W        W27482   0.641   1.332   4.492 -0.0071  0.4054  0.1126
10636W        W27483  15.273   6.498  16.646  0.0855 -0.1851  0.0177
10637W        W27484   8.027  15.219   4.991 -0.0794  0.1583  0.0919
10638W        W27485   5.822   6.329  15.888 -0.2894 -0.0552  0.0177
10639W        W27486  17.324   2.243  15.439  0.0428  0.0717  0.0781
10640W        W27487   9.510   4.300  11.911 -0.0604 -0.1091 -0.0372
10641W        W27488   3.077   3.544   3.808  0.0083  0.1061  0.3193
10642W        W27489  17.101  14.015  11.739  0.0662  0.1341  0.0255
10643W        W27490  17.396   8.706  14.545  0.0027 -0.0379 -0.0475
10644W        W27491   9.116   7.386  14.760  0.1416 -0.2894  0.3512
10645W        W27492  16.409   2.064  15.543  0.0233 -0.0109 -0.3403
10646W        W27493  11.689   5.337   2.343  0.2568 -0.0391  0.0113
10647W        W27494   1.253   1.078   6.115 -0.0079 -0.0815  0.1130
10648W        W27495   3.439  15.950   1.373 -0.0495  0.0865  0.3613
10649W        W27496   3.077   1.360  14.203  0.0901 -0.4008 -0.0906
10650W        W27497  12.364  11.670  12.326  0.2541 -0.3977 -0.0969
10651W        W27498  16.973   1.026   1.212 -0.0963  0.1334 -0.2105
10652W        W27499   3.747   2.231   4.876 -0.1793  0.1202 -0.3104
10653W        W27500  16.311   1.984  16.119 -0.0682  0.1606  0.0997
10654W        W27501   5.882  17.288   4.174 -0.2555  0.2721 -0.2603
10655W        W27502   7.393   0.743  11.534  0.0488 -0.3856  0.1064
10656W        W27503   0.046   7.940   5.412 -0.0200  0.1560 -0.4394
10657W        W27504   6.018   8.493  16.560  0.0343  0.0887 -0.0760
10658W        W27505   8.540  17.528  13.433  0.0158  0.2523 -0.1278
10659W        W27506  14.225   8.021  13.707  0.0686 -0.2768 -0.1931
10660W        W27507  15.178  16.170   3.491 -0.1140  0.0012  0.1038
10661W        W27508  10.256   5.218   1.168 -0.6313  0.0542 -0.2154
10662W        W27509   5.317  11.383   2.152  0.0841 -0.0940 -0.0725
10663W        W27510  12.848   9.169   5.405  0.0551 -0.0149  0.1323
10664W        W27511  11.340   5.567  14.409  0.4877  0.0295  0.0636
10665W        W27512  14.238   7.456  13.752 -0.2643 -0.0477  0.0512
10666W        W27513  11.107  16.136   0.451  0.1124  0.0960  0.0876
10667W        W27514   7.444   4.998  13.768 -0.0702  0.2579 -0.2238
10668W        W27515   2.530  14.725  11.919 -0.0339  0.0103  0.1712
10669W        W27516  17.331  14.610   2.941  0.0546 -0.0796 -0.0066
10670W        W27517   8.762   0.656  14.778 -0.0317 -0.2014 -0.2934
10671W        W27518   3.310   0.219   0.084 -0.2932 -0.1624  0.0725
10672W        W27519  14.492  12.548   1.442  0.2172 -0.4018 -0.1899
10673W        W27520   9.259   4.784  13.993  0.1297  0.2706  0.0920
10674W        W27521   5.841  10.450  15.108 -0.0448  0.1187 -0.2750
10675W        W27522  13.080   8.286   0.604  0.1095 -0.0668 -0.5099
10676W        W27523  11.244   4.419   1.253  0.3389 -0.0115  0.1487
10677W        W27524   9.214   9.620  16.414 -0.0755 -0.1779  0.3888
10678W        W27525  17.067   1.769  14.352  0.0599 -0.1592  0.0121
10679W        W27526   5.843  12.139  15.746 -0.1898  0.0770  0.1301
10680W        W27527   1.356  17.057  12.914 -0.2851  0.3469 -0.0165
10681W        W27528   8.857  17.977   0.552 -0.0266  0.1161 -0.0347
10682W        W27529   1.823   2.766   2.056 -0.0541  0.0678  0.1196
10683W        W27530   2.672  14.941  13.219 -0.0794 -0.0269  0.2603
10684W        W27531   8.293   4.327   2.431  0.0260 -0.1170  0.2932
10685W        W27532   0.196   9.142  14.306  0.5160  0.0899 -0.2675
10686W        W27533   2.225  10.769   3.266 -0.2723 -0.1028  0.2909
10687W        W27534   7.055  15.881   4.868 -0.0496  0.2485 -0.4600
10688W        W27535   0.794   0.937  14.377  0.2031 -0.1241 -0.0792
10689W        W27536  17.461  10.631   4.966 -0.0754 -0.0895 -0.0872
10690W        W27537   5.452  11.562  12.653 -0.2667 -0.2849 -0.0416
10691W        W27538   3.119   0.689  16.006  0.2481  0.1312 -0.1698
10692W        W27539  12.624   3.475  14.446 -0.0484  0.0119 -0.1675
10693W        W27540   0.911  17.545  12.020 -0.3103  0.1476 -0.0334
10694W        W27541   2.940   2.334  15.745 -0.3023  0.3639  0.1041
10695W        W27542  15.625   5.968   1.948 -0.2314 -0.0119  0.0668
10696W        W27543   6.064  17.437   2.129  0.1036 -0.1498 -0.0532
10697W        W27544   7.949   7.316  13.680  0.0001  0.4206  0.1671
10698W        W27545   9.578   9.591  11.754  0.1363 -0.0580 -0.2270
10699W        W27546   1.502  10.331   4.499  0.2862 -0.0998  0.1483
10700W        W27547  10.678  13.911  16.335  0.1188 -0.0412 -0.1219
10701W        W27548   5.423  15.790  11.700  0.0034  0.0625 -0.4493
10702W        W27549  11.680   6.918  16.670 -0.2562 -0.1857 -0.1819
10703W        W27550   1.339  12.999   1.943 -0.2262 -0.0600  0.1318
10704W        W27551  14.315   6.204  15.801 -0.0424  0.1182  0.0278
10705W        W27552  14.401   3.465  15.444 -0.1097 -0.2077 -0.3747
10706W        W27553   4.310   4.789   3.049 -0.1972  0.0265 -0.3772
10707W        W27554   5.855  14.703   5.362 -0.1543 -0.1802  0.0621
10708W        W27555  18.023   5.233   4.907 -0.0356  0.1934 -0.1243
10709W        W27556  10.896  14.542   3.083  0.0809  0.0497  0.1748
10710W        W27557   6.835   6.672  12.151 -0.2251 -0.3245 -0.1521
10711W        W27558   2.065   8.700  13.905  0.0276  0.0482  0.1990
10712W        W27559   6.766   4.508   1.559  0.0701  0.0714 -0.2867
10713W        W27560  16.737  11.783  13.576 -0.0803 -0.0092 -0.0365
10714W        W27561   3.310  14.112   0.561  0.1852  0.4462  0.1711
10715W        W27562   9.464   7.318  16.227  0.2098 -0.1561  0.0961
10716W        W27563   9.604   8.287   4.778  0.0276 -0.3498  0.1733
10717W        W27564  17.999   8.099  15.742  0.0028 -0.0838  0.1348
10718W        W27565  12.284   8.974   2.278 -0.0936  0.0714  0.0064
10719W        W27566  15.487   3.810   3.638  0.1213  0.0803  0.2542
10720W        W27567  14.144  13.566  14.231 -0.1446 -0.0644 -0.1736
10721W        W27568  11.075  12.802   4.335  0.0397 -0.2374 -0.1672
10722W        W27569   9.481   9.358  15.142  0.1347  0.0296  0.0039
10723W        W27570   3.953   3.553   1.046  0.1877  0.1274 -0.3539
10724W        W27571   0.445  15.605  13.281 -0.3019 -0.2284 -0.0986
10725W        W27572   8.357   0.514   3.452 -0.2721  0.3009  0.4009
10726W        W27573  13.193   9.180   3.215 -0.0379  0.2518 -0.3006
10727W        W27574   2.973  15.765  14.452  0.5057  0.1185 -0.0336
10728W        W27575  12.027   9.664   1.357 -0.0905  0.2707  0.0366
10729W        W27576   2.938  12.248  15.389  0.1705 -0.2292 -0.3795
10730W        W27577  14.223  17.040   1.316  0.1152 -0.2157  0.1723
10731W        W27578   3.534   1.760   3.390  0.1105  0.1742  0.1452
10732W        W27579  14.252   2.855  14.288 -0.3031 -0.2201  0.2767
10733W        W27580   4.406   3.405   1.167 -0.0195 -0.0679 -0.0320
10734W        W27581  11.902   7.520  15.282  0.2744  0.1588  0.0427
10735W        W27582   4.560   5.546  14.928  0.0968 -0.1907 -0.0984
10736W        W27583  12.181  10.234  13.493 -0.0707 -0.0426 -0.5370
10737W        W27584   9.906  10.257  14.627  0.0790 -0.0605 -0.0571
10738W        W27585   1.195  14.524  14.779 -0.1001 -0.2265 -0.1520
10739W        W27586   1.391   1.783   0.339  0.1808  0.3246  0.2613
10740W        W27587   7.838  11.617  13.421  0.3600  0.0372  0.2046
10741W        W27588  14.927   2.806   2.038  0.1880  0.1879  0.0075
10742W        W27589   9.229  13.175  12.185  0.1164  0.1266  0.0820
10743W        W27590   8.758   3.618   5.181 -0.0953 -0.2405  0.3261
10744W        W27591  13.938  16.069   5.803  0.0514  0.0151  0.3631
10745W        W27592  11.715   8.871   4.054  0.1240  0.0853 -0.2361
10746W        W27593   5.362   5.450   4.002  0.2262 -0.2115 -0.2944
10747W        W27594  13.182  14.227  12.681  0.4371 -0.1745 -0.0156
10748W        W27595   8.461  10.685   3.857  0.0599  0.2166 -0.2315
10749W        W27596  13.914   9.445  12.614 -0.1413  0.1056  0.0392
10750W        W27597   2.579  17.285  16.483  0.1813 -0.2062 -0.0075
10751W        W27598   4.333  12.112   5.441  0.0476  0.2324  0.2678
10752W        W27599   2.623   0.500  16.023 -0.4258  0.0325 -0.0119
10753W        W27600   3.321  15.978   0.895 -0.2044  0.0031 -0.2338
10754W        W27601   1.951  16.140  15.150 -0.1482  0.3379  0.0488
10755W        W27602   4.093   8.593   0.657  0.1266 -0.1954  0.3055
10756W        W27603   9.292   9.483   3.552 -0.3002 -0.1021 -0.3294
10757W        W27604   2.104  15.436   2.220  0.0906  0.1281  0.2054
10758W        W27605  12.829   0.594  15.653 -0.3178 -0.0597 -0.1086
10759W        W27606  13.699  16.209  12.796  0.0831 -0.0557  0.0094
10760W        W27607  10.974  15.520   2.368 -0.2713  0.1590  0.0430
10761W        W27608  10.156   6.495   2.224 -0.0068  0.0479 -0.2397
10762W        W27609   4.014   1.012   0.966 -0.0868  0.1636  0.0209
10763W        W27610  16.688  15.561   0.321  0.0873  0.2139  0.2503
10764W        W27611   4.171  10.378  16.052 -0.1221  0.0006 -0.0894
10765W        W27612   7.662  13.501   0.312  0.0551  0.1648  0.3170
10766W        W27613   9.728  10.657  16.246  0.2147 -0.0897  0.3076
10767W        W27614  12.072  14.579   0.733 -0.1067 -0.1695  0.1934
10768W        W27615   6.327  13.087  16.012 -0.2020  0.0815  0.0846
10769W        W27616   8.915  15.649  15.423  0.1342 -0.0441 -0.2536
10770W        W27617   4.572  15.418  16.320  0.1517  0.0663  0.2953
10771W        W27618   7.773  16.293  12.288  0.0327 -0.2378  0.1682
10772W        W27619  10.728   8.548   1.254 -0.2050  0.0562  0.0982
10773W        W27620  17.064   4.914  15.018  0.1605  0.0563  0.4477
10774W        W27621   4.842   0.920  16.400 -0.0101 -0.0057 -0.1623
10775W        W27622   9.937   8.763  13.405 -0.3219  0.2191  0.2507
10776W        W27623  17.756  11.415   1.604 -0.0165  0.1321 -0.0198
10777W        W27624   0.916  11.517   4.909  0.0494 -0.3026  0.0118
10778W        W27625   7.979   5.522   2.830 -0.0654 -0.0728  0.0947
10779W        W27626   9.133  16.471   4.909  0.2465  0.0186  0.1762
10780W        W27627   8.335   8.647   5.244 -0.1056  0.2260  0.2771
10781W        W27628  17.647   9.646   2.675  0.0498  0.0878 -0.2254
10782W        W27629   4.783   9.602   5.293  0.0447 -0.1483 -0.0671
10783W        W27630   6.013   3.744   0.408  0.0803  0.0189  0.0573
10784W        W27631  16.038  11.460  11.764  0.0484 -0.2041 -0.3366
10785W        W27632  17.343   9.325   1.022 -0.0439 -0.0513 -0.1117
10786W        W27633   2.280   9.489   0.042 -0.0325  0.0025 -0.3583
10787W        W27634  11.550  13.386   0.687  0.2066  0.0551 -0.0904
10788W        W27635   9.583   4.325   2.386  0.0423  0.0948  0.0870
10789W        W27636  11.414   8.699   1.752 -0.0649 -0.5604 -0.2569
10790W        W27637  10.871   7.840  15.130  0.0579  0.1098  0.0907
10791W        W27638  17.472   6.814   5.161 -0.1121  0.0832 -0.4361
10792W        W27639  15.372   4.414   3.688  0.2297  0.1983  0.1149
10793W        W27640   5.175   9.802  12.873 -0.0805 -0.0302  0.0135
10794W        W27641  11.693   2.113  16.476  0.2034 -0.4154  0.2375
10795W        W27642   4.255   2.795   4.071  0.0696 -0.0966  0.0446
10796W        W27643  11.210  10.209  15.862 -0.1235  0.0538 -0.0538
10797W        W27644   4.406  11.497   2.412 -0.1081  0.3558  0.1301
10798W        W27645   3.646   2.358  13.411 -0.1938  0.0155  0.0548
10799W        W27646   9.987  15.878  11.596  0.1163 -0.1887 -0.1237
10800W        W27647   3.786   6.028  13.257 -0.1266 -0.0618 -0.1860
10801W        W27648  10.645   0.075  15.748  0.0101  0.0404  0.3070
10802W        W27649  10.132  10.837  15.925 -0.0008  0.0649  0.0715
10803W        W27650   4.839  10.448   4.480 -0.0818 -0.0952 -0.0736
10804W        W27651   1.583   2.128   3.816 -0.0892  0.2695 -0.1205
10805W        W27652  16.854   9.308   2.156  0.0577  0.2267  0.0654
10806W        W27653  12.997   6.429   5.751 -0.2440 -0.1734  0.3373
10807W        W27654   9.286   0.681  12.259  0.0184  0.0965 -0.4095
10808W        W27655  10.092   3.045   0.082 -0.0218 -0.1251 -0.1391
10809W        W27656  10.615  15.390   0.054 -0.0529 -0.0377 -0.1761
10810W        W27657  14.128   0.847  11.457  0.0170  0.0012  0.0020
10811W        W27658  16.750   6.197  12.568 -0.1453  0.2474 -0.1819
10812W        W27659  15.441  17.830  13.099 -0.0172 -0.2478  0.1350
10813W        W27660  11.034  14.103  13.566 -0.1259  0.0731 -0.0207
10814W        W27661   2.121  11.235   1.397  0.0861 -0.1401 -0.2612
10815W        W27662  16.696   5.563   3.503  0.2367  0.1367  0.0409
10816W        W27663   4.438   2.832   1.523  0.2062 -0.2285  0.1413
10817W        W27664  14.911  13.795   5.620 -0.0431  0.1653  0.0383
10818W        W27665  11.781   6.636   0.473  0.1813  0.2393 -0.0445
10819W        W27666   7.767   7.798   0.964  0.2734 -0.1259 -0.0905
10820W        W27667   3.858   2.754  14.617  0.0271  0.2470 -0.0060
10821W        W27668  12.395  17.013  11.135 -0.0135 -0.0417 -0.1984
10822W        W27669  17.950  15.437   2.022  0.0971 -0.4518 -0.0481
10823W        W27670  11.237  16.415   5.977 -0.0339 -0.1267 -0.2263
10824W        W27671   8.734  10.803  13.962  0.0802  0.1971  0.1019
10825W        W27672   7.158  17.573  15.486  0.0494  0.1130  0.1389
10826W        W27673   2.112  10.301  11.954 -0.2836 -0.1481 -0.2021
10827W        W27674  14.878   7.150  14.256 -0.0504 -0.3131 -0.1358
10828W        W27675   8.403   6.297  15.076 -0.2787 -0.0665  0.1960
10829W        W27676   8.079  15.892   1.725  0.2659  0.3493  0.3151
10830W        W27677   5.336   6.052  16.497  0.0254 -0.2359  0.1702
10831W        W27678   1.668  16.268  12.587  0.0488  0.0083 -0.0926
10832W        W27679   1.217  13.429   1.324  0.0533 -0.0916 -0.0144
10833W        W27680   2.464  16.981   0.212  0.0562 -0.2626  0.1261
10834W        W27681  10.196  13.759  16.320  0.0081  0.2963 -0.2212
10835W        W27682   6.576   1.484   3.361  0.5152 -0.4312 -0.1953
10836W        W27683   2.517  14.288   6.166 -0.0857 -0.1479  0.0385
10837W        W27684  17.491  10.723  12.245 -0.0095 -0.4007 -0.2569
10838W        W27685   5.290   8.971   0.046  0.0060  0.0652  0.1689
10839W        W27686  10.294  14.382   4.555 -0.1318 -0.0340 -0.2127
10840W        W27687  13.348  15.240   2.714 -0.4771  0.1218 -0.2236
10841W        W27688   1.946  17.897  16.544  0.0107 -0.2843 -0.2976
10842W        W27689   1.881   4.459   3.362  0.0167 -0.2124 -0.1752
10843W        W27690  16.183  11.088   1.098  0.3695  0.0123 -0.0940
10844W        W27691   0.259   3.892   1.414 -0.2259 -0.2748  0.0967
10845W        W27692   1.677   9.005   1.636  0.2877 -0.2675  0.0307
10846W        W27693  10.404   8.585  13.568 -0.1773 -0.0615  0.0627
10847W        W27694   7.320  15.674  11.649  0.1109  0.1892 -0.0758
10848W        W27695   5.677  16.567  14.903 -0.1409 -0.2314  0.5151
10849W        W27696   3.352   0.996   5.763  0.1002  0.1187 -0.1782
10850W        W27697  13.150   2.804   3.955 -0.0852 -0.2429  0.1963
10851W        W27698   0.326   4.699   2.894 -0.2182 -0.1150 -0.1842
10852W        W27699  11.195  10.199  12.364  0.3269  0.2173  0.2784
10853W        W27700  13.346  12.644   4.427  0.1929 -0.1089  0.0575
10854W        W27701   2.624   6.270  15.148 -0.1343  0.2345  0.0433
10855W        W27702   7.715  14.102  12.865  0.0702  0.0336  0.0400
10856W        W27703   1.200   5.498   3.428  0.0260  0.0103 -0.1489
10857W        W27704  15.972  11.026  16.576 -0.2618 -0.0522 -0.2322
10858W        W27705   6.564  14.912  15.705 -0.2955  0.0660 -0.0866
10859W        W27706   7.521   4.797  16.486 -0.1803 -0.1007  0.0783
10860W        W27707   8.514   5.537   3.034  0.2393 -0.0270 -0.0564
10861W        W27708   0.912  16.201  11.943 -0.0263 -0.4430 -0.0550
10862W        W27709   5.483   1.173  13.863 -0.0323  0.4197 -0.1922
10863W        W27710   1.345  16.092   3.806  0.3016  0.1081 -0.0507
10864W        W27711  14.860   8.953   4.556 -0.0554 -0.1777 -0.1102
10865W        W27712  13.854  14.856   1.189 -0.0243 -0.0142  0.0751
10866W        W27713  10.982  12.962  12.686  0.2330 -0.0928 -0.1083
10867W        W27714  15.205   3.098   4.897 -0.0297  0.0280 -0.1033
10868W        W27715   3.448  11.539  13.457  0.0001  0.0220 -0.1505
10869W        W27716  12.423   0.416  11.795 -0.4249 -0.0733  0.2711
10870W        W27717  10.620   7.282   3.631  0.3580  0.0114  0.0230
10871W        W27718  14.079  10.096  16.097  0.1339  0.1373 -0.0809
10872W        W27719   8.774   1.395   4.082  0.0318 -0.3179  0.1783
10873W        W27720  13.715  15.330   1.213  0.0544  0.1315  0.0652
10874W        W27721   2.976   6.220   0.552 -0.1337  0.1077  0.1746
10875W        W27722   9.844  10.995  11.588 -0.0846 -0.1643 -0.0814
10876W        W27723  14.221  13.904   5.241  0.0986 -0.2590  0.0384
10877W        W27724   9.198  13.128  14.599  0.1571  0.0591  0.1503
10878W        W27725  11.894   0.303  13.316  0.0270  0.0976 -0.0409
10879W        W27726   7.639   1.693  13.206  0.0081 -0.0165 -0.3114
10880W        W27727   2.869   3.637  12.230 -0.0753 -0.1975 -0.2481
10881W        W27728  12.788   5.480  13.600  0.0110  0.0990  0.0514
10882W        W27729   6.300   4.112  12.813 -0.1039  0.2792  0.0842
10883W        W27730   9.507   9.985  15.664 -0.0382 -0.1661 -0.2431
10884W        W27731   5.172  15.611   3.108  0.1283 -0.0773 -0.3006
10885W        W27732   2.366  11.873   0.513  0.2036  0.0642 -0.1351
10886W        W27733   9.012   2.597   2.971 -0.0049 -0.1211  0.1636
10887W        W27734   4.509   3.017  11.011  0.4391  0.0057  0.3382
10888W        W27735  13.609  14.531  13.548 -0.1940  0.0743  0.0287
10889W        W27736   8.259   4.318   0.151 -0.2389 -0.1512  0.1783
10890W        W27737  17.427  16.209   0.145  0.0221 -0.0345 -0.0337
10891W        W27738   8.721   8.997  11.612 -0.2010 -0.1401  0.1342
10892W        W27739   3.902  13.219  15.036  0.0709 -0.0662  0.2305
10893W        W27740   7.064   7.225   3.746 -0.0108 -0.1138  0.3288
10894W        W27741   3.109   6.550   6.100  0.0295  0.0105 -0.0654
10895W        W27742  15.730  15.264   4.893  0.0024  0.2395 -0.2097
10896W        W27743   5.936  14.253   1.194  0.2538 -0.2225 -0.0581
10897W        W27744  10.969   1.473  14.717  0.3526  0.1298 -0.2317
10898W        W27745  16.388   7.159   4.585  0.1810  0.3396  0.2036
10899W        W27746  16.098   7.327  11.576 -0.2414  0.2332 -0.1547
10900W        W27747  15.609  14.358   5.210  0.2029  0.1842 -0.2467
10901W        W27748  11.719   6.459   1.376  0.0909  0.2933  0.2894
10902W        W27749  11.373   1.410  11.987 -0.1271  0.0803  0.0686
10903W        W27750  11.366  16.177   5.098  0.0001  0.2027  0.1525
10904W        W27751   9.543   9.690   1.304  0.3672 -0.1496 -0.0722
10905W        W27752   4.600  13.548  14.512  0.2153 -0.0984  0.1053
10906W        W27753  14.024  10.207   4.020  0.2378 -0.0300  0.2287
10907W        W27754  17.260   7.091   6.293  0.2415 -0.3666 -0.2687
10908W        W27755   7.523   9.947   3.285  0.2595 -0.0114  0.2938
10909W        W27756   5.385  16.487   3.392  0.0296 -0.2263  0.0081
10910W        W27757   6.769   3.857   3.125  0.1691  0.3465 -0.2427
10911W        W27758  16.149   1.901  15.118  0.2048 -0.1030  0.1157
10912W        W27759   4.866  15.490  14.666 -0.0403  0.0652  0.0872
10913W        W27760   7.764   6.036   0.453 -0.5702  0.2788 -0.1090
10914W        W27761  12.318   9.408   0.396  0.2770 -0.3608  0.2289
10915W        W27762  15.609   5.689   2.873  0.1718 -0.1218 -0.0999
10916W        W27763   0.327   0.085   1.587 -0.2026 -0.2151 -0.0547
10917W        W27764   9.561   6.078  15.807 -0.0462  0.1057 -0.2142
10918W        W27765  11.900  14.197  15.183 -0.1885 -0.1916 -0.0536
10919W        W27766   6.387  13.781   3.745 -0.1107 -0.0244  0.0077
10920W        W27767   5.532  10.488  15.970 -0.1034  0.1340  0.1217
10921W        W27768   1.987   0.438  16.140  0.4044 -0.1358 -0.1889
10922W        W27769  11.827  12.289   3.670 -0.2085 -0.1864 -0.0340
10923W        W27770  13.301   1.721  14.247 -0.0318  0.1187  0.2542
10924W        W27771  14.987  15.978   0.666 -0.1323 -0.1334  0.0467
10925W        W27772  17.756   4.547   2.031  0.2063  0.4018  0.3163
10926W        W27773   7.680  15.568   1.257  0.2307  0.2193  0.0317
10927W        W27774  15.791   4.003  11.933  0.0134  0.1571  0.0739
10928W        W27775   6.859  17.875   1.393 -0.0599  0.1664 -0.0091
10929W        W27776   8.625   7.968   0.487  0.1569 -0.1664  0.0671
10930W        W27777   5.931   0.814   3.102 -0.0163 -0.0784  0.0304
10931W        W27778   1.541   9.672  11.852 -0.1399 -0.0220  0.0966
10932W        W27779  12.274   7.366  16.594 -0.0309  0.2083 -0.0876
10933W        W27780  15.018  16.759   3.387 -0.0476 -0.0248  0.1437
10934W        W27781  10.312   0.505   4.763 -0.0992 -0.0869 -0.0175
10935W        W27782  15.448   1.117   0.475 -0.1705 -0.0713  0.2012
10936W        W27783  13.663   5.704  16.229 -0.1015  0.0274  0.0391
10937W        W27784   8.464   5.884   4.859 -0.0061  0.1971 -0.2877
10938W        W27785   9.615   8.758  12.936 -0.2034  0.0808  0.3870
10939W        W27786   6.852  14.598  13.317  0.1938  0.4910 -0.1170
10940W        W27787  14.993   3.355  12.170 -0.0162  0.0850  0.0743
10941W        W27788  11.795   2.237  14.624 -0.0840  0.0501  0.4125
10942W        W27789   6.846   0.114  11.243  0.0915  0.1883  0.5023
10943W        W27790  12.667   1.015  14.868 -0.0552  0.1732 -0.2761
10944W        W27791   4.233   4.038  16.356  0.1925  0.2009 -0.1575
10945W        W27792   4.453   2.933   1.060  0.2658 -0.0556 -0.2985
10946W        W27793  16.330   5.536   0.773  0.0194  0.0156  0.0798
10947W        W27794   5.798  17.187   1.329 -0.1059  0.0632  0.2081
10948W        W27795   7.609  15.697  15.188 -0.2398  0.0941 -0.2262
10949W        W27796  14.960   8.702  16.435  0.1706  0.0831  0.3314
10950W        W27797   0.288   7.296  15.892 -0.2286 -0.0279  0.3889
10951W        W27798  14.556   1.791  13.420  0.1048  0.4730 -0.0801
10952W        W27799   4.494  10.528   1.194  0.3399  0.0194  0.2072
10953W        W27800   8.020  16.229  14.595 -0.0166  0.2404  0.0675
10954W        W27801  15.270  14.080  11.748  0.1697  0.1465 -0.0787
10955W        W27802  15.612  15.887  15.144 -0.1916 -0.0038  0.1318
10956W        W27803  16.583   4.255   5.679  0.0411  0.0179  0.0940
10957W        W27804  11.607   8.341   1.466  0.0827 -0.1049  0.0158
10958W        W27805   9.993   9.828   1.117 -0.0795 -0.0074 -0.0053
10959W        W27806  12.403   5.155   2.493  0.1149 -0.0517  0.0315
10960W        W27807  13.723   6.910  12.039 -0.1713  0.1989  0.0535
10961W        W27808  17.027  15.335   3.612  0.0674  0.0562  0.0181
10962W        W27809  17.614  15.982  11.801  0.1188 -0.1404  0.3368
10963W        W27810   4.868  17.335   2.858  0.0504  0.2724  0.1064
10964W        W27811   5.026  17.090   4.948  0.2853 -0.1471  0.0034
10965W        W27812   5.978   0.212  12.213 -0.1817  0.3393  0.1624
10966W        W27813   0.895   3.333  15.577  0.0253  0.1892 -0.0612
10967W        W27814  11.708  17.861  13.255 -0.3555 -0.1174 -0.0990
10968W        W27815  14.311  12.084  12.707 -0.2000 -0.3110  0.0430
10969W        W27816   7.727  14.673   2.511 -0.1295  0.3233 -0.2703
10970W        W27817  12.534   4.508  13.820  0.0091 -0.2086 -0.0021
10971W        W27818  14.618  13.656   0.323  0.1254  0.3494 -0.0959
10972W        W27819   6.321  14.589   5.521  0.0598  0.1407  0.1337
10973W        W27820  14.555  17.541  11.473 -0.0331 -0.0354 -0.0655
10974W        W27821   5.423   3.597  14.250  0.3438  0.0149  0.2293
10975W        W27822  16.902  14.552   4.118  0.1131  0.0307 -0.2776
10976W        W27823   2.146  12.374   1.897  0.0227  0.0299 -0.0696
10977W        W27824   0.762   2.547   4.361 -0.0575 -0.0194  0.1107
10978W        W27825   1.448   8.574   3.932  0.2683 -0.2705 -0.0127
10979W        W27826   6.263   6.061  15.944  0.0499  0.1350  0.4066
10980W        W27827   7.007   4.671   4.294 -0.2812  0.1334  0.0881
10981W        W27828   3.938   2.856  14.116 -0.1380 -0.0082  0.0472
10982W        W27829  16.307   2.159   0.470 -0.2984  0.0766 -0.1717
10983W        W27830   7.392   3.079   4.967 -0.1570  0.0692  0.1107
10984W        W27831   5.139   2.048   1.678 -0.2445  0.0441 -0.0960
10985W        W27832  13.602  15.253  14.026 -0.3373 -0.2220 -0.0176
10986W        W27833   8.680   1.252  12.533 -0.1228 -0.0454  0.2077
10987W        W27834  13.107  14.671  13.035  0.0084  0.0426  0.2749
10988W        W27835   7.923  15.764   0.807 -0.0526 -0.0496  0.0405
10989W        W27836   8.460  14.061  15.443 -0.2313 -0.0666 -0.2711
10990W        W27837   5.816  14.722  13.314 -0.4400 -0.2797  0.0007
10991W        W27838   4.726  14.779   5.258  0.0691 -0.0105 -0.2750
10992W        W27839  15.313   9.937   1.204 -0.2636  0.0826  0.4687
10993W        W27840   8.530   6.462   1.975  0.0095  0.0311  0.3363
10994W        W27841   2.565  13.730  14.907 -0.2035  0.0589 -0.0630
10995W        W27842  15.557   2.385   4.905  0.0361  0.2552 -0.4380
10996W        W27843  10.532   8.875   0.822 -0.1134 -0.2212 -0.1092
10997W        W27844   9.447  10.263  12.903 -0.1718 -0.0384 -0.0643
10998W        W27845   4.096   8.932   2.056 -0.2014 -0.0173 -0.1736
10999W        W27846  17.341  16.360   3.540  0.0209 -0.2184  0.0758
11000W        W27847   0.569  14.996  15.837  0.0196  0.0056  0.2944
11001W        W27848   1.361  12.492   5.012  0.1358 -0.1419 -0.0203
11002W        W27849   6.672  14.990   0.451 -0.0012  0.0063  0.0008
11003W        W27850   6.982  15.984   0.773 -0.0725  0.1003  0.0687
11004W        W27851  14.510  10.610   0.351  0.4389 -0.1671 -0.1255
11005W        W27852   4.211   5.359   3.136  0.0654 -0.1048 -0.2548
11006W        W27853  12.742  14.104  12.347 -0.0844  0.0136  0.2394
11007W        W27854   1.578  11.619  12.332  0.0230  0.0373 -0.0304
11008W        W27855   4.008   3.185  11.089 -0.1115  0.2901  0.2093
11009W        W27856   4.416   9.592   0.845  0.0390 -0.0441 -0.0558
11010W        W27857  18.026   1.441  15.262 -0.4162 -0.0745  0.0212
11011W        W27858   2.408   1.109  12.641  0.0314 -0.0295  0.0447
11012W        W27859  16.042   9.985  12.363 -0.1858 -0.1678 -0.0146
11013W        W27860   5.505   2.866  16.473 -0.2525  0.0666  0.0652
11014W        W27861   1.213  15.270   4.509  0.0028 -0.3099 -0.0585
11015W        W27862  15.669   3.578  16.285  0.1407  0.1979 -0.0096
11016W        W27863   6.171   7.858   0.406  0.1216 -0.0623  0.0494
11017W        W27864  14.394   2.207   1.212  0.0190  0.0324  0.0373
11018W        W27865   0.196  15.196  13.488  0.0344 -0.0033 -0.1849
11019W        W27866   0.779  11.839  12.284  0.0575 -0.1176  0.0791
11020W        W27867   7.630   3.026   3.226  0.0760  0.0477 -0.1858
11021W        W27868  12.143   1.892   0.998 -0.0988  0.4014  0.2136
11022W        W27869  12.589  16.246   1.535  0.1770  0.1517  0.2601
11023W        W27870  17.299  15.250  12.294 -0.1663  0.1642  0.1757
11024W        W27871   7.610  10.005   1.848 -0.1574 -0.0820  0.3012
11025W        W27872   7.899   3.034   2.133  0.0528  0.0097 -0.1152
11026W        W27873   0.371   0.988  14.642  0.0698  0.0418 -0.0895
11027W        W27874  13.707  10.440   5.417  0.0798 -0.0110  0.4248
11028W        W27875   8.474  12.203   3.768 -0.0453 -0.0259  0.1766
11029W        W27876   3.849  15.000   2.568 -0.0101 -0.1526 -0.0935
11030W        W27877   8.391   6.084  13.526  0.1268  0.0493  0.1285
11031W        W27878  10.084   4.595   0.362  0.0945  0.2605 -0.5400
11032W        W27879   7.207   1.826  10.567  0.0879  0.3514  0.1555
11033W        W27880  11.107   8.330   1.520 -0.3226  0.0643  0.0702
11034W        W27881   7.186   7.814  14.134 -0.1486 -0.0977  0.0192
11035W        W27882   2.826  17.696   1.407 -0.1611  0.1791 -0.0827
11036W        W27883   6.723   7.095   2.764 -0.2680 -0.1275  0.1273
11037W        W27884  13.518   5.836   2.896 -0.1809 -0.1330 -0.1090
11038W        W27885   8.978   8.325   3.936 -0.2668 -0.1492  0.2037
11039W        W27886   5.164   9.390  11.991 -0.1048  0.0740 -0.2211
11040W        W27887  12.212   0.465  15.546 -0.1181  0.2223  0.4356
11041W        W27888   1.270   3.568   0.779  0.0850  0.0729 -0.1085
11042W        W27889   9.558   6.558   2.977 -0.2096  0.1774  0.0390
11043W        W27890   9.493  12.065   5.781  0.1005 -0.2573 -0.0088
11044W        W27891   9.209   9.806   0.953 -0.0213 -0.1700  0.0175
11045W        W27892   4.195   4.104   3.206  0.3145  0.0888 -0.0590
11046W        W27893  16.394  16.218  12.633 -0.2211 -0.1960 -0.1572
11047W        W27894   1.034   8.332   2.568  0.3095  0.1164 -0.1456
11048W        W27895  16.098   6.510  12.194  0.0113  0.2657 -0.0928
11049W        W27896  16.398  12.379  15.620 -0.1175 -0.1003  0.0057
11050W        W27897  11.975  13.091   2.878 -0.1078  0.1229  0.0148
11051W        W27898  11.602   8.823   0.820  0.0534 -0.0678 -0.0602
11052W        W27899  11.832   6.682  16.235 -0.0832 -0.0262  0.0809
11053W        W27900   1.007  17.723   2.578 -0.1874  0.1593 -0.2112
11054W        W27901   1.250  14.606   5.473 -0.0349 -0.2313 -0.4382
11055W        W27902   7.264   8.781  12.306  0.3101  0.1354 -0.0416
11056W        W27903  15.144  16.688   0.985 -0.2031 -0.0858 -0.0405
11057W        W27904   6.219  10.491  16.094  0.1632 -0.0423  0.0297
11058W        W27905  15.125  14.501  14.956  0.1305  0.3981 -0.2915
11059W        W27906   0.294  16.927  15.497 -0.2191 -0.1000  0.2961
11060W        W27907  11.586   7.909   2.375  0.3101 -0.0358 -0.1581
11061W        W27908   5.224   5.243  13.529 -0.0603  0.0437 -0.0158
11062W        W27909   5.842   8.777   5.510  0.0996 -0.0656  0.1438
11063W        W27910  12.372  15.393  15.514  0.0275  0.1626  0.2285
11064W        W27911   7.659   5.266  16.395  0.1115 -0.0400  0.1069
11065W        W27912   6.052  13.304   4.504  0.1640  0.0880 -0.2747
11066W        W27913  17.918  17.269  15.533  0.1413 -0.2124  0.0008
11067W        W27914  17.637   8.657   2.754 -0.0737  0.0718  0.0372
11068W        W27915  11.166  10.760  13.181  0.2356 -0.1286  0.1411
11069W        W27916   2.968   9.633  15.910  0.2837  0.4909  0.5874
11070W        W27917   8.078  15.447   4.152  0.0426  0.0725 -0.0677
11071W        W27918  14.238   2.513   2.264  0.2550  0.2248 -0.0159
11072W        W27919   3.133   6.042   1.019  0.2424  0.1311  0.1200
11073W        W27920   5.014  15.512  15.269 -0.1223  0.0450  0.1785
11074W        W27921  15.836   5.931  12.942  0.2099  0.2296  0.1119
11075W        W27922   6.060  13.433   5.766 -0.0369  0.1765 -0.3824
11076W        W27923   1.744   5.783  13.219 -0.0888 -0.1090  0.3316
11077W        W27924  17.939  11.515  14.410 -0.1981  0.2610  0.3033
11078W        W27925  13.735  11.841   3.497 -0.3556 -0.1470  0.2611
11079W        W27926   9.904   2.864   2.655  0.1734 -0.0767 -0.2897
11080W        W27927  14.497  13.267   5.155  0.2918  0.3656  0.1089
11081W        W27928   2.324  12.880  14.695  0.1169  0.0806  0.0940
11082W        W27929   8.859   1.814  14.640  0.3469  0.3327 -0.1541
11083W        W27930  16.145  17.400  15.311  0.0562 -0.0213  0.0386
11084W        W27931   0.491   1.161   5.457  0.3084 -0.1654 -0.1103
11085W        W27932   7.159   4.387  15.602 -0.0838 -0.0045  0.2710
11086W        W27933  14.625   3.374  14.061  0.5586 -0.1276 -0.1167
11087W        W27934  16.765  17.544   2.128 -0.1757  0.1004  0.0411
11088W        W27935   2.818  10.268   3.711  0.1012  0.1137  0.0246
11089W        W27936   6.961   7.088   3.232 -0.2114 -0.1995  0.0848
11090W        W27937  10.251   2.539   2.847 -0.2149 -0.0058 -0.1969
11091W        W27938   5.401   1.141   0.315  0.2156  0.1943 -0.1733
11092W        W27939  17.287  11.340   0.529 -0.1365 -0.1048 -0.0867
11093W        W27940  15.775   7.913   4.692  0.0293  0.0622 -0.0688
11094W        W27941   0.589   0.770  11.986 -0.1529  0.1866  0.0461
11095W        W27942  11.824   6.911   2.686 -0.0690 -0.0250 -0.0422
11096W        W27943  10.586   7.789   5.729  0.0091 -0.0151  0.0032
11097W        W27944  16.311  15.262  11.697 -0.2950 -0.1071 -0.1940
11098W        W27945   5.310  12.053   5.813  0.2881 -0.1121  0.3382
11099W        W27946   8.054   0.392  16.152  0.0916  0.2197  0.2941
11100W        W27947  14.793  10.194   5.627 -0.0159 -0.1567  0.0579
11101W        W27948   7.709   6.764  11.988 -0.1908 -0.1611 -0.1580
11102W        W27949   5.088  17.094  15.539 -0.1214  0.1183  0.2601
11103W        W27950  14.665  11.581  13.171  0.2537 -0.1045 -0.0215
11104W        W27951   1.711   1.767  15.491  0.0323  0.0587 -0.1894
11105W        W27952   7.822   7.834   5.429  0.0444 -0.1410 -0.0387
11106W        W27953   9.451  12.916   3.084 -0.3730 -0.2023  0.1162
11107W        W27954   8.014  11.184   4.844  0.2244 -0.1544 -0.2188
11108W        W27955  16.865  13.008   2.422 -0.3296  0.2222  0.0365
11109W        W27956   6.866   3.232   3.984  0.0611  0.1454 -0.1468
11110W        W27957   5.097   9.871   4.054  0.2066  0.2775  0.0978
11111W        W27958   2.962   9.451   4.695  0.1096  0.1750 -0.0729
11112W        W27959  12.051  14.341   3.468 -0.0796  0.0360  0.2289
11113W        W27960   2.067   8.681  14.946  0.3764 -0.2452  0.0832
11114W        W27961  10.100  11.740   3.574 -0.0538 -0.0781  0.1821
11115W        W27962   0.814  13.251   5.784  0.0831 -0.0277 -0.2137
11116W        W27963   2.778  12.333   2.659 -0.0583  0.4727  0.1868
11117W        W27964   6.348   0.850   3.496 -0.0089  0.0795  0.2757
11118W        W27965   2.650   6.482   3.168  0.0449 -0.0873  0.0504
11119W        W27966  10.476  17.395  16.452 -0.2734  0.0956  0.1498
11120W        W27967  13.301   1.172  15.955  0.2941  0.2361  0.1567
11121W        W27968   7.231   4.242   2.358 -0.1056  0.2204 -0.0868
11122W        W27969   8.077  10.216  15.595  0.2005 -0.0372 -0.4550
11123W        W27970  11.255   2.625   2.936 -0.1297 -0.2790  0.1681
11124W        W27971   6.028   6.240  14.087 -0.0639  0.0545  0.0135
11125W        W27972   0.428   6.968   0.528  0.0963  0.0746  0.1556
11126W        W27973  15.356   0.754   4.229 -0.1878 -0.2069 -0.0109
11127W        W27974  12.711   6.374  11.904 -0.2598 -0.2249  0.2431
11128W        W27975   2.617   6.592  14.454  0.2291  0.0959  0.2042
11129W        W27976   2.977   1.457  13.415  0.1321 -0.1235  0.1749
11130W        W27977  16.261   2.483   1.501  0.4421 -0.2917  0.2878
11131W        W27978  12.529   2.465   3.392  0.0963 -0.3700 -0.0469
11132W        W27979  11.223   1.933   0.824 -0.2791  0.2415  0.4308
11133W        W27980   1.587   4.143   3.636 -0.2576  0.0021  0.1565
11134W        W27981   8.885   3.376   0.955  0.0120 -0.2580  0.0840
11135W        W27982   0.498   8.742  11.559  0.1483 -0.1451  0.0220
11136W        W27983  10.016  11.812   5.741  0.1492 -0.3604  0.1618
11137W        W27984   5.977   7.851   1.796  0.0484 -0.0103 -0.1622
11138W        W27985   8.648  10.700  12.496  0.1339 -0.0308  0.2811
11139W        W27986  10.256   5.242  12.968 -0.1395  0.2075  0.0509
11140W        W27987  11.686   5.541   1.119  0.0230  0.0208  0.1213
11141W        W27988   0.059   7.935   3.474  0.0468 -0.2365  0.1443
11142W        W27989   7.041   6.930   1.166  0.2179  0.2346 -0.0936
11143W        W27990  13.042   5.838  12.311  0.1860 -0.1483 -0.1875
11144W        W27991  14.198   0.251   3.479 -0.0502 -0.0715  0.1522
11145W        W27992   1.591  10.258  14.594 -0.2525  0.1418 -0.1481
11146W        W27993   9.041  13.625   2.087  0.0060 -0.0617 -0.1693
11147W        W27994  10.457   7.402   5.433 -0.2615 -0.0481  0.0117
11148W        W27995  10.753   4.405  14.578  0.2598  0.0117  0.0904
11149W        W27996   9.356  14.242   1.442  0.2736 -0.1534  0.0557
11150W        W27997  16.218   4.100   2.600 -0.2677  0.0652 -0.0658
11151W        W27998   5.122  16.604   5.015  0.0223 -0.1228 -0.0470
11152W        W27999  16.549  13.275  15.557 -0.1154  0.0572  0.0712
11153W        W28000  17.921   4.151  12.726  0.0240 -0.0868 -0.0313
11154W        W28001  11.949  17.300   0.128 -0.3803  0.1551  0.1254
11155W        W28002  14.146  10.204  12.031  0.2565  0.0004 -0.0135
11156W        W28003   6.260  12.781   4.351 -0.1167 -0.1105  0.0627
11157W        W28004   4.355   1.112  11.325  0.0739  0.1356 -0.0011
11158W        W28005   4.916   5.409  11.360  0.2152 -0.0977 -0.1447
11159W        W28006  14.575  12.038  16.266 -0.0041 -0.0796  0.0105
11160W        W28007   7.711   2.223   0.929  0.1075  0.1826  0.2795
11161W        W28008   9.380   5.969   0.520  0.1248  0.1831  0.1536
11162W        W28009  13.981  11.867   1.339  0.1587 -0.1091 -0.1392
11163W        W28010   5.292   8.870   1.390  0.1690 -0.0763  0.2319
11164W        W28011   5.550  10.909  16.672  0.1513 -0.1442  0.1257
11165W        W28012   3.785  17.703  13.081 -0.2571 -0.1668  0.0865
11166W        W28013   7.095  13.374   3.733 -0.2382 -0.0978 -0.0014
11167W        W28014  15.269  14.303   3.346 -0.1353 -0.1089  0.2474
11168W        W28015  10.221   0.601   2.788 -0.2849 -0.1132  0.0839
11169W        W28016   7.792  13.565   0.888 -0.0921  0.1319  0.3881
11170W        W28017  13.263   1.117   4.845  0.1207  0.1440 -0.0256
11171W        W28018   5.920   7.722   2.641 -0.1336  0.0902  0.0198
11172W        W28019  14.930   1.664  12.131  0.1826 -0.0353  0.0747
11173W        W28020  16.856   2.155   1.544  0.2448  0.2318 -0.0728
11174W        W28021   7.228  16.775  14.391 -0.2144 -0.2046 -0.1679
11175W        W28022  15.218   5.483   3.712  0.1321 -0.1202  0.0118
11176W        W28023   9.436  17.273  13.727 -0.0935  0.1027  0.1095
11177W        W28024   6.406   3.607  15.421 -0.1393 -0.0215 -0.2400
11178W        W28025  11.139  12.519   3.100  0.1260  0.1375  0.0991
11179W        W28026  14.658  15.606   4.133  0.0148 -0.3773  0.1593
11180W        W28027   2.714  14.652   5.885 -0.1193 -0.1088 -0.1958
11181W        W28028  16.319  11.081   0.382 -0.1254  0.0307  0.0650
11182W        W28029   1.345  16.737  15.147 -0.0371  0.0150  0.1996
11183W        W28030   7.233  13.303   5.324  0.3622  0.0782 -0.1029
11184W        W28031   0.512   0.392  14.557  0.1344  0.0747 -0.1544
11185W        W28032   5.885  17.990   4.289  0.1219  0.2053  0.0226
11186W        W28033   8.578  12.726   5.435  0.2043 -0.3311  0.0338
11187W        W28034  10.380   1.402  14.113  0.0216  0.0860 -0.2469
11188W        W28035  16.848  16.058   0.118  0.1704 -0.0171 -0.0377
11189W        W28036  13.147   2.956  16.234  0.4110  0.2613 -0.3516
11190W        W28037  17.974  14.074  12.265 -0.1792 -0.2947  0.1807
11191W        W28038   0.595  10.461   3.937  0.3149 -0.1158 -0.2088
11192W        W28039  14.109   1.455  16.302 -0.3401  0.1559  0.3162
11193W        W28040   3.681   9.843  12.031 -0.0634  0.0035  0.0104
11194W        W28041   3.938  15.918   0.155  0.0422 -0.1458 -0.2210
11195W        W28042   3.138  12.256  13.859 -0.0146 -0.5638  0.0490
11196W        W28043   1.218   2.076  16.551 -0.2617  0.2524 -0.0447
11197W        W28044  12.450   4.008   4.409 -0.1324 -0.2955  0.0541
11198W        W28045  17.053  13.828  16.631 -0.4411  0.2723  0.0345
11199W        W28046  10.935  17.048  11.279  0.5056  0.1350  0.0104
11200W        W28047  10.573   9.824   4.401 -0.2737 -0.1310 -0.0043
11201W        W28048   4.660   5.523  14.438 -0.0797  0.0494  0.1364
11202W        W28049   9.343   0.591   4.058  0.1424 -0.2237 -0.1394
11203W        W28050  14.593  15.836  15.239 -0.0029 -0.0082 -0.1570
11204W        W28051  14.234   7.519  11.339 -0.1175 -0.0716 -0.0760
11205W        W28052   6.058  15.343   3.754 -0.0416  0.1485  0.1474
11206W        W28053  13.276  15.764  14.030  0.0651  0.0736 -0.2599
11207W        W28054   7.575  17.745  13.483  0.4570 -0.0150  0.0361
11208W        W28055  12.657  14.504  12.067  0.0583 -0.1061  0.0984
11209W        W28056  12.359   2.818   5.164  0.1663  0.0573  0.1683
11210W        W28057  15.177   8.886   4.165 -0.0386 -0.1903  0.0241
11211W        W28058   6.474   7.576  15.224  0.4974  0.3381 -0.0428
11212W        W28059   8.792  16.760  14.417  0.3891 -0.1034  0.0412
11213W        W28060  17.715   1.856   3.291 -0.3250  0.1134 -0.1822
11214W        W28061  10.634  13.762   3.084  0.1020 -0.1424 -0.1635
11215W        W28062   6.072   2.742   0.619 -0.0382  0.1703 -0.1449
11216W        W28063   1.263   0.645   5.029 -0.0907  0.1444  0.0103
11217W        W28064   0.536  15.419  16.214  0.0320  0.1920  0.0635
11218W        W28065   8.717   1.366   0.072 -0.4466 -0.0764  0.0278
11219W        W28066   0.182  11.950   0.720 -0.0484  0.0879 -0.1790
11220W        W28067   1.248   9.114  15.361  0.0552  0.3630  0.0637
11221W        W28068   5.560   3.756   1.675 -0.3229  0.2045  0.3487
11222W        W28069   7.774   8.836   3.326 -0.1653 -0.0125  0.0294
11223W        W28070   3.570   3.722  13.705  0.1155 -0.0597  0.2339
11224W        W28071  13.946   5.504   2.884 -0.0559 -0.2340  0.1042
11225W        W28072   8.462   4.902  14.253  0.0926  0.0218  0.5153
11226W        W28073  13.230  12.467  14.263  0.0657 -0.0405 -0.2588
11227W        W28074   3.872   1.708  11.831  0.2977  0.1981 -0.2022
11228W        W28075   8.741   2.734  14.564 -0.0893 -0.1318 -0.1373
11229W        W28076  13.046   5.730   3.214 -0.2611  0.1876 -0.1305
11230W        W28077  13.270  12.708   1.435 -0.0576  0.0658  0.0040
11231W        W28078  16.874   0.495   3.053  0.2186  0.1119  0.4002
11232W        W28079   9.249   9.520   3.034 -0.0779 -0.1902  0.0701
11233W        W28080  17.415   2.672  13.606  0.2955 -0.2302  0.0317
11234W        W28081  13.732   9.605   2.217  0.2145 -0.2761  0.1496
11235W        W28082   7.253  16.527  13.987 -0.0104  0.1659  0.1002
11236W        W28083   0.523  14.645   2.512 -0.0297  0.1008  0.1870
11237W        W28084   7.126   8.907   4.014 -0.2648 -0.0814 -0.0612
11238W        W28085  11.874   1.837   0.539  0.2074 -0.1909 -0.0362
11239W        W28086  10.235   4.237   5.215  0.2474 -0.0620 -0.0987
11240W        W28087   7.162  14.093  12.036  0.2117  0.2119 -0.0404
11241W        W28088  10.955   7.057   1.329  0.0915  0.1077  0.1189
11242W        W28089   6.471  12.465  12.706 -0.0458  0.2670 -0.0554
11243W        W28090  15.351   8.434  16.635 -0.0430  0.1377  0.2029
11244W        W28091  16.886  15.040  14.375  0.2515 -0.0643  0.0857
11245W        W28092   3.843   8.139   3.239 -0.1423 -0.1978 -0.1765
11246W        W28093   9.224   9.230   0.212  0.1927  0.4112  0.0523
11247W        W28094   4.475   7.763   5.819  0.1229 -0.0748  0.0041
11248W        W28095   3.912   6.267   0.598  0.2726  0.1076  0.0694
11249W        W28096  10.933   9.785   0.022 -0.0865 -0.0494 -0.0263
11250W        W28097   8.714   6.597  14.301  0.4204  0.3392  0.0646
11251W        W28098  16.253  16.273  15.422 -0.3699  0.0575 -0.1047
11252W        W28099  15.391  16.494  12.725 -0.1090 -0.0796  0.2568
11253W        W28100  15.330   2.987   3.794 -0.0644 -0.1358  0.2289
11254W        W28101  12.465   2.766   1.086 -0.0765  0.0557  0.2821
11255W        W28102  14.808   0.968  15.962  0.2146 -0.3045  0.1708
11256W        W28103   7.053   8.352   2.833 -0.0005 -0.2087 -0.0204
11257W        W28104   1.878   7.887   2.212  0.0461 -0.0836 -0.0572
11258W        W28105  16.721   6.663   0.264 -0.3703  0.1036  0.0759
11259W        W28106   8.841  16.788   3.291  0.2870  0.2849  0.1626
11260W        W28107   5.050   4.674   2.143  0.0268 -0.0074  0.1159
11261W        W28108  11.159   6.150   0.782 -0.2774 -0.0634 -0.1205
11262W        W28109   8.890   0.732  11.785  0.0787 -0.0580  0.0327
11263W        W28110   8.251  15.624   1.179 -0.0195  0.0325  0.0656
11264W        W28111   8.404   4.382   1.167  0.1189  0.3585  0.0015
11265W        W28112  16.421  16.489  16.457  0.0329 -0.0619 -0.1571
11266W        W28113   2.021   7.439  15.877 -0.2322  0.0871  0.0686
11267W        W28114  12.248   5.915  13.559  0.0166  0.1907  0.2039
11268W        W28115  15.927   2.285  15.800 -0.1580  0.1032  0.0746
11269W        W28116  16.145   0.891   5.368 -0.1573 -0.2967  0.0578
11270W        W28117  14.997   8.607   2.739  0.3270  0.0550 -0.2833
11271W        W28118  15.196   9.118  15.499 -0.0002  0.1435  0.1795
11272W        W28119   0.164   5.861   4.254 -0.0817 -0.2519  0.3181
11273W        W28120  12.486  17.371   1.249  0.1165  0.3832 -0.0581
11274W        W28121   5.725   7.505   1.337 -0.0069 -0.1256  0.2537
11275W        W28122   5.328   0.692   4.070 -0.1360  0.1607 -0.0022
11276W        W28123   0.550   7.718   1.840 -0.0211  0.1526 -0.0283
11277W        W28124   9.146   4.653   0.251 -0.3690  0.2705 -0.0528
11278W        W28125  16.637   2.543  14.716  0.0787  0.2326 -0.0518
11279W        W28126   2.754  16.750   0.522 -0.1600  0.2394 -0.2204
11280W        W28127   3.424  11.695  16.374  0.3560 -0.0438 -0.3456
11281W        W28128   3.065   2.765   1.620 -0.0133 -0.0754  0.1038
11282W        W28129   4.163   0.158   1.553  0.0407  0.1337 -0.1091
11283W        W28130   1.770   3.787  13.166 -0.0509  0.1598  0.0620
11284W        W28131   0.758   0.340  16.600 -0.0475 -0.0712  0.1679
11285W        W28132   3.885  10.859   5.736 -0.0798  0.1141 -0.0598
11286W        W28133  15.623   1.924  11.523 -0.1891  0.0785 -0.2412
11287W        W28134   3.445   8.768  13.585 -0.2689  0.1519 -0.2504
11288W        W28135   9.215   6.886  14.964  0.1955 -0.1260  0.1800
11289W        W28136   2.818   8.489   2.177 -0.0156 -0.0955  0.0114
11290W        W28137   4.711   1.958   1.312 -0.0269  0.2514  0.2035
11291W        W28138   9.070   6.908  12.007 -0.2065 -0.4895 -0.0416
11292W        W28139   8.899  11.900  15.009 -0.0150 -0.0527  0.1841
11293W        W28140   6.669  13.086   6.240  0.1432  0.1260  0.4713
11294W        W28141  16.730   0.707   6.050  0.0809  0.1672  0.3814
11295W        W28142  14.608  12.040   1.900 -0.3205  0.1190 -0.2716
11296W        W28143   7.564   5.039  12.947  0.1080 -0.0138 -0.1039
11297W        W28144   6.918  11.609   3.973 -0.0462  0.3585 -0.3045
11298W        W28145   7.919  15.318  12.910 -0.0866 -0.0562 -0.2886
11299W        W28146   0.615  12.864  11.642  0.0946 -0.2480 -0.0524
11300W        W28147  12.122   1.620  12.244 -0.0794  0.0788  0.0485
11301W        W28148  10.667  16.318   4.361  0.2276  0.1591  0.0836
11302W        W28149  11.177   9.122  14.478  0.2641 -0.1335 -0.1598
11303W        W28150  15.273  18.028   2.301  0.0161  0.4146 -0.2489
11304W        W28151  15.466   7.775  12.366  0.1267  0.0834 -0.2146
11305W        W28152   0.356   0.199   2.585 -0.0159  0.0668 -0.0311
11306W        W28153   0.059  12.618  16.151  0.3379  0.1293  0.0787
11307W        W28154   7.085   6.294   3.555  0.0806 -0.2499 -0.1588
11308W        W28155  16.363   5.867  15.106 -0.0051  0.4102 -0.1510
11309W        W28156  12.979   1.839   1.344 -0.1675  0.0399  0.0371
11310W        W28157  15.871  16.026  13.525  0.0255  0.1441 -0.0330
11311W        W28158   3.150   8.662   4.575 -0.0177  0.0672 -0.0255
11312W        W28159  15.534   6.219  13.163 -0.2079 -0.1019  0.1087
11313W        W28160   9.200  14.652  12.183  0.2214  0.0189  0.1077
11314W        W28161   1.993  11.176   3.982  0.0069  0.2881 -0.2157
11315W        W28162  14.182   1.841  16.008 -0.1318 -0.3735  0.0418
11316W        W28163  10.145   6.717   3.152 -0.3033 -0.1302 -0.2197
11317W        W28164  13.106  12.229   1.226 -0.0999  0.0036 -0.0285
11318W        W28165  17.524   2.606  14.764 -0.2132  0.1523 -0.1761
11319W        W28166  15.994   4.455   5.672  0.2935 -0.1685 -0.2200
11320W        W28167   1.699   1.057   3.516  0.1093  0.0533 -0.1851
11321W        W28168   2.605   0.373   2.144 -0.0949 -0.1375 -0.1369
11322W        W28169  15.219  10.275  12.771  0.1357 -0.1023  0.0721
11323W        W28170  10.263  12.011  12.346  0.1696 -0.1825  0.2567
11324W        W28171   3.279  11.365   0.638  0.1933  0.0033 -0.1620
11325W        W28172   3.734   7.391   6.226  0.1786 -0.0715  0.0430
11326W        W28173   5.603  16.159   2.563  0.3255 -0.0234 -0.0870
11327W        W28174   8.475   5.613  15.468  0.0077  0.4379 -0.0410
11328W        W28175  12.638   9.703   1.632  0.3276 -0.0637 -0.1306
11329W        W28176  14.653  15.457  15.853 -0.0750  0.0506  0.0873
11330W        W28177  12.501   0.470  15.076  0.1652 -0.0366  0.0859
11331W        W28178  10.092  11.610   4.482  0.0024  0.2982 -0.1915
11332W        W28179   1.856   0.362  11.308  0.0974  0.3399  0.0023
11333W        W28180  14.729   3.329   4.949  0.2557 -0.0204 -0.1484
11334W        W28181  12.253   4.526   0.866  0.1506 -0.0849  0.0736
11335W        W28182   6.273  15.842  14.315  0.4446 -0.0418 -0.1285
11336W        W28183   3.007   1.259   4.345  0.0690 -0.0849 -0.1264
11337W        W28184  11.107  13.548   3.010  0.1860 -0.1800 -0.1817
11338W        W28185   9.065  16.936   4.707  0.1170  0.0347  0.1002
11339W        W28186  15.123   8.002   0.128 -0.1268  0.0861 -0.2742
11340W        W28187   0.379   5.140   6.106  0.2708  0.7094 -0.0256
11341W        W28188   4.926  11.828  13.551 -0.0883 -0.0592  0.1610
11342W        W28189  11.812   3.021  11.856  0.2193 -0.0706 -0.0199
11343W        W28190   0.494   6.214   4.467  0.1795  0.1649 -0.2281
11344W        W28191  10.897   7.345   5.633  0.2120  0.0892 -0.0780
11345W        W28192   1.253   0.057   0.978  0.1563 -0.1697 -0.0412
11346W        W28193  12.130   6.587  14.108 -0.0197 -0.1495 -0.1197
11347W        W28194   8.962  15.356   3.093  0.0726 -0.0611 -0.1191
11348W        W28195   4.859  15.884   0.537  0.0751 -0.4137  0.0293
11349W        W28196   7.727  16.993   4.284  0.3540 -0.0368  0.0410
11350W        W28197  11.011  16.354   1.756 -0.3864  0.0335  0.1462
11351W        W28198   8.689  17.377   2.423  0.0943  0.1331 -0.3516
11352W        W28199   6.687  15.537  14.193 -0.3648 -0.2302 -0.0344
11353W        W28200   3.321  13.404  13.933  0.0572  0.1177  0.1056
11354W        W28201  18.013   5.238   1.827  0.0514 -0.2718 -0.0475
11355W        W28202   2.880   3.621   3.267  0.1683 -0.2398 -0.3816
11356W        W28203  11.707   6.503  11.991 -0.1125 -0.1960  0.0382
11357W        W28204   3.691   1.410   3.716  0.2193 -0.2062  0.2154
11358W        W28205  14.300   0.155  16.225  0.0888  0.0967 -0.1353
11359W        W28206  17.837  11.119   6.156  0.2168 -0.1662 -0.0674
11360W        W28207  18.052  15.131  14.308  0.0440  0.3494  0.0543
11361W        W28208  11.224  14.234   1.795 -0.0479 -0.1998  0.0547
11362W        W28209  14.413   4.533  12.487 -0.1525 -0.2013  0.0241
11363W        W28210  10.882  15.043  11.901 -0.2971  0.0893 -0.0165
11364W        W28211   2.310   6.344  14.783 -0.0251  0.1868  0.3493
11365W        W28212   0.398  16.198  12.079 -0.1235 -0.2998 -0.2915
11366W        W28213   1.054   9.804  16.246  0.0870 -0.0770  0.1019
11367W        W28214   5.625   4.366   5.231  0.1579  0.1187  0.0039
11368W        W28215   7.949   3.875  14.569 -0.0691 -0.0834 -0.1655
11369W        W28216  14.123  14.813  11.320  0.1530  0.0542 -0.1984
11370W        W28217   4.814   3.984  16.128 -0.2173 -0.1480 -0.0584
11371W        W28218   8.104   0.548   4.428 -0.0846 -0.1764  0.1306
11372W        W28219   2.135   8.712   3.339 -0.1172 -0.1906  0.1578
11373W        W28220   2.745   5.456  11.867  0.2595 -0.0199  0.0135
11374W        W28221   3.458   6.438   3.178  0.0932  0.1634 -0.0390
11375W        W28222   7.716  17.686  14.417  0.1282 -0.2321  0.0160
11376W        W28223   6.908  15.610   4.324  0.1833  0.3011 -0.1842
11377W        W28224  10.792  17.778  13.197 -0.2503  0.1665  0.0018
11378W        W28225  15.255  12.873   0.129  0.1678  0.1352  0.1822
11379W        W28226  10.634   0.021   1.492  0.1217  0.2042  0.3490
11380W        W28227  11.806   9.261   0.957 -0.0874  0.0076  0.2281
11381W        W28228  15.243  12.023  16.673 -0.4198  0.0891  0.3542
11382W        W28229   1.146   4.680  11.973 -0.0222  0.2588 -0.0608
11383W        W28230   5.368   8.947   0.559 -0.4475  0.0328 -0.0819
11384W        W28231  11.573   2.252   0.841  0.1334 -0.2350 -0.3488
11385W        W28232   3.349   6.593   2.635  0.0297 -0.0240  0.2827
11386W        W28233   5.638   2.750   1.663 -0.3490 -0.2189 -0.3442
11387W        W28234   8.410   6.126   0.088 -0.2155  0.3125  0.1055
11388W        W28235  15.238   3.974  16.323 -0.0122  0.1817  0.0598
11389W        W28236   5.301  17.029   2.591  0.0010 -0.1335  0.2868
11390W        W28237  12.610  12.949  12.489 -0.0332 -0.0761 -0.2375
11391W        W28238   8.774   4.912  15.871  0.2424 -0.2001  0.1322
11392W        W28239  13.203  17.423   5.168  0.0407  0.1327  0.0604
11393W        W28240  16.939   5.124   3.238  0.0911  0.2217  0.1124
11394W        W28241  14.222   9.093  14.945 -0.2739  0.1871 -0.0311
11395W        W28242  14.292  17.585   0.372 -0.0772 -0.0600 -0.0259
11396W        W28243   6.167   9.075  16.047 -0.3994  0.0833 -0.0907
11397W        W28244  13.301   5.337   2.993  0.0585 -0.0120  0.1576
11398W        W28245  16.155  10.570   3.005 -0.3943 -0.3144 -0.3214
11399W        W28246   9.460   0.844   1.830 -0.2489  0.1604 -0.0790
11400W        W28247   5.956   6.519  14.582  0.1579 -0.1869  0.0906
11401W        W28248   1.354   3.054  15.655  0.0189  0.1908 -0.2154
11402W        W28249   3.231   5.784   4.061 -0.3255  0.1657  0.0996
11403W        W28250   9.719   1.840   3.845  0.0949 -0.0693  0.1683
11404W        W28251   4.557   4.583  13.839  0.0340 -0.0264  0.0209
11405W        W28252   6.276   7.022   3.001 -0.0075 -0.0440 -0.1663
11406W        W28253  11.645  14.743  13.246  0.0232 -0.1070  0.1851
11407W        W28254  15.235  16.761  14.989 -0.2196  0.0525 -0.1053
11408W        W28255   9.644   3.045   6.087 -0.0856 -0.1812  0.2858
11409W        W28256   5.805   9.543   2.892 -0.1045  0.1729 -0.0043
11410W        W28257   6.966   0.960   1.815  0.3283  0.2155 -0.3264
11411W        W28258  13.754   5.614   4.496  0.0267  0.3741 -0.4087
11412W        W28259   0.877   0.938   3.910  0.1561 -0.1308  0.1266
11413W        W28260   7.224  16.083   3.486 -0.1127  0.0221 -0.0608
11414W        W28261   7.505   0.061   3.074  0.1706  0.3084  0.1216
11415W        W28262  17.658   0.929  15.004 -0.0194  0.1792 -0.0454
11416W        W28263   4.860  12.507  14.260  0.1255 -0.0173 -0.3250
11417W        W28264  12.081  12.245   1.750  0.2386 -0.1280  0.3939
11418W        W28265  12.539  13.346   4.558 -0.4001  0.2210 -0.3560
11419W        W28266   5.805   4.705  14.439 -0.0211  0.1134 -0.0389
11420W        W28267   8.218   6.730  15.868  0.1994 -0.0654 -0.0074
11421W        W28268   7.779  12.024   4.870  0.1073  0.1793 -0.0104
11422W        W28269   3.410   3.283  16.359 -0.0745 -0.3213  0.4075
11423W        W28270   9.413   2.929  11.436 -0.3254 -0.0677 -0.2785
11424W        W28271   1.722   9.132   0.231 -0.1948  0.0184 -0.1954
11425W        W28272  15.595   4.817   0.594  0.1259  0.1478 -0.2482
11426W        W28273  13.364   1.133  13.038  0.1005 -0.0315  0.2087
11427W        W28274   2.581  11.922  14.594 -0.0641  0.3339 -0.1805
11428W        W28275  16.816  13.429   2.907  0.2136  0.2000  0.3930
11429W        W28276   0.120   4.615  16.159  0.2241 -0.0662  0.0422
11430W        W28277  10.101  17.250  13.149 -0.1307 -0.1914  0.4846
11431W        W28278   7.432  11.520  16.086  0.0119  0.1108  0.0324
11432W        W28279  16.034  17.303   3.555  0.2321  0.0619  0.2326
11433W        W28280  10.528   6.032   2.665 -0.3413 -0.1628  0.0136
11434W        W28281  14.574   4.526   4.317 -0.0718  0.3009  0.1707
11435W        W28282  14.147  13.352   5.951  0.1727 -0.5585 -0.1286
11436W        W28283   7.353  16.280  14.428  0.2382 -0.0204  0.1463
11437W        W28284  14.261   1.434  12.904 -0.2388 -0.0865  0.4472
11438W        W28285  13.758   7.938   3.150 -0.0078 -0.1092 -0.1748
11439W        W28286  12.566  11.443  15.910 -0.0026 -0.1602 -0.2207
11440W        W28287  15.094   3.207  13.568  0.1096 -0.1546 -0.3694
11441W        W28288   4.935   5.685   3.103  0.2886  0.0566 -0.1089
11442W        W28289   3.328  10.560  14.281  0.5389  0.1657 -0.0441
11443W        W28290  12.509   5.408  13.990  0.1920  0.0955 -0.0634
11444W        W28291  16.411  11.943   0.647  0.0376  0.1215  0.1075
11445W        W28292   2.660   0.192   0.073  0.1210  0.0545 -0.0562
11446W        W28293  15.091  16.260   1.512 -0.0655 -0.2509  0.0759
11447W        W28294   2.185  15.568  11.659  0.1050 -0.0090 -0.0675
11448W        W28295   2.428   9.960  15.239  0.2122  0.0011 -0.1662
11449W        W28296  15.345   0.680   0.802 -0.1609  0.0615  0.3686
11450W        W28297  11.223   3.398   3.197  0.0246  0.0840 -0.1467
11451W        W28298  12.282  15.528   6.368 -0.1764 -0.1594  0.3066
11452W        W28299   5.192  10.202  12.601 -0.2852  0.0105 -0.0198
11453W        W28300   6.412   2.292   4.057 -0.0476  0.2636  0.1598
11454W        W28301  17.071   5.153  14.583  0.0391 -0.1758  0.1902
11455W        W28302  14.187   1.530  13.735 -0.0088 -0.0961 -0.1376
11456W        W28303  11.489  12.622   3.907 -0.0223 -0.0246  0.2020
11457W        W28304   3.649   1.003  13.082  0.0563 -0.0270  0.2323
11458W        W28305  13.434   0.554   0.647 -0.2819  0.2541 -0.2008
11459W        W28306   5.088  17.451  16.464 -0.2146  0.0937 -0.1632
11460W        W28307   3.007  15.466  14.847  0.0735 -0.2231 -0.3837
11461W        W28308  11.972   2.093   2.739  0.1838  0.0813  0.0206
11462W        W28309   8.178   0.166  12.718  0.0604 -0.1947  0.0984
11463W        W28310   6.653  10.831   2.419  0.1328  0.0976 -0.0167
11464W        W28311  15.759   0.648   5.149 -0.1300 -0.1314  0.1029
11465W        W28312   3.436  15.309   2.795 -0.2796 -0.3546 -0.1207
11466W        W28313  15.278   2.853   0.084  0.1421  0.0914  0.1064
11467W        W28314   2.666   5.974   2.481 -0.0090  0.1267 -0.0513
11468W        W28315  10.931   4.737   1.860  0.1701 -0.2092 -0.1516
11469W        W28316  15.323  16.245   2.530  0.0671  0.0382 -0.1325
11470W        W28317  11.235   2.234   5.043 -0.1753  0.1335  0.0162
11471W        W28318  17.332   0.465  15.190 -0.0086  0.0352 -0.0006
11472W        W28319   0.000   3.583   1.117  0.0074 -0.0378  0.3385
11473W        W28320   6.371   2.637  13.858 -0.0977  0.0852  0.0004
11474W        W28321   9.129   8.679  11.650  0.0575  0.2150  0.1200
11475W        W28322   1.083   0.070   3.215 -0.1289  0.3928 -0.0768
11476W        W28323   9.370  11.441  16.222 -0.3542 -0.1333  0.0406
11477W        W28324   7.540  13.037   0.208 -0.0670 -0.2112  0.0262
11478W        W28325  10.105   8.969   6.184 -0.0729  0.0781  0.0257
11479W        W28326   6.636  14.216   5.039 -0.0296  0.0654  0.1114
11480W        W28327  17.264   9.944  12.697 -0.1918 -0.0067 -0.2262
11481W        W28328   9.876   6.130  12.068  0.2016 -0.0659 -0.0174
11482W        W28329  11.933  15.592  14.792  0.0164 -0.0700 -0.1689
11483W        W28330  18.055   1.875   5.423  0.1389  0.2188 -0.2280
11484W        W28331   0.441   5.590   0.045  0.2493 -0.2044 -0.4858
11485W        W28332   2.272   5.782   6.010 -0.0713  0.4022  0.0365
11486W        W28333  12.035  10.130   3.110 -0.1583 -0.0297  0.0114
11487W        W28334   7.804   8.121   1.703  0.1358  0.1449  0.0226
11488W        W28335   7.895  16.848  12.813  0.0238  0.1217 -0.0200
11489W        W28336   7.004  17.925   0.534  0.0315  0.1344 -0.1102
11490W        W28337  16.448   1.533  14.913  0.1170  0.0593  0.0217
11491W        W28338   3.747  10.332   2.920  0.0959  0.1276 -0.1137
11492W        W28339   3.582  11.837   5.699 -0.1197  0.0026 -0.0328
11493W        W28340   7.345  13.453  15.274 -0.0195 -0.1637  0.1165
11494W        W28341   7.964   0.323  14.624  0.0672  0.0010 -0.0625
11495W        W28342   2.979   5.979  16.040  0.0968  0.1776 -0.1366
11496W        W28343   4.858  14.947   0.242  0.1802  0.0864 -0.1830
11497W        W28344   2.926   5.708  13.710  0.0008  0.1488  0.2663
11498W        W28345  17.868   0.529   5.693  0.2251 -0.2390 -0.1304
11499W        W28346  17.319  16.617  12.666  0.1143 -0.1280  0.0698
11500W        W28347  15.184   4.321  14.542 -0.3791  0.2566  0.1691
11501W        W28348  12.377  15.186   2.007 -0.1198  0.3573 -0.0488
11502W        W28349   6.627  16.286  13.527  0.0197 -0.0422  0.0227
11503W        W28350  14.146   3.487  13.262  0.2267  0.1068  0.1101
11504W        W28351  16.649   7.189  12.303 -0.0898  0.2068 -0.0150
11505W        W28352   7.618   3.269   4.223 -0.0953  0.0530  0.1810
11506W        W28353   9.365   0.291  14.110 -0.1113 -0.2264 -0.0421
11507W        W28354   4.617  15.884   5.428  0.0803 -0.1535  0.1429
11508W        W28355  17.535  15.635   2.250 -0.0518 -0.3934  0.0203
11509W        W28356  10.270   0.327  13.915  0.0901  0.0670  0.1572
11510W        W28357   3.580   7.389   2.814 -0.2060 -0.0462  0.0756
11511W        W28358   6.915  12.714  14.248  0.1764 -0.0505 -0.1498
11512W        W28359  15.631  13.196  14.716 -0.2156 -0.3713 -0.0922
11513W        W28360   5.868  16.013   4.037 -0.1002 -0.2520  0.2705
11514W        W28361  16.521  12.748   0.609  0.1829 -0.0635  0.0832
11515W        W28362   6.734  14.472  14.080  0.2498  0.1412  0.0333
11516W        W28363  10.858  14.150   3.382 -0.0953 -0.1214 -0.0406
11517W        W28364  13.025   8.331  15.240 -0.1274 -0.1860  0.0330
11518W        W28365   0.823   0.075   6.357 -0.0254  0.0663 -0.1098
11519W        W28366   0.410   9.899   3.940 -0.0141  0.0222 -0.1144
11520W        W28367   1.703   1.790   2.253  0.2937  0.1990 -0.1150
11521W        W28368   0.093   4.192   4.006 -0.3398 -0.1962 -0.0025
11522W        W28369  12.846   0.770   5.010  0.1464 -0.0700 -0.0818
11523W        W28370  15.426   4.412  14.082 -0.2166  0.1050  0.0450
11524W        W28371  15.382  11.169   0.402  0.0189 -0.2625  0.0685
11525W        W28372   2.655  11.620  13.807 -0.3507  0.3250 -0.0116
11526W        W28373   5.782  17.008  16.624 -0.2781  0.1573  0.1356
11527W        W28374   4.958   0.737   1.195  0.1555  0.1592 -0.3939
11528W        W28375  13.730  15.879  11.989 -0.0032  0.2170  0.3375
11529W        W28376   4.939   7.676  13.204  0.2492  0.0462 -0.1186
11530W        W28377   2.179  16.344   4.691 -0.1274 -0.0008 -0.1411
11531W        W28378   5.696   4.572   1.508  0.1910  0.3750  0.0602
11532W        W28379  16.473   8.431   4.774 -0.1197  0.1113  0.0775
11533W        W28380  11.574  16.476  11.480  0.0334 -0.2017  0.1406
11534W        W28381   7.102   3.009   1.341  0.0800  0.1004  0.2899
11535W        W28382  12.890  11.023  15.346  0.0369 -0.0124 -0.0568
11536W        W28383  15.080  14.534  15.496  0.0431  0.1332 -0.0736
11537W        W28384  11.287  15.594   1.998 -0.0398 -0.1995  0.0931
11538W        W28385   9.603  15.920  15.891  0.0200 -0.0902 -0.0393
11539W        W28386  10.515   1.389   0.567 -0.1014 -0.0871  0.1003
11540W        W28387   9.695   3.928   0.893  0.0555 -0.2088 -0.0022
11541W        W28388   6.704   9.220   3.931 -0.0173 -0.2962  0.0221
11542W        W28389   7.495  12.972   1.581 -0.0414  0.0047 -0.0010
11543W        W28390  15.891   6.548   0.627 -0.4386 -0.0820 -0.0443
11544W        W28391   4.061   1.692  15.965  0.2586  0.1902 -0.0217
11545W        W28392  16.312  16.425   0.985 -0.0293  0.1901  0.0231
11546W        W28393  11.618   4.327   2.157 -0.1769  0.0047  0.4111
11547W        W28394   8.112  15.602   4.597  0.4804  0.0413  0.0916
11548W        W28395  18.072   2.254   2.250  0.1746  0.2892  0.3829
11549W        W28396  10.072  17.531  12.168 -0.0545  0.1421 -0.0042
11550W        W28397   3.442   6.897  13.626 -0.0281 -0.4864  0.1983
11551W        W28398   2.548  16.359  12.808  0.2940 -0.0336 -0.0127
11552W        W28399   2.820  17.101   5.531  0.0804 -0.0802 -0.3546
11553W        W28400   3.031   5.393  13.355  0.2028  0.0253  0.1004
11554W        W28401   1.166  17.899   1.955 -0.3928 -0.1694  0.2827
11555W        W28402   9.437  10.276   0.754 -0.3672  0.3085 -0.4252
11556W        W28403   8.160  12.281  12.439 -0.0919 -0.1643  0.2877
11557W        W28404  16.147   4.868  14.568 -0.2352 -0.2210  0.0512
11558W        W28405  10.260  11.917  11.432 -0.0230 -0.3319 -0.1630
11559W        W28406  14.948   6.476  12.036  0.2334  0.2015 -0.1206
11560W        W28407  15.316   1.080   3.832  0.1422 -0.0846 -0.1852
11561W        W28408   8.001   7.385   5.446 -0.2297  0.2886 -0.3853
11562W        W28409   6.791   1.257  15.343  0.1156 -0.0035 -0.2068
11563W        W28410  15.486  10.006  14.834 -0.0654 -0.2622 -0.2303
11564W        W28411   7.365   6.969  11.543 -0.1212  0.0293  0.2196
11565W        W28412   2.083  12.120   0.221  0.2623  0.1468 -0.0705
11566W        W28413   5.946  14.074   2.224 -0.1532 -0.2069 -0.3605
11567W        W28414   9.703  10.062   0.295  0.0829  0.0199  0.2787
11568W        W28415   3.555  10.209   3.369  0.0815 -0.0973  0.0735
11569W        W28416  10.984   7.821   3.229  0.4367  0.2488  0.2395
11570W        W28417   9.366  15.466   5.356  0.0580  0.1475 -0.1376
11571W        W28418  16.883   9.031   6.048  0.0976  0.0434  0.1970
11572W        W28419   5.677   2.849   4.643 -0.2087 -0.2192 -0.1467
11573W        W28420   7.619   0.341   4.408 -0.2444 -0.1011 -0.0237
11574W        W28421   4.906  16.136   4.792 -0.0591  0.0286 -0.0329
11575W        W28422   9.268  12.061   1.683 -0.1272  0.1962  0.0530
11576W        W28423  12.642   6.031   3.851  0.1473  0.3250  0.0063
11577W        W28424  16.586   9.346  15.903 -0.1948 -0.2059  0.0720
11578W        W28425  15.394  10.553  13.963  0.1232 -0.0463  0.0731
11579W        W28426   6.907   2.833   2.182  0.2128  0.3625  0.3499
11580W        W28427  16.210   5.314   0.347 -0.1044  0.0095  0.1452
11581W        W28428   4.933  13.761  11.308 -0.1159  0.1173 -0.0291
11582W        W28429  10.573   1.008   1.356 -0.2592 -0.1760 -0.2708
11583W        W28430   5.034  11.794  11.807 -0.0256  0.3004 -0.0434
11584W        W28431   3.033  15.316  16.012  0.1189  0.0155  0.1168
11585W        W28432   4.524   7.552   3.741 -0.1399  0.0591 -0.0413
11586W        W28433  16.033  16.278   3.211  0.0227 -0.2437  0.4540
11587W        W28434   8.029  16.263  11.852  0.0855  0.1971 -0.2356
11588W        W28435  17.181   6.874   5.856  0.3303 -0.1582 -0.2577
11589W        W28436  17.609   2.199   3.741 -0.0769  0.0825 -0.1230
11590W        W28437   7.005   7.058   2.290  0.0479 -0.0352 -0.0348
11591W        W28438   1.374  13.072  11.924  0.0746  0.1030  0.3133
11592W        W28439   7.851  15.568  15.608 -0.1316  0.1494 -0.1310
11593W        W28440   5.954  14.755   2.574 -0.0422  0.1041 -0.0737
11594W        W28441   2.720  10.773   3.087  0.1554 -0.3061  0.1362
11595W        W28442  11.003   4.664  13.209  0.2573 -0.4280  0.1283
11596W        W28443   2.291  15.432  14.085 -0.0921  0.2914  0.0614
11597W        W28444   3.655   6.470  16.203 -0.1384  0.1218  0.1131
11598W        W28445   7.989   1.171   4.967  0.0247  0.1218  0.1676
11599W        W28446   8.680  11.224   1.206  0.2384 -0.3266  0.0437
11600W        W28447   4.033  15.036  15.890 -0.4031  0.0352  0.2118
11601W        W28448  10.580  17.494  12.870 -0.1945 -0.1171 -0.1317
11602W        W28449  14.074   3.057  15.198  0.1265  0.2557  0.0858
11603W        W28450  12.803   2.834   4.911  0.1422 -0.0105  0.0843
11604W        W28451  17.447   9.122   4.953 -0.1787  0.0398 -0.0094
11605W        W28452   2.471   5.134  16.587  0.1217  0.1055 -0.0112
11606W        W28453   5.107  16.049  15.876  0.2879  0.3887  0.2429
11607W        W28454   7.443  16.547   5.188  0.3687  0.4156 -0.0408
11608W        W28455  13.971   9.498   0.138 -0.0832  0.0932  0.0093
11609W        W28456  16.067   0.359   4.693 -0.0556  0.1651 -0.0885
11610W        W28457   4.611   7.753   4.687  0.3422  0.3191  0.2178
11611W        W28458  11.311  14.625   1.418 -0.0087  0.0679  0.0631
11612W        W28459  11.896  14.176  12.449 -0.3171  0.2809 -0.4532
11613W        W28460   9.703   4.351  14.704 -0.0054 -0.5845 -0.0973
11614W        W28461  15.118   2.792   0.572 -0.1775  0.1022  0.0733
11615W        W28462  14.329   2.232  12.598  0.2891  0.0547  0.1321
11616W        W28463   7.608   6.349   3.257  0.2327  0.0712  0.1589
11617W        W28464  10.942  17.308   2.150  0.1599  0.0906 -0.0393
11618W        W28465   9.010   4.008   1.770 -0.2055 -0.3661 -0.2297
11619W        W28466   1.642   4.766   1.976 -0.2236  0.0935 -0.0285
11620W        W28467  18.036   1.794   4.896  0.1409  0.0066 -0.0949
11621W        W28468  10.342  14.827  13.128  0.0740  0.0007 -0.0066
11622W        W28469   9.105  17.286  12.716  0.1597  0.1075 -0.0472
11623W        W28470  15.556   7.391   4.997  0.1211 -0.2933  0.4129
11624W        W28471   1.084   7.826  13.552 -0.3408 -0.3552 -0.4349
11625W        W28472  10.375   6.286  11.538  0.0602  0.0743  0.0055
11626W        W28473  16.574  11.098   2.011  0.0002  0.0552  0.0925
11627W        W28474   6.086   6.028  14.527  0.0158  0.0442 -0.0215
11628W        W28475   8.268   3.691   3.129  0.0061  0.0803 -0.1195
11629W        W28476   8.666  15.183  15.253  0.1491  0.3300 -0.1289
11630W        W28477   7.786  15.277   3.747  0.1060 -0.2525  0.0681
11631W        W28478   2.398  12.579   2.691  0.2299 -0.3385 -0.2799
11632W        W28479   8.421  10.511   2.954 -0.3738 -0.0498  0.1000
11633W        W28480  14.180   8.728   4.263  0.1033 -0.0294  0.3388
11634W        W28481  16.064   9.833  11.794 -0.3299 -0.3293 -0.3239
11635W        W28482  12.205  12.832  12.157  0.1194 -0.0107  0.0934
11636W        W28483   8.256  16.785  11.889 -0.0092 -0.0690 -0.2204
11637W        W28484  14.509   2.606   0.859 -0.1344 -0.0048 -0.3051
11638W        W28485   8.950   0.706   1.145  0.1638 -0.0749 -0.0169
11639W        W28486   1.537  17.507   3.737 -0.1306  0.0791  0.0377
11640W        W28487   8.809  15.385   2.004  0.5430  0.0732  0.1384
11641W        W28488  10.741   9.745   0.629 -0.3384  0.1714 -0.2527
11642W        W28489   1.032   4.836  13.881 -0.1753 -0.4021 -0.1414
11643W        W28490   6.434  10.108  12.807  0.2088 -0.1350  0.0186
11644W        W28491  17.750   6.688  15.610  0.1837 -0.0992 -0.1885
11645W        W28492  15.954   3.154  14.756  0.0622 -0.1036 -0.0592
11646W        W28493  15.559  11.433  15.626 -0.3111  0.0913  0.0210
11647W        W28494   5.543   4.020   0.267  0.0874  0.0406 -0.0663
11648W        W28495  15.745  16.527  14.813  0.0892 -0.1440  0.1495
11649W        W28496   8.100   0.589   1.774  0.2662  0.0185  0.0637
11650W        W28497   2.087   8.969   0.011  0.1910 -0.0783  0.0293
11651W        W28498   2.261   7.819   2.624 -0.1048  0.0156 -0.3165
11652W        W28499   6.778   1.831  11.494 -0.0186 -0.1067  0.2763
11653W        W28500   6.719  17.191  12.160  0.0096  0.1321  0.1054
11654W        W28501  13.600   9.914   4.258 -0.0123  0.2768  0.1300
11655W        W28502   3.609   9.539   0.339  0.2227  0.0382 -0.1217
11656W        W28503  14.482   5.617   0.796 -0.1877  0.1416  0.5600
11657W        W28504  13.769   1.880   3.969 -0.2909  0.1236 -0.0239
11658W        W28505  15.211  15.548  13.447  0.0908 -0.1084 -0.0216
11659W        W28506  17.494   6.295   1.293  0.2451 -0.4049  0.0088
11660W        W28507  13.247   4.337  13.214  0.0462  0.0041  0.3059
11661W        W28508  13.722   1.425   4.183  0.1683  0.0401 -0.0599
11662W        W28509   8.972   7.804   2.522  0.3857  0.2154 -0.0665
11663W        W28510   8.691  13.357   0.404  0.0074 -0.2042 -0.2432
11664W        W28511   0.434   1.270  12.006  0.4384 -0.0898  0.1143
11665W        W28512  11.109  17.604  12.055 -0.0430  0.0128 -0.1950
11666W        W28513  13.959   8.597  15.171  0.1153  0.1215  0.1383
11667W        W28514  12.073   4.440  13.120 -0.2056  0.0531 -0.0416
11668W        W28515  16.782  17.682   3.367  0.1599  0.2282  0.1242
11669W        W28516   0.335   7.958   2.744  0.0744  0.2491  0.0899
11670W        W28517   2.573  10.805   4.529  0.0666 -0.0869 -0.1754
11671W        W28518  11.041  10.329  12.799 -0.0426  0.1515  0.5015
11672W        W28519   4.191  16.726  12.452  0.0231  0.0602  0.0952
11673W        W28520   2.461   3.614   6.026  0.3349  0.6151  0.0538
11674W        W28521   5.578   3.741  15.441  0.0105  0.1988  0.3013
11675W        W28522  13.052   8.596  13.439  0.0857  0.0031 -0.2252
11676W        W28523   9.975  10.695  14.371  0.2371  0.1145 -0.0873
11677W        W28524  10.096  13.821   1.747 -0.1801 -0.1976  0.0210
11678W        W28525  17.374  10.455  15.571  0.2075  0.2184 -0.0795
11679W        W28526   3.156  13.532   3.285 -0.3489 -0.0849  0.1564
11680W        W28527   4.738   7.818   2.278 -0.1455 -0.0099  0.0874
11681W        W28528  12.505   1.745   3.992  0.2400  0.0433  0.0802
11682W        W28529  14.741   4.849  11.376 -0.0565  0.0807  0.0724
11683W        W28530  14.066   2.479  11.490 -0.0231 -0.0164  0.0384
11684W        W28531  18.024   1.780   3.765 -0.1246 -0.2603  0.3458
11685W        W28532  11.036   5.656  15.992  0.0693  0.1501  0.1672
11686W        W28533  11.106   0.021   4.324  0.2716  0.1351 -0.0810
11687W        W28534  16.685  12.533  15.100 -0.0701 -0.0221 -0.2244
11688W        W28535   8.886  11.912   4.034  0.0761 -0.1397 -0.1491
11689W        W28536   3.174  11.692   2.838 -0.2696  0.3153  0.0219
11690W        W28537  16.696   4.327   3.849 -0.0424  0.1821 -0.2680
11691W        W28538  12.835   1.096   0.086 -0.0545 -0.0637  0.0408
11692W        W28539   4.280   0.840   2.270 -0.0762 -0.1566 -0.2712
11693W        W28540  12.580  11.844  14.110  0.0711  0.0503 -0.1452
11694W        W28541   3.773  13.721   2.527  0.0525 -0.1193  0.1962
11695W        W28542  14.560   5.594  16.517 -0.2094  0.1663  0.1664
11696W        W28543  16.629  14.498  13.240  0.0342 -0.1885 -0.1365
11697W        W28544  11.602   7.880  11.598 -0.1037  0.1353  0.0657
11698W        W28545  17.461  14.113   1.742  0.0707  0.2265  0.1529
11699W        W28546   1.266   9.902  15.768 -0.1475 -0.1225  0.3599
11700W        W28547   7.244   4.432   5.078 -0.1572 -0.1054 -0.2647
11701W        W28548   0.639   9.644   3.613 -0.1998 -0.1083 -0.0590
11702W        W28549   0.526   2.806   2.813 -0.1395 -0.1976  0.0480
11703W        W28550  16.817   3.542   4.332 -0.0776  0.0545 -0.0285
11704W        W28551  17.710  15.247  15.796  0.2479 -0.0122 -0.0528
11705W        W28552   2.116   0.196  14.187 -0.3232 -0.0199 -0.1061
11706W        W28553   2.620   1.872  13.300  0.2128 -0.1393 -0.0833
11707W        W28554   5.624   0.076  11.296 -0.0104 -0.0849  0.1989
11708W        W28555   8.107  11.382  13.779  0.0663 -0.0490  0.1483
11709W        W28556   2.907   6.943   0.978 -0.0248 -0.0045  0.0127
11710W        W28557   0.317   2.896   1.758 -0.0298 -0.0802  0.1799
11711W        W28558   7.831   0.098   0.280 -0.1510  0.0980 -0.1089
11712W        W28559   4.610   9.205  14.114 -0.0519 -0.3256  0.1815
11713W        W28560   8.442   1.239   5.088 -0.0819 -0.3121 -0.1085
11714W        W28561   7.206  13.810   4.426 -0.2457  0.3417 -0.1101
11715W        W28562  10.412   1.264  13.629  0.0389  0.2101  0.4613
11716W        W28563   3.045  14.519   0.439  0.4558  0.0567 -0.0850
11717W        W28564  11.935  16.507  11.834  0.0235 -0.0405 -0.2746
11718W        W28565   7.885   8.337   0.780  0.1900 -0.0837 -0.0537
11719W        W28566   5.559  11.127   1.832 -0.0925  0.5003  0.0714
11720W        W28567   4.910   8.204  14.931 -0.2090  0.3195  0.0242
11721W        W28568   8.170   8.486   3.852 -0.2033 -0.0201 -0.2179
11722W        W28569   8.648  16.515  16.327  0.0489  0.1065 -0.1936
11723W        W28570   7.141   5.565   4.263 -0.0268  0.0304 -0.0091
11724W        W28571  14.350   4.656  11.699  0.4344 -0.1139 -0.0222
11725W        W28572   3.180   3.647  11.775  0.0444 -0.0812  0.1872
11726W        W28573   8.691   7.065   3.766  0.0112 -0.1315 -0.2479
11727W        W28574   3.006  12.437   2.213  0.2806 -0.0982  0.1151
11728W        W28575   2.127   3.495   0.143  0.1563  0.1482 -0.0416
11729W        W28576   6.848  12.246  13.997  0.0462  0.1684 -0.3639
11730W        W28577   3.499  14.993   6.447  0.0185  0.2554  0.3737
11731W        W28578   7.049   6.558  12.639  0.0538 -0.2061  0.1756
11732W        W28579   5.671   1.905   5.448 -0.0551  0.1411  0.0368
11733W        W28580  13.535   3.721   2.450 -0.0089  0.0749  0.0241
11734W        W28581   5.456   6.044   4.241 -0.1477  0.1387  0.1280
11735W        W28582   3.817  14.677   3.454 -0.1066 -0.0605 -0.0758
11736W        W28583   3.128   4.074  12.184 -0.0137  0.0775 -0.1354
11737W        W28584   7.026   3.371  12.393 -0.1667  0.3050  0.1730
11738W        W28585  14.795   4.785  12.755 -0.1316 -0.0332 -0.1843
11739W        W28586  10.195  15.019   5.751 -0.2833  0.0147  0.2169
11740W        W28587   1.383   8.424  11.892 -0.1505 -0.3430  0.3173
11741W        W28588   6.335   4.559  14.498  0.1282  0.1474 -0.1628
11742W        W28589   5.900   0.784   2.152 -0.3582 -0.0767 -0.1019
11743W        W28590   9.514   1.935   5.211 -0.0644 -0.1624 -0.1442
11744W        W28591   0.190   9.408  16.269  0.0910 -0.1027 -0.0782
11745W        W28592   9.815  12.944  12.041  0.0693 -0.0430  0.4745
11746W        W28593  13.501   3.970   2.898  0.0785 -0.1568 -0.2508
11747W        W28594  10.665   6.693  16.681  0.4019  0.0313 -0.0402
11748W        W28595  12.069   5.370   1.510 -0.1124  0.0676 -0.0346
11749W        W28596  10.144  14.636   1.683  0.1635 -0.0391  0.1949
11750W        W28597   2.156  12.848  15.209  0.2677 -0.1301  0.0762
11751W        W28598   3.509   8.962   3.159  0.5279  0.0551 -0.1241
11752W        W28599  14.685   7.728   5.153 -0.0199  0.3568 -0.2689
11753W        W28600  14.994  12.255  16.290 -0.0916  0.2091 -0.1391
11754W        W28601   7.123   3.575   1.059  0.1879 -0.0686  0.3253
11755W        W28602   0.868  15.857   3.844 -0.3911  0.0746  0.0777
11756W        W28603  17.158  15.137  15.972 -0.1719  0.2384  0.2573
11757W        W28604   3.558  13.206   0.906 -0.2650 -0.3090  0.0054
11758W        W28605   8.291  15.454   0.239  0.0124  0.1438 -0.3466
11759W        W28606   1.767   3.103   1.630 -0.2372  0.1712 -0.0377
11760W        W28607   3.818  13.818  13.902  0.0101 -0.0682 -0.2515
11761W        W28608   1.321   4.952  14.297  0.0877  0.1801 -0.0478
11762W        W28609  16.204   2.055  12.083  0.0647 -0.0415  0.0711
11763W        W28610  13.890  16.413  11.948 -0.1544 -0.0610 -0.0450
11764W        W28611  16.307   6.416  16.214 -0.1446  0.0569  0.0223
11765W        W28612  12.342   2.464   1.993  0.2498  0.0327  0.1649
11766W        W28613   8.581   7.544   0.727  0.1884  0.1938  0.2070
11767W        W28614  16.212  14.365   1.084 -0.0944  0.0087 -0.0472
11768W        W28615  13.158  11.329  13.631 -0.1201 -0.0241  0.0533
11769W        W28616  14.925   9.542  15.768 -0.0004 -0.1143 -0.0213
11770W        W28617   9.974  14.852   5.133 -0.0543 -0.1236 -0.0105
11771W        W28618  11.746   0.164  12.426 -0.0248  0.1496  0.0258
11772W        W28619   3.122   3.769  11.220 -0.1271 -0.1564  0.1085
11773W        W28620  18.055  17.359  12.557 -0.2310  0.0948  0.2880
11774W        W28621   6.259   0.740  11.556  0.2675 -0.2957  0.0718
11775W        W28622   6.474  12.356  13.625  0.3125  0.0951 -0.2136
11776W        W28623  18.007   3.184  15.442 -0.0014 -0.1630 -0.1109
11777W        W28624   8.297  10.563  13.938  0.0165 -0.1929  0.2653
11778W        W28625   9.566   3.831  15.495  0.0644  0.0224  0.0533
11779W        W28626   8.297  13.320   5.435 -0.0431 -0.0415 -0.1654
11780W        W28627  17.113  15.705  15.913  0.2115 -0.0142 -0.1734
11781W        W28628   7.910  16.897  13.298  0.0623 -0.1379 -0.1114
11782W        W28629   0.876  17.248   0.955 -0.0256  0.0813 -0.0550
11783W        W28630   9.873  13.378   4.909 -0.0848 -0.1533  0.1597
11784W        W28631   7.208   6.054   3.178 -0.2893  0.1738 -0.0087
11785W        W28632   8.709  10.214   0.184  0.0670 -0.3906 -0.0655
11786W        W28633  13.156  11.720   5.492  0.2020  0.0503 -0.3173
11787W        W28634  10.414  17.207   0.768  0.0429  0.2263  0.1305
11788W        W28635   7.480   9.689   1.420  0.0932  0.1640  0.1651
11789W        W28636   6.741   6.295   1.941  0.3206  0.0939  0.0957
11790W        W28637   4.407  13.148   2.225  0.0414 -0.1074  0.0677
11791W        W28638   5.085   1.424   0.048  0.1207  0.0867  0.0454
11792W        W28639   8.809   3.144   5.420  0.1607  0.0562 -0.4485
11793W        W28640  17.489  14.744   2.425  0.1468  0.0849 -0.0565
11794W        W28641   4.184   8.393  16.666  0.0727 -0.0394 -0.1906
11795W        W28642  13.427   6.352  12.948  0.2439  0.0854  0.2204
11796W        W28643   0.185  13.752   2.151 -0.2592 -0.2325 -0.1605
11797W        W28644  12.423  12.356  12.265  0.1803  0.0595  0.1495
11798W        W28645  16.486   7.057  12.805 -0.2184  0.1744  0.1819
11799W        W28646  17.605  10.780  14.050 -0.0628  0.2987  0.0598
11800W        W28647   9.713   0.498   3.670 -0.0387  0.0561 -0.0115
11801W        W28648  16.788  17.868   6.012  0.2040 -0.1758 -0.0756
11802W        W28649  15.193   4.015  12.418  0.0076  0.0073  0.0901
11803W        W28650  11.745   5.738   0.301 -0.0765  0.0946  0.1197
11804W        W28651   8.104   4.270  13.637  0.0010  0.0215  0.2053
11805W        W28652   3.441   5.601  13.083  0.1675 -0.1852  0.2092
11806W        W28653  12.679  10.511   4.078 -0.0159  0.0486 -0.0836
11807W        W28654   8.138  10.142   0.992  0.1797 -0.1959 -0.0219
11808W        W28655   2.285  14.176  13.241  0.0373 -0.0865 -0.2184
11809W        W28656  16.594   4.402  16.647 -0.0389 -0.0338 -0.1736
11810W        W28657   5.296  12.575  13.843 -0.0030 -0.2387  0.3015
11811W        W28658   1.530  13.758  12.767  0.0357  0.2667  0.2711
11812W        W28659  15.524   1.504  13.441 -0.1001  0.2790 -0.1527
11813W        W28660   9.997   2.196  15.708 -0.0342  0.0745  0.0931
11814W        W28661  12.010   4.921  13.004  0.0438  0.1448 -0.1734
11815W        W28662   9.214  10.136  12.381 -0.2200 -0.0560  0.1052
11816W        W28663  12.316  14.903  13.852 -0.1039 -0.0786  0.0376
11817W        W28664   7.177   9.387   3.996  0.0981 -0.0379  0.1715
11818W        W28665  13.015  13.758   1.314 -0.1463  0.2834 -0.1518
11819W        W28666  12.029  14.984   1.032 -0.1790 -0.0679 -0.0103
11820W        W28667   8.921   5.997   0.087  0.0379 -0.2060 -0.1398
11821W        W28668  10.042   9.716  13.625 -0.1504  0.0720  0.0315
11822W        W28669   8.764  16.320  14.240  0.1027  0.3345  0.1825
11823W        W28670   1.467   3.792  12.156 -0.0762 -0.3268  0.5014
11824W        W28671   5.030  17.817  14.887  0.0390  0.0095 -0.0712
11825W        W28672  17.545   1.741   0.815 -0.1062  0.4918  0.2515
11826W        W28673   7.142  13.232  16.243 -0.0348  0.1261  0.1226
11827W        W28674   5.154  10.503   1.643 -0.0916 -0.0340  0.0471
11828W        W28675  15.097  10.247   5.173  0.1748 -0.1324  0.0447
11829W        W28676   6.812   7.821  13.754  0.0679 -0.0343 -0.3865
11830W        W28677  11.505   1.273  14.634 -0.0449  0.2603 -0.4114
11831W        W28678   2.895   7.336   5.479 -0.1900  0.1431  0.1171
11832W        W28679   2.627  12.600   1.721  0.2347 -0.0612  0.5704
11833W        W28680  15.360  13.039  13.868 -0.0842 -0.0469  0.0919
11834W        W28681   5.235   4.074  15.379  0.0040 -0.0377  0.0848
11835W        W28682   7.120   7.668  16.491 -0.0242  0.1792  0.0262
11836W        W28683  14.605  14.174   4.344  0.1414 -0.1982  0.0656
11837W        W28684   0.378   6.234  14.436 -0.0941  0.0474 -0.0540
11838W        W28685   9.568  10.439   1.659  0.0036 -0.1671 -0.0295
11839W        W28686   0.957   8.873   3.084  0.1727 -0.0067  0.0463
11840W        W28687  16.902   0.103   3.484 -0.1677  0.1560  0.0154
11841W        W28688  13.468   9.467   4.103 -0.1440  0.1368 -0.0711
11842W        W28689   2.536  10.454  12.326  0.2019  0.1213  0.1782
11843W        W28690   2.464  15.958  14.234  0.1042  0.3889 -0.0812
11844W        W28691  13.520  16.796  16.274  0.0424 -0.1043  0.1032
11845W        W28692  11.582  12.014   5.229  0.0582  0.0858  0.2271
11846W        W28693  14.412  15.834   4.530  0.2001  0.3551 -0.1113
11847W        W28694  15.165  10.529   4.812  0.1478  0.0929 -0.0651
11848W        W28695   3.421   6.118   2.787 -0.0120 -0.0224  0.0022
11849W        W28696  16.644   2.488  10.670  0.1402 -0.1530  0.3012
11850W        W28697  16.596  16.711  15.669  0.0933 -0.0979 -0.0272
11851W        W28698   1.610  13.627   5.477  0.0288 -0.1041 -0.0067
11852W        W28699  14.832   8.671  15.360  0.0321  0.0900  0.0594
11853W        W28700  16.720   2.025   3.659  0.1416 -0.1147 -0.1052
11854W        W28701   7.634   0.632  14.832 -0.0079  0.1245  0.1419
11855W        W28702  10.380  15.798  12.923 -0.0235 -0.0767  0.0667
11856W        W28703  17.238   9.169  16.391  0.1028  0.1763 -0.0620
11857W        W28704  16.968   3.219  12.304 -0.2375 -0.0990 -0.2820
11858W        W28705  11.982  13.895  11.791 -0.1695  0.1853 -0.2247
11859W        W28706  16.346   0.037   1.575 -0.2561 -0.0575 -0.1645
11860W        W28707  12.937  15.736   0.532  0.0140 -0.1344  0.1303
11861W        W28708   6.240   3.354   2.366  0.2803  0.0550 -0.3534
11862W        W28709   1.567  10.980   3.159  0.2417 -0.0290  0.1233
11863W        W28710   8.260   3.454  14.026 -0.4009 -0.0985  0.0529
11864W        W28711  10.511  14.985   3.957  0.0519 -0.0048 -0.1657
11865W        W28712  15.631   2.541   3.122  0.0889 -0.0594  0.1482
11866W        W28713  17.363   4.122  12.249  0.0667  0.2345 -0.2960
11867W        W28714   6.887   8.828  13.841  0.1300  0.1096 -0.0891
11868W        W28715   0.845  14.655  16.026  0.2684 -0.0555  0.1653
11869W        W28716   5.001   6.484   4.805 -0.1382 -0.0067  0.0685
11870W        W28717   5.934  10.798  12.228 -0.0319 -0.2657  0.0887
11871W        W28718  16.705  17.511   0.245  0.2720  0.3368 -0.1119
11872W        W28719  14.378  14.193   2.682 -0.1283 -0.1792  0.0079
11873W        W28720   9.767   3.350  14.232  0.1536 -0.1078  0.1864
11874W        W28721  10.801   7.294   4.605 -0.1405 -0.2612  0.1187
11875W        W28722  11.335  17.038  11.602  0.2176  0.0644  0.0339
11876W        W28723   6.869  12.982   2.360  0.0655  0.1219  0.0637
11877W        W28724   8.163   9.869  15.267 -0.0385  0.3484 -0.1885
11878W        W28725  17.827   6.928  16.487  0.0105  0.1106 -0.1908
11879W        W28726   9.648   1.378  14.161 -0.3463  0.0421 -0.0925
11880W        W28727   9.048   1.905  11.371  0.3305  0.0128  0.2154
11881W        W28728   3.558   0.861   1.514 -0.2365  0.1167 -0.0297
11882W        W28729  16.976  17.631   3.874 -0.3122  0.0223 -0.0608
11883W        W28730   5.431  17.302  15.172  0.0271 -0.0786  0.0878
11884W        W28731   9.889  14.246   1.400 -0.1502  0.1009 -0.1271
11885W        W28732   2.303   8.563  11.859 -0.2123  0.1084  0.1088
11886W        W28733  11.288  16.254  15.769  0.1698  0.1299 -0.1702
11887W        W28734  14.725  14.836  12.094  0.0182 -0.0918  0.1906
11888W        W28735  16.095   3.285  16.262 -0.0819 -0.0694 -0.1401
11889W        W28736  11.660   8.787   2.209  0.2019  0.0474  0.1541
11890W        W28737  15.661   1.648  12.885  0.0669  0.1202  0.0233
11891W        W28738  14.881   1.834   3.456  0.2993  0.4288 -0.2556
11892W        W28739   3.622   7.487   0.106 -0.2398  0.1336 -0.0922
11893W        W28740  14.336  14.617  12.348  0.1027  0.1835  0.0068
11894W        W28741  15.429  12.005   4.452  0.3138 -0.2863  0.1875
11895W        W28742  12.064   7.674   3.854 -0.0159 -0.1273 -0.0109
11896W        W28743   9.799   6.225  14.288 -0.0479  0.1541  0.0532
11897W        W28744  10.836   6.917   0.469 -0.0314  0.0146 -0.0928
11898W        W28745   3.184   2.797  15.957 -0.0930  0.2252  0.5970
11899W        W28746  15.430  10.509   3.246  0.3188 -0.1234  0.1065
11900W        W28747   6.316  11.607  12.079 -0.0508  0.3069  0.1114
11901W        W28748   0.330   0.486  11.661 -0.0084  0.1027  0.3966
11902W        W28749  10.173   6.458   0.231  0.1698 -0.2457  0.3627
11903W        W28750  14.666  17.548  15.715 -0.0106 -0.0284  0.0326
11904W        W28751   0.349  10.635  11.686  0.0992  0.0215  0.0604
11905W        W28752   2.201   1.722  16.397  0.0720 -0.1259 -0.0222
11906W        W28753   2.975  15.286  13.478 -0.1073  0.0553 -0.1374
11907W        W28754   9.148   1.397  11.682 -0.1394 -0.0588  0.3476
11908W        W28755   8.900  12.952   0.661 -0.2856 -0.0369 -0.0875
11909W        W28756  13.295   1.779   5.628 -0.0491  0.0927 -0.1822
11910W        W28757   9.860   6.305   4.243  0.1585 -0.1055 -0.3208
11911W        W28758   5.205   3.079  16.118  0.2251  0.2218  0.3831
11912W        W28759   9.444  14.551   3.539 -0.1752 -0.1305 -0.0514
11913W        W28760  13.058   5.835  14.987 -0.1746  0.2306  0.0696
11914W        W28761  14.962  12.836   0.599  0.2769 -0.3546 -0.2806
11915W        W28762   9.195  14.591  13.427 -0.2573 -0.0082  0.0104
11916W        W28763   6.046   9.059  15.337 -0.0317  0.0097 -0.0500
11917W        W28764   3.661  16.489  12.379  0.3125 -0.0681 -0.1090
11918W        W28765   8.617  17.844  12.538  0.2050  0.2042  0.2463
11919W        W28766   6.264   2.998   5.457  0.4242  0.1510 -0.2013
11920W        W28767   5.935  14.643  16.252 -0.0517 -0.2738 -0.0225
11921W        W28768  17.254   8.039   4.970 -0.3882 -0.0146 -0.1856
11922W        W28769  10.203  15.178   4.349  0.0057  0.0124  0.0905
11923W        W28770  14.863  16.306   2.503  0.0707  0.0447  0.2423
11924W        W28771   3.211   3.670  13.286  0.1760  0.2010 -0.0059
11925W        W28772  17.087   4.108  15.533 -0.0370 -0.2724  0.2411
11926W        W28773   9.184  13.856  12.783 -0.2167  0.3242 -0.0587
11927W        W28774  16.405  12.934  15.928 -0.1539 -0.0547 -0.0293
11928W        W28775   0.828  11.028  14.381  0.0337 -0.1284 -0.2972
11929W        W28776   1.586   4.260  13.268 -0.0230  0.0502 -0.1690
11930W        W28777   7.553  16.059  16.617 -0.3064  0.1277 -0.2600
11931W        W28778  10.068   7.433   1.605  0.4236  0.3225  0.1648
11932W        W28779   5.351  13.868  14.666  0.2188  0.2364 -0.4502
11933W        W28780   3.923   3.887   4.912 -0.1268 -0.2873 -0.0860
11934W        W28781   6.350  16.626   1.443 -0.1504 -0.3695 -0.0146
11935W        W28782   1.422   7.440   3.277  0.0124 -0.1394  0.1580
11936W        W28783  10.116   3.630  13.014  0.1443  0.1809 -0.2246
11937W        W28784  12.726   4.998   5.404 -0.1854 -0.0264 -0.2979
11938W        W28785  11.132   7.948   2.668  0.1310  0.0579  0.1859
11939W        W28786   9.858  13.684   2.167  0.0819 -0.1261 -0.1113
11940W        W28787   3.855   1.856  13.678  0.0353 -0.3288 -0.0764
11941W        W28788   0.985   2.802   5.474  0.0257  0.1534 -0.0627
11942W        W28789   5.225   3.199   6.005 -0.2395 -0.1853  0.1704
11943W        W28790   5.805  17.037  14.134  0.2480 -0.2540  0.2097
11944W        W28791   4.603   6.524  14.073  0.1927 -0.0868  0.0030
11945W        W28792  10.246   6.264   3.922 -0.1098 -0.4288 -0.1174
11946W        W28793   8.545   6.563   2.959 -0.0707  0.2844  0.3774
11947W        W28794   9.191  16.394  12.635 -0.1998  0.0703 -0.0462
11948W        W28795   1.455   0.852   3.961 -0.1338  0.1045 -0.0298
11949W        W28796   7.442   1.697   1.730  0.1498  0.2932  0.0175
11950W        W28797   5.011   3.767   3.147  0.2174 -0.0334 -0.0200
11951W        W28798   7.039   5.057  14.088 -0.0712 -0.1338 -0.2091
11952W        W28799   7.976   6.306  14.915 -0.0381  0.2253  0.2673
11953W        W28800  12.650   2.076  13.651 -0.1003 -0.0928 -0.2745
11954W        W28801  15.869  12.621   3.483 -0.0072  0.3855 -0.0403
11955W        W28802  14.093  10.493  14.210  0.4758  0.1104 -0.3225
11956W        W28803   9.633  16.107   0.509 -0.0806 -0.1423  0.3577
11957W        W28804   3.446   8.137   1.382  0.1791  0.0496 -0.0112
11958W        W28805  14.143   9.574   5.902 -0.2317 -0.1607 -0.1559
11959W        W28806  11.279   3.268   4.068 -0.0911 -0.1449 -0.0902
11960W        W28807   0.816  13.784  16.122  0.1397  0.1215  0.1214
11961W        W28808  11.361  16.927  13.775  0.1267 -0.3161  0.2482
11962W        W28809  16.446   5.179   3.271  0.1239 -0.1006  0.0388
11963W        W28810   9.192   6.205   4.946 -0.2785  0.5778 -0.0395
11964W        W28811  14.437   0.885   1.410  0.0400 -0.1221 -0.0399
11965W        W28812   3.863  16.003   1.121 -0.0479 -0.3107  0.0211
11966W        W28813   5.824  10.090   0.024  0.2051  0.2131  0.1398
11967W        W28814   0.372   3.271   4.746 -0.1343 -0.3418  0.0994
11968W        W28815   0.795   2.667  13.158 -0.0067 -0.0992  0.1925
11969W        W28816   2.397   5.673  14.910 -0.1298  0.0317  0.2327
11970W        W28817   7.479  17.993   0.596 -0.3024  0.2322  0.0076
11971W        W28818   6.098  17.849  15.202 -0.4739 -0.3597  0.1299
11972W        W28819   8.480   3.680   2.613  0.1485 -0.0187 -0.1082
11973W        W28820  15.548   2.538  13.602  0.2181 -0.0988 -0.0143
11974W        W28821  10.020   3.368   0.450  0.1058 -0.0546  0.0709
11975W        W28822   2.806  15.588   0.477  0.2444  0.1233  0.0359
11976W        W28823  16.396  13.230  12.711 -0.0854 -0.1376  0.2734
11977W        W28824  13.387   0.536  14.214  0.0232  0.2286 -0.0687
11978W        W28825  16.458   5.713  15.992 -0.0144  0.1164 -0.2392
11979W        W28826  15.553   0.289  11.207  0.1831 -0.1768  0.0149
11980W        W28827  13.099   9.756   4.425 -0.4233  0.0292  0.5111
11981W        W28828   2.660  16.126   4.008 -0.0352  0.1216 -0.1062
11982W        W28829  10.097  10.713   1.667 -0.0758 -0.2350  0.1316
11983W        W28830   2.344   0.533   4.435 -0.0995 -0.1505  0.1555
11984W        W28831   5.840   5.384   1.158  0.0310 -0.0789 -0.1472
11985W        W28832  12.570  17.931   2.596 -0.2175 -0.1842  0.0125
11986W        W28833  12.545   6.717  12.316 -0.3233 -0.0049 -0.1537
11987W        W28834  11.860  11.245   0.004 -0.2914  0.0623  0.0011
11988W        W28835  14.117   4.227  13.995 -0.0292  0.0764 -0.0389
11989W        W28836   8.780  10.118   0.640  0.3248  0.1819 -0.0545
11990W        W28837  15.774  15.345   2.321  0.2204 -0.0995 -0.0236
11991W        W28838  14.716  13.244  13.692  0.1188  0.2667 -0.0013
11992W        W28839  15.301  14.583  16.352  0.1005 -0.1216 -0.0115
11993W        W28840   9.004   2.314  14.676  0.4227 -0.0259 -0.1261
11994W        W28841  13.434  15.459   0.432 -0.1702  0.1407  0.3526
11995W        W28842   8.775   8.731   3.130  0.0997  0.2714 -0.1294
11996W        W28843  13.041   5.623   0.140 -0.2256  0.0773  0.0843
11997W        W28844   5.046   5.582   2.148 -0.4864 -0.0174  0.0564
11998W        W28845   1.029  14.957  15.527 -0.1103  0.2533  0.2727
11999W        W28846  11.172   2.555  11.910  0.3539  0.2491  0.0943
12000W        W28847   2.201   0.895   3.658  0.1071 -0.0168 -0.3538
12001W        W28848   7.334  17.443   3.358 -0.2192  0.1205 -0.2121
12002W        W28849  15.665  14.145  12.026  0.0998 -0.0077 -0.2062
12003W        W28850   5.450  14.284  13.827  0.2332  0.0261  0.0849
12004W        W28851  15.478  14.930   4.063  0.2628  0.1719  0.1570
12005W        W28852   5.944  10.969  11.439  0.0923 -0.0651  0.1757
12006W        W28853   0.682  11.270  12.443 -0.0508  0.0492  0.2654
12007W        W28854  15.655   1.016   1.450 -0.1188  0.3123 -0.2049
12008W        W28855  14.341  12.357  10.575 -0.3476  0.1084 -0.0032
12009W        W28856  15.860   9.400  14.754 -0.3410 -0.1335 -0.2353
12010W        W28857  14.099   6.630  11.906 -0.1068 -0.2188  0.2292
12011W        W28858  17.294  16.294   4.393 -0.4717 -0.0686  0.1118
12012W        W28859  14.357   2.913  11.406  0.0672 -0.0436 -0.0199
12013W        W28860   8.145  14.642   3.860 -0.6069 -0.2221 -0.0813
12014W        W28861   5.721   0.089   4.748 -0.0399 -0.1101 -0.2349
12015W        W28862  14.497  15.164   5.085  0.1499  0.2315 -0.1328
12016W        W28863  11.738   3.163   0.568  0.0855  0.0609  0.1535
12017W        W28864   3.139   1.482   4.750  0.3154  0.0718  0.0266
12018W        W28865  15.211   7.447  13.921 -0.1086 -0.2540  0.1161
12019W        W28866   1.756   0.596   3.686  0.1968  0.3742  0.1786
12020W        W28867  11.221   7.260  14.047  0.0562  0.2451  0.0546
12021W        W28868   3.752  11.363   5.739 -0.0884 -0.2852  0.0132
12022W        W28869  12.433  15.651   2.854  0.0458  0.1572  0.1415
12023W        W28870  17.839  10.986   0.960  0.1018 -0.1703  0.1356
12024W        W28871  16.456   4.914   0.113  0.2438  0.1788  0.1045
12025W        W28872   6.420   8.222   3.780  0.1671  0.0401 -0.3407
12026W        W28873   2.051  18.013   1.651  0.0506  0.1149  0.0495
12027W        W28874  14.224  17.527  14.966  0.0488  0.1968 -0.0295
12028W        W28875  12.652  11.758   0.696 -0.1395 -0.0132 -0.2902
12029W        W28876   2.130  15.048   1.908 -0.1915  0.1176 -0.0496
12030W        W28877  17.988   3.842  15.981 -0.0166  0.0209 -0.1499
12031W        W28878  12.240  15.168  11.425 -0.0265  0.4137 -0.1986
12032W        W28879   0.875   0.423  16.053  0.2515 -0.1116  0.0898
12033W        W28880  14.443   7.320  14.371 -0.0783  0.0641 -0.1320
12034W        W28881   7.766  17.764   3.294  0.1230  0.0393  0.4040
12035W        W28882   2.591   0.123  12.697 -0.1963 -0.0998 -0.1707
12036W        W28883   8.949   2.863   2.463 -0.1673 -0.0219  0.1232
12037W        W28884   7.620   2.946  11.863 -0.0434 -0.0805  0.0902
12038W        W28885  13.746   8.304  11.929  0.2081 -0.2467  0.1481
12039W        W28886  16.613   0.225   0.773 -0.2994  0.1208 -0.0341
12040W        W28887  12.168   1.663  15.449 -0.0959 -0.0966  0.0601
12041W        W28888  12.651  14.748  14.776 -0.1503  0.2721  0.1061
12042W        W28889   5.016   8.416   4.073  0.0667  0.0387  0.1498
12043W        W28890   0.057   3.945  11.820  0.3604 -0.3771  0.0435
12044W        W28891  16.228   0.415   5.291 -0.1324 -0.0651 -0.2319
12045W        W28892   8.477  15.405  11.844 -0.0125  0.0232  0.0116
12046W        W28893   7.705   2.348   5.555 -0.2448 -0.0803  0.1070
12047W        W28894   0.922  14.032  15.616  0.0019  0.1594  0.1077
12048W        W28895   0.256  13.156   2.604 -0.0877 -0.1099  0.3855
12049W        W28896  14.443  14.669   1.991 -0.0716 -0.2901 -0.0864
12050W        W28897   6.213   1.049  12.111 -0.2006 -0.3734  0.4142
12051W        W28898  14.802   1.121   1.704 -0.1560  0.0716 -0.1090
12052W        W28899  10.181  10.514   3.186 -0.0750  0.1979 -0.1703
12053W        W28900  17.598   3.975  13.913  0.0953  0.0576 -0.1020
12054W        W28901   9.044  12.216  12.175 -0.1219  0.1465 -0.0621
12055W        W28902  10.891   9.635   4.872  0.2783  0.0916 -0.1668
12056W        W28903  10.258  12.555   3.087 -0.0130 -0.3006 -0.0012
12057W        W28904   9.767  17.300   4.638  0.1479  0.2699 -0.2251
12058W        W28905   3.794  18.062   0.193 -0.1581  0.1723 -0.1131
12059W        W28906   7.759   1.525  15.154 -0.0469 -0.4524  0.0139
12060W        W28907   2.657  10.319   5.165 -0.1420 -0.2232  0.0349
12061W        W28908   6.855  12.048  14.867  0.2097 -0.3050 -0.0412
12062W        W28909   5.808  12.123   5.970  0.1778  0.0458 -0.1125
12063W        W28910   2.097   8.822  14.445  0.0484  0.0535 -0.0369
12064W        W28911   9.275   1.580   4.897  0.0718  0.0962 -0.0083
12065W        W28912  18.045  10.964   5.289 -0.2572 -0.1433  0.0175
12066W        W28913   5.332  11.505  13.588 -0.3546  0.5132 -0.0371
12067W        W28914   8.814  11.394   4.079 -0.1643 -0.1635  0.1934
12068W        W28915  10.768   0.408  14.095 -0.1372  0.0226 -0.0445
12069W        W28916  12.441  17.077   3.033 -0.2159 -0.0985  0.0713
12070W        W28917   5.021  11.632  15.819  0.1161  0.0809 -0.0373
12071W        W28918  10.860  11.545   0.117  0.4117  0.2561 -0.0993
12072W        W28919  10.913   7.044   5.253 -0.2268 -0.0144  0.4042
12073W        W28920  16.072  11.698  14.828 -0.0085 -0.2097  0.0953
12074W        W28921   1.125  11.257   1.086 -0.0790 -0.1033 -0.1067
12075W        W28922   9.934   2.954   0.732 -0.0505  0.3020 -0.2905
12076W        W28923   2.980   1.889   5.609 -0.2766 -0.2113 -0.0304
12077W        W28924   9.121  11.778   1.263  0.0656 -0.2751  0.2143
12078W        W28925  14.374   5.781  14.367  0.1000 -0.2353 -0.0564
12079W        W28926  14.940  16.164  12.666 -0.0779  0.1431  0.3086
12080W        W28927  10.960  15.478   4.783 -0.0638  0.0012  0.1095
12081W        W28928  17.598  16.482   0.581 -0.1517 -0.3372  0.2441
12082W        W28929  14.415  12.256   4.365  0.0583  0.0924  0.1968
12083W        W28930  15.039  13.290  14.178  0.0520 -0.1083  0.0502
12084W        W28931   3.265  10.346  14.722  0.0897 -0.2061  0.2162
12085W        W28932   9.583  16.823  16.451  0.0545 -0.1569 -0.1738
12086W        W28933  18.066   1.953  15.317 -0.1378  0.2710  0.2718
12087W        W28934  13.773   8.617  15.630 -0.1462  0.2752  0.1703
12088W        W28935   5.624   6.631   2.047 -0.4226  0.1019 -0.2066
12089W        W28936   2.954  14.695  16.629 -0.0396 -0.3320 -0.1349
12090W        W28937   0.580  16.711  15.987 -0.0566  0.0369  0.0972
12091W        W28938   0.841  12.979   3.231  0.0693 -0.0098  0.0490
12092W        W28939   1.737   5.772  12.399 -0.1087  0.0586 -0.0490
12093W        W28940  17.148   3.701   3.040  0.0698  0.1188 -0.1225
12094W        W28941   9.929  17.314  16.652 -0.2788 -0.0892  0.0662
12095W        W28942   5.954  11.286  14.315  0.0465  0.3298  0.0793
12096W        W28943  11.339   8.549   0.507 -0.0085 -0.0552  0.3100
12097W        W28944  13.290  13.911   2.051  0.1796 -0.0956  0.1882
12098W        W28945   3.944   9.814   4.968 -0.3039  0.0568  0.2508
12099W        W28946   0.789   0.772   4.444  0.0531  0.2635 -0.2448
12100W        W28947  11.732  10.520   0.425 -0.2396  0.3527 -0.0854
12101W        W28948   4.233   8.548  16.059 -0.1481  0.0203  0.0380
12102W        W28949   0.746  12.078   2.356 -0.0302  0.0092  0.3531
12103W        W28950   2.175   0.669  11.986  0.1862 -0.0035  0.0427
12104W        W28951  14.409  16.786  10.018 -0.2610  0.0632  0.2550
12105W        W28952  14.866  11.553   5.843  0.1098 -0.2586  0.1097
12106W        W28953   1.706   7.622  14.588 -0.0114 -0.1373 -0.3359
12107W        W28954   4.154   2.993  16.553 -0.1783 -0.0875  0.1037
12108W        W28955   4.955   7.619   2.702 -0.0588  0.0339  0.0090
12109W        W28956   3.773  11.933   2.189  0.1414 -0.0712  0.0356
12110W        W28957   8.682   3.455   3.732  0.0307 -0.0514  0.0085
12111W        W28958  14.183   9.921   3.623 -0.0850 -0.2217  0.1940
12112W        W28959  10.434  14.123  12.404 -0.0268  0.0303 -0.0698
12113W        W28960  17.178  17.528   2.872 -0.0588 -0.1820 -0.0998
12114W        W28961   8.734  10.233  12.190  0.0593 -0.0982 -0.2961
12115W        W28962  14.957   0.640  16.326 -0.3727 -0.4020 -0.1180
12116W        W28963  11.052  17.690   3.916 -0.4014  0.2198  0.1686
12117W        W28964   5.826  13.794   1.123 -0.1684  0.1063  0.4538
12118W        W28965   8.616   3.134  11.843 -0.0939 -0.0800  0.0317
12119W        W28966   3.002  13.089  15.464  0.0529  0.0809  0.3634
12120W        W28967   9.493  12.530   2.645  0.2159 -0.1563 -0.0173
12121W        W28968  12.952  11.658   4.636 -0.1253  0.1156  0.0707
12122W        W28969   5.543   2.830   3.043 -0.0947  0.0115  0.1494
12123W        W28970  13.664   6.739   0.891 -0.0889  0.1248 -0.2590
12124W        W28971  14.208   0.032   2.435  0.2095 -0.2194  0.0227
12125W        W28972   6.558   7.994   5.452  0.0516  0.4087 -0.0136
12126W        W28973  10.317  17.508  11.038  0.0402  0.1813  0.1022
12127W        W28974  12.298  17.678  14.474 -0.1859 -0.0993 -0.2637
12128W        W28975   4.552   1.841   0.840  0.1681  0.0712  0.2418
12129W        W28976   0.068   5.778  15.853 -0.2168 -0.1769  0.1554
12130W        W28977   6.780  12.930   2.905  0.0062 -0.2056  0.1788
12131W        W28978  11.962   6.158  13.203  0.3394  0.1568  0.0366
12132W        W28979   4.472  11.214  14.603 -0.0685 -0.0217  0.2643
12133W        W28980  12.905  12.214  12.112 -0.0181  0.1367 -0.2009
12134W        W28981  16.454  13.677   0.535  0.1407  0.0127  0.1600
12135W        W28982  17.720   2.539  12.173 -0.3453 -0.3201 -0.2060
12136W        W28983  17.650  17.786   1.907 -0.0482  0.1321  0.0255
12137W        W28984   6.063   4.934   0.303  0.0199  0.1258 -0.2124
12138W        W28985   8.973  17.864  14.295 -0.2644 -0.1413  0.0173
12139W        W28986  12.303   2.069   3.640 -0.0099  0.2217 -0.1328
12140W        W28987   0.869   6.673   0.427  0.2078  0.1831  0.2389
12141W        W28988   4.915   1.660  15.594 -0.3281  0.1339 -0.1761
12142W        W28989   6.688  14.302   5.915 -0.1544 -0.0584 -0.1066
12143W        W28990   3.942   9.568  11.729  0.2833  0.1236  0.1672
12144W        W28991   6.924   9.297  14.146  0.2370 -0.0607 -0.2583
12145W        W28992   3.668   2.787  15.193  0.2621 -0.0594 -0.0059
12146W        W28993  10.669  14.897   1.108 -0.0390  0.2245 -0.0236
12147W        W28994   3.627  16.893  12.696  0.3449 -0.2492  0.0346
12148W        W28995  11.786   7.807  14.745 -0.0187 -0.0112  0.0916
12149W        W28996   7.300   7.285   0.063 -0.1799  0.0840 -0.0743
12150W        W28997   9.061   3.644   3.413  0.1304  0.2972  0.0444
12151W        W28998   0.762   1.669  16.404  0.0946  0.0222 -0.0547
12152W        W28999   3.142  17.525  13.880 -0.0860 -0.0478 -0.0619
12153W        W29000   0.480   6.997  15.081 -0.1528  0.3621  0.1717
12154W        W29001  16.476   8.553   1.639  0.1712 -0.1147  0.2302
12155W        W29002   0.457   9.820  13.119 -0.0131 -0.2477  0.1896
12156W        W29003   6.292   0.239   5.582 -0.1763 -0.1074  0.2329
12157W        W29004   8.594  15.118  12.749 -0.2862 -0.2208  0.1651
12158W        W29005  14.823   1.051   3.624 -0.0586 -0.1413  0.2528
12159W        W29006  16.592  12.406  12.580 -0.0314 -0.3680 -0.0094
12160W        W29007   9.989   3.794   3.515 -0.0602 -0.0470 -0.4407
12161W        W29008   3.687  13.908   4.585  0.4613 -0.1214  0.0101
12162W        W29009  10.687   4.130  12.419 -0.2323  0.3611  0.1502
12163W        W29010   4.292   6.640  16.492  0.1352  0.0421  0.0791
12164W        W29011  10.590   3.725  13.319  0.0383 -0.1070  0.2721
12165W        W29012   3.945  11.498  13.413 -0.0320 -0.2763 -0.4515
12166W        W29013  13.297   8.205   1.942  0.1911  0.0464 -0.0708
12167W        W29014  12.687   5.855  13.269 -0.3529 -0.0440 -0.0854
12168W        W29015   8.772   1.750  11.792  0.1265 -0.0463 -0.0239
12169W        W29016  14.890  12.835   5.647 -0.0868 -0.2898 -0.0890
12170W        W29017  14.618  17.415   5.136  0.0830  0.0878 -0.0203
12171W        W29018   6.812  13.784  13.534  0.3812  0.1724  0.1388
12172W        W29019  17.938   0.329  15.765  0.3207  0.2913  0.0073
12173W        W29020  12.647  12.946  15.587 -0.0503  0.0876  0.1793
12174W        W29021  11.986  10.734  16.572 -0.0910 -0.0708  0.1949
12175W        W29022  11.162   1.062   0.572 -0.2641 -0.0930  0.0606
12176W        W29023   1.360   2.388  12.190  0.2694  0.0238 -0.0271
12177W        W29024  11.857  16.980  11.221  0.1154 -0.0327  0.1198
12178W        W29025   5.447   1.799  16.612  0.2386 -0.0797 -0.1052
12179W        W29026   7.328  10.180  13.069  0.0712  0.1204 -0.0547
12180W        W29027   3.726   5.155   5.781  0.1310  0.1006  0.3482
12181W        W29028   3.183  11.113  13.212 -0.3285 -0.1989 -0.1863
12182W        W29029   0.644   9.406  11.827 -0.3236  0.2497 -0.2662
12183W        W29030   5.551  10.784   1.330 -0.2878 -0.0724 -0.1492
12184W        W29031   0.964  11.440   0.557  0.1391  0.2047  0.4348
12185W        W29032   2.081  10.241   4.363 -0.0770 -0.4708 -0.0622
12186W        W29033  10.421  14.247   0.588 -0.0095  0.0942  0.2666
12187W        W29034  14.039  15.553  14.820 -0.0818 -0.2459  0.0280
12188W        W29035   7.391  12.274   3.017  0.1086 -0.1523 -0.2273
12189W        W29036   2.276   8.601   2.151  0.1425 -0.2514 -0.2534
12190W        W29037  16.514   1.247   2.059  0.2739  0.1355  0.2048
12191W        W29038   2.628   5.646   1.611 -0.2633 -0.0571 -0.1093
12192W        W29039  17.452   9.659   0.650 -0.0428 -0.0544 -0.0709
12193W        W29040  10.788  10.530   5.227 -0.0956 -0.2454  0.0951
12194W        W29041  17.886   7.815  11.719  0.1566 -0.0619  0.0182
12195W        W29042   4.389   4.444   0.527 -0.1990  0.1276  0.0070
12196W        W29043   9.633   8.610   3.786 -0.0572 -0.2528 -0.1077
12197W        W29044  14.233   6.781   1.105  0.0378  0.1940 -0.2076
12198W        W29045   8.482   7.215  15.203 -0.3635 -0.0193  0.3305
12199W        W29046  15.893  10.525   5.567  0.0283  0.1987  0.0377
12200W        W29047   4.857   0.924  11.957  0.1915  0.4399  0.0716
12201W        W29048   2.237  12.799  12.358 -0.0840  0.2376  0.0287
12202W        W29049  10.300   3.451  13.712 -0.2617 -0.1151 -0.1645
12203W        W29050  17.614  16.992   1.910 -0.0683  0.0159  0.1135
12204W        W29051  12.313  11.131  13.702 -0.1422  0.2194  0.1326
12205W        W29052  11.334   6.158   2.292 -0.1181 -0.1493 -0.0291
12206W        W29053   9.573   2.926   1.126  0.3151  0.1102 -0.0530
12207W        W29054  12.926  17.651  13.715  0.1302  0.2755 -0.4354
12208W        W29055   6.840   7.179  12.964  0.0634 -0.0418  0.2637
12209W        W29056   8.606   0.551  14.035  0.0829  0.0929  0.1449
12210W        W29057  17.933   7.536   1.467  0.2778  0.0282 -0.2001
12211W        W29058   6.066  10.293  13.745  0.1030 -0.2557 -0.0236
12212W        W29059   8.419   5.125   0.802 -0.2524 -0.1443  0.2512
12213W        W29060  16.898   3.508   1.531 -0.2071  0.0756  0.0625
12214W        W29061   6.508   2.876   3.978  0.1870  0.3145 -0.0141
12215W        W29062  16.966  11.058  12.719 -0.0443  0.1544 -0.1754
12216W        W29063  11.332  10.115  13.235 -0.0357  0.3227  0.1682
12217W        W29064   9.233   0.681   0.737 -0.0281 -0.0227  0.1948
12218W        W29065   4.388  18.014   2.454 -0.0903 -0.0656 -0.2251
12219W        W29066  12.067   0.866  14.163  0.0185 -0.0449 -0.3165
12220W        W29067  18.017  12.127  15.301  0.1357  0.2599 -0.2700
12221W        W29068  12.182   3.408  13.882  0.0758  0.1607 -0.1911
12222W        W29069  16.612  11.616  11.783 -0.1987 -0.1477  0.0296
12223W        W29070   7.907   0.698   0.956  0.0026  0.1114 -0.0198
12224W        W29071  12.557  14.346  11.552 -0.0747 -0.1279 -0.1236
12225W        W29072  13.922   7.762   2.138 -0.0123  0.0716 -0.0103
12226W        W29073  12.110  10.593   0.752  0.1498 -0.1002 -0.2038
12227W        W29074  12.479  12.547   0.100  0.2575  0.0125  0.0095
12228W        W29075   3.774   6.381  15.745  0.1067  0.0288  0.0247
12229W        W29076  17.265   4.154  16.463 -0.0821  0.1561 -0.0809
12230W        W29077  17.791   9.411  12.954 -0.1293  0.2125  0.2236
12231W        W29078  10.722  10.853  14.920 -0.2060  0.2325  0.0054
12232W        W29079  13.105  12.385  13.352  0.0650  0.1800  0.0201
12233W        W29080   5.759   1.997  12.277  0.2545 -0.4777  0.0147
12234W        W29081   1.288   9.650  13.377 -0.0386 -0.0231 -0.0227
12235W        W29082  11.818  16.122   1.759 -0.1037  0.2691  0.2004
12236W        W29083  14.794  10.606   4.127 -0.1657  0.3726  0.0892
12237W        W29084   8.191  14.818   5.346 -0.1560 -0.1413  0.0015
12238W        W29085  12.962  13.693   1.777  0.0322 -0.0223  0.0356
12239W        W29086   3.348   9.789   0.793 -0.0906  0.1128  0.1661
12240W        W29087   3.560  13.607   5.765 -0.0211 -0.1135 -0.1675
12241W        W29088  11.661   6.556   2.216  0.0628  0.4418  0.2482
12242W        W29089   3.464  12.608  15.974 -0.0352  0.0139  0.1024
12243W        W29090   5.286   2.115   3.276 -0.1596  0.5850  0.0187
12244W        W29091   8.316   9.813   1.318 -0.1698 -0.0707 -0.1975
12245W        W29092  11.332   1.521  10.974  0.1529 -0.0102  0.3329
12246W        W29093   0.428   8.840   2.124 -0.3325  0.0475 -0.1018
12247W        W29094   7.548   2.018   4.747 -0.0854 -0.0285  0.1851
12248W        W29095  13.676  15.112   4.892 -0.1906 -0.1268 -0.1024
12249W        W29096  16.984   5.571  13.659 -0.1401 -0.0461  0.0995
12250W        W29097   8.794   5.978  15.293 -0.0253  0.0585  0.3547
12251W        W29098  16.912   5.239  13.291  0.0439 -0.1612 -0.2225
12252W        W29099   0.770  11.738  14.869  0.1946 -0.3327  0.2003
12253W        W29100   0.230  13.981   0.469 -0.3083 -0.0523 -0.1998
12254W        W29101  11.781   3.843  13.837  0.0331  0.1808  0.0661
12255W        W29102   9.706   0.355   2.837 -0.0077  0.2425  0.1566
12256W        W29103   8.755  11.966   2.073 -0.1278 -0.0395 -0.1258
12257W        W29104  17.924  10.911   1.831 -0.0343 -0.0322 -0.0058
12258W        W29105   1.791  16.695   1.668 -0.2053 -0.0385  0.0797
12259W        W29106   1.978   3.092   2.354 -0.0405  0.0574 -0.3205
12260W        W29107   9.066   8.333  15.570  0.2234 -0.1059 -0.1080
12261W        W29108   7.581   8.655   5.942 -0.0843 -0.0295 -0.2280
12262W        W29109   9.921   9.635   5.187 -0.1613 -0.0889  0.3461
12263W        W29110   8.302  10.455  12.177 -0.4590  0.1334 -0.0311
12264W        W29111  16.471   3.637  13.929 -0.2080  0.1065 -0.1013
12265W        W29112   5.475   7.440  14.414  0.0719 -0.1559  0.1402
12266W        W29113  11.433   6.422  14.295  0.0802 -0.2773 -0.0583
12267W        W29114  16.738   4.377   4.355  0.1430  0.1048 -0.0237
12268W        W29115  17.062   8.688  14.187  0.1622 -0.0710 -0.2008
12269W        W29116  10.076   6.552   1.277  0.1631 -0.1160  0.1023
12270W        W29117   7.793   3.687   3.351 -0.0319 -0.1041 -0.0411
12271W        W29118   1.788   3.280  15.399  0.2979  0.1674  0.0257
12272W        W29119  10.185   5.303   1.745  0.1212 -0.0081  0.2105
12273W        W29120   2.839  18.001   3.093 -0.1476 -0.0857 -0.1148
12274W        W29121  18.029   7.240  11.644 -0.1157  0.1252 -0.3552
12275W        W29122  16.214   0.339   1.139  0.1055 -0.1304  0.2411
12276W        W29123   5.137  16.994   2.017 -0.0727 -0.0684  0.0368
12277W        W29124   8.666  13.986   2.011 -0.0997  0.2699 -0.1387
12278W        W29125  15.322   4.257   0.107  0.1993 -0.3209  0.1879
12279W        W29126  11.610  14.665   3.683  0.0721  0.3029 -0.1902
12280W        W29127   4.956   0.723   1.756 -0.4164  0.1272 -0.1055
12281W        W29128   4.104  10.470   3.292  0.1949 -0.0203  0.1002
12282W        W29129  11.117   1.870  16.128 -0.2168  0.1197  0.1614
12283W        W29130  14.182  16.244   0.220  0.0449 -0.2542 -0.1254
12284W        W29131  10.812  14.974   0.236 -0.2359  0.0837 -0.2517
12285W        W29132  16.445   1.656  11.790 -0.0003 -0.1728  0.0260
12286W        W29133  10.096  11.910   1.168 -0.0756  0.0941  0.1014
12287W        W29134  12.475  12.904  15.122 -0.2423  0.3244  0.0292
12288W        W29135   3.152  13.041   3.566 -0.1343  0.0622  0.1245
12289W        W29136   9.872   6.057   1.427 -0.0203  0.1382  0.2376
12290W        W29137  11.372   4.422   4.485  0.0091  0.2609  0.0138
12291W        W29138   7.069   9.453   2.469  0.2834  0.1018 -0.0965
12292W        W29139   6.458  13.784   2.568  0.0001  0.0782  0.0353
12293W        W29140   3.591   2.400  11.430  0.1805  0.0655  0.4181
12294W        W29141  12.801  16.410   4.519  0.0434  0.0449  0.2954
12295W        W29142   2.343  15.235  16.603 -0.1684  0.3800 -0.0794
12296W        W29143  14.585  12.844  13.387 -0.0226 -0.3492 -0.0561
12297W        W29144   5.516  14.315   5.291  0.1587  0.0605 -0.0650
12298W        W29145  12.369   2.846  16.040 -0.4661 -0.2069 -0.1275
12299W        W29146  12.317   5.438  13.273  0.0826  0.0109  0.3350
12300W        W29147   0.143  16.952  14.163  0.0346 -0.1109 -0.0080
12301W        W29148   2.283   0.426  11.586 -0.4442 -0.0382 -0.1209
12302W        W29149  15.149   9.380   3.997  0.1955 -0.0943  0.1627
12303W        W29150   1.521  11.000   5.363  0.3449 -0.0677 -0.0753
12304W        W29151  15.085  11.361   2.754 -0.0370 -0.0242  0.2249
12305W        W29152   7.615  14.954   3.301 -0.1282  0.0618  0.0174
12306W        W29153   0.355   3.233   2.889 -0.1111  0.1007 -0.0609
12307W        W29154  13.609   0.742  15.887 -0.3124  0.0736 -0.1667
12308W        W29155   8.146   7.796  13.919 -0.1205  0.2984  0.0940
12309W        W29156   7.069  16.468  13.371  0.2981  0.1725  0.0545
12310W        W29157  16.113   6.407  14.623  0.0771  0.0967 -0.3269
12311W        W29158   3.824   9.994  13.025 -0.1242  0.2640  0.2875
12312W        W29159  17.420   4.385  14.240 -0.0906  0.0076 -0.3688
12313W        W29160   3.884   7.635  13.225  0.0551 -0.0482  0.0410
12314W        W29161  16.815   2.324  15.569 -0.0275  0.1275  0.1969
12315W        W29162   2.854   8.913   5.334 -0.2274  0.0456 -0.1072
12316W        W29163   4.710   8.795  12.088 -0.1488  0.2612 -0.2144
12317W        W29164   1.403   8.479   4.416  0.2525 -0.2719  0.1498
12318W        W29165   7.843   2.598  13.169  0.2800 -0.2255  0.1226
12319W        W29166  12.771   9.880   2.486  0.2122  0.1383 -0.2670
12320W        W29167   4.809  11.850   5.093  0.0495  0.1750 -0.2476
12321W        W29168   8.125   8.232  15.100 -0.2110  0.3693 -0.1364
12322W        W29169   5.952   6.075   4.383  0.1555  0.0379 -0.3072
12323W        W29170   8.795  17.518   1.978 -0.1421 -0.1242  0.0271
12324W        W29171   4.792   5.700  15.800  0.2700  0.0398  0.0749
12325W        W29172   1.990   7.870  15.655  0.0589  0.1035 -0.3332
12326W        W29173  16.367   5.126   2.795 -0.0362  0.1682 -0.0052
12327W        W29174  12.408  10.993  14.612  0.0091  0.3741 -0.1291
12328W        W29175  11.921  12.880  16.248 -0.0739  0.1453  0.0032
12329W        W29176   8.146  14.911  14.961 -0.1166 -0.0332 -0.0072
12330W        W29177  14.808   4.215  13.519  0.3509  0.0421 -0.1236
12331W        W29178   4.925   5.772   5.721  0.3732 -0.0400 -0.0928
12332W        W29179   7.126   8.475   5.132  0.0369 -0.0874  0.0127
12333W        W29180   9.712   9.752  16.132  0.3693 -0.0273  0.1511
12334W        W29181   2.364  13.824   3.495 -0.0257 -0.0342  0.1031
12335W        W29182   6.230  16.147   3.369 -0.0079 -0.0430  0.4140
12336W        W29183   3.402   9.526  16.161 -0.0143  0.1367  0.1940
12337W        W29184   5.791   0.898   5.406 -0.0296  0.3836  0.1297
12338W        W29185  10.495   9.720   2.888 -0.2022 -0.1065 -0.2141
12339W        W29186   0.138   3.944   2.397  0.1897 -0.0316 -0.1760
12340W        W29187   8.994   1.145   0.779 -0.0540 -0.0765 -0.0672
12341W        W29188  17.059  12.343  12.700 -0.1411  0.0553 -0.1531
12342W        W29189   5.802  16.052  14.187  0.0174 -0.0291 -0.0195
12343W        W29190   2.954   1.504  11.701  0.0956 -0.0609 -0.2284
12344W        W29191   4.899   2.701  13.597  0.0461  0.0979 -0.2885
12345W        W29192  12.705   4.359  12.452  0.0478  0.2581  0.0663
12346W        W29193   5.099  15.129  13.403 -0.3578  0.0911 -0.0869
12347W        W29194  12.104   0.339  14.050  0.0603 -0.2588  0.0614
12348W        W29195   5.990  15.467   1.906  0.0229 -0.0931  0.3519
12349W        W29196  15.938   9.582  12.604  0.2674  0.3502  0.1144
12350W        W29197   1.103   2.405   2.977  0.0728  0.2295 -0.1726
12351W        W29198  17.531   6.136   1.808 -0.0186  0.1345 -0.0849
12352W        W29199  14.245   3.055   4.798 -0.2450 -0.1574 -0.1772
12353W        W29200   2.940  11.474   4.815  0.1975  0.0168 -0.0220
12354W        W29201  17.235  12.851  11.278 -0.3431  0.1024 -0.1477
12355W        W29202   3.171  16.003   4.324  0.1262 -0.1961  0.1207
12356W        W29203  17.961  17.806   2.383  0.1642  0.1576  0.2018
12357W        W29204   4.580  15.710  15.878  0.1583 -0.1699 -0.1213
12358W        W29205  17.037   4.567  12.737 -0.1620 -0.0949  0.0016
12359W        W29206   7.093  13.343  14.268 -0.3896  0.2215 -0.0661
12360W        W29207   9.426   3.744  14.988  0.0563  0.2251  0.0006
12361W        W29208   3.973   1.228   3.383  0.2763  0.1348 -0.0196
12362W        W29209  11.473   6.385  16.651 -0.1301 -0.2289  0.2008
12363W        W29210   6.458   6.955   3.681  0.2783 -0.1526  0.1538
12364W        W29211  13.647  14.139  16.620 -0.0168  0.1408 -0.2761
12365W        W29212  11.612   1.185  15.877  0.1442  0.1460 -0.0343
12366W        W29213   6.592   9.753  13.085 -0.0805 -0.1075 -0.4144
12367W        W29214   8.290   0.598  15.708 -0.0554  0.0598 -0.3372
12368W        W29215  11.462  14.766   5.011  0.0003 -0.1176 -0.1576
12369W        W29216   1.674   2.070  13.437 -0.0950 -0.2231  0.0740
12370W        W29217   5.167  16.804   4.536  0.2983 -0.1552  0.1417
12371W        W29218   2.202   2.440  15.696  0.4418  0.2256 -0.0221
12372W        W29219  14.556   7.707   3.150 -0.0103 -0.0897 -0.1064
12373W        W29220  10.297  14.717  14.885 -0.1414  0.1192 -0.1096
12374W        W29221   1.031   3.365   3.412 -0.1908  0.1490 -0.2549
12375W        W29222   7.857  13.218  14.366 -0.0116 -0.0652  0.1718
12376W        W29223  17.169   1.897  13.887  0.3209 -0.1218  0.0412
12377W        W29224   8.822  11.001   3.013  0.1170 -0.1880  0.0328
12378W        W29225  13.398   9.422   3.618  0.0536  0.2689  0.0891
12379W        W29226  10.248   3.922  11.521  0.0651 -0.0344 -0.1263
12380W        W29227  14.866   3.657  16.053 -0.0607 -0.2076  0.5247
12381W        W29228   5.685  15.773  13.010 -0.2066  0.1309  0.1011
12382W        W29229  14.729  15.699  12.033  0.2145 -0.1122 -0.2187
12383W        W29230   8.032   5.007   3.015  0.0009  0.1207  0.0103
12384W        W29231   8.155  11.329   0.318 -0.0684  0.1058  0.0193
12385W        W29232  16.479  11.107  12.378  0.0511 -0.1002 -0.5851
12386W        W29233   9.093   5.785   3.147  0.0923  0.1211  0.0841
12387W        W29234   7.698   2.140  13.926 -0.1080  0.1414 -0.1124
12388W        W29235   3.925  11.779  16.217 -0.1037 -0.0681  0.3482
12389W        W29236   9.889  14.148   5.418 -0.2859 -0.0106 -0.1626
12390W        W29237  17.578  10.266   2.053  0.0790  0.3069 -0.2544
12391W        W29238   2.911  10.836  16.061 -0.0228  0.0500 -0.1272
12392W        W29239  15.290   4.567   5.040  0.0535  0.1939 -0.1230
12393W        W29240   7.110  15.279  14.300 -0.0479  0.1771  0.1181
12394W        W29241   1.269   6.607   5.617 -0.1925 -0.0064  0.1159
12395W        W29242   5.025   1.964   3.713  0.0223 -0.0000 -0.1619
12396W        W29243  14.712   6.063   0.615  0.0672  0.0511 -0.1487
12397W        W29244  12.248  12.849   0.954 -0.2395  0.0796 -0.0109
12398W        W29245  14.204   0.319  11.588 -0.2383 -0.0166  0.2033
12399W        W29246  15.164   5.142   0.378  0.1182 -0.0341  0.0142
12400W        W29247   1.996  11.566   1.815  0.2821  0.1961 -0.0218
12401W        W29248   4.221   4.944   3.969  0.2475  0.0246  0.0975
12402W        W29249   3.799  11.006  15.107 -0.2122 -0.1130 -0.0208
12403W        W29250   2.835   8.404  16.675  0.0564  0.2364 -0.0588
12404W        W29251  10.369  11.906  13.376 -0.1982  0.0517  0.2358
12405W        W29252  11.588  17.500   0.550  0.2868 -0.2642 -0.0775
12406W        W29253  11.242  16.224  14.623  0.1218  0.1291  0.0038
12407W        W29254   3.808  17.401  16.208  0.0530  0.2970 -0.1360
12408W        W29255  17.131   3.002  10.725  0.1726  0.0623  0.1857
12409W        W29256  17.451  15.409   4.669  0.0151  0.1442  0.0806
12410W        W29257  17.868  10.404   5.303  0.0586  0.0453 -0.2366
12411W        W29258   0.622   2.828   3.711 -0.0741 -0.0952  0.2348
12412W        W29259   1.410   3.850  15.306  0.0709 -0.0724  0.2812
12413W        W29260  15.971   1.923   0.806  0.0081  0.1439 -0.1763
12414W        W29261   6.480  16.720   4.307 -0.0591 -0.0148  0.0418
12415W        W29262   9.844   3.977   5.083 -0.0108 -0.2331 -0.1140
12416W        W29263   1.195   2.937   0.310  0.1520 -0.1996  0.1693
12417W        W29264   4.618   5.430  15.405  0.0478  0.0203 -0.3064
12418W        W29265   7.961  17.606   4.226  0.2346  0.0394  0.1327
12419W        W29266   3.031   0.588  13.738 -0.0107 -0.2018  0.4985
12420W        W29267  16.440  17.969   1.085  0.1572 -0.0411  0.0403
12421W        W29268   4.049   4.042   0.891  0.0678  0.3297  0.0880
12422W        W29269   0.325   9.316   1.876  0.1295 -0.1353  0.0492
12423W        W29270  10.255  11.094   0.556 -0.2092 -0.0330  0.1311
12424W        W29271   8.594  14.147   5.754 -0.0233 -0.0385  0.0677
12425W        W29272   7.743   2.418   4.569  0.0687  0.3484 -0.1412
12426W        W29273   4.159  15.522  14.313 -0.0827 -0.3746 -0.0713
12427W        W29274   5.393  14.447   3.226 -0.0354 -0.1225  0.0812
12428W        W29275  14.855   1.657  15.481 -0.0887  0.0198  0.0073
12429W        W29276  14.818  12.641   4.519 -0.1615 -0.1993 -0.0628
12430W        W29277   9.536   9.138   1.569  0.1791 -0.0706 -0.1719
12431W        W29278   6.350  13.468  11.978  0.2135  0.0140  0.3742
12432W        W29279   1.059   2.418  16.109  0.3167  0.1624  0.0465
12433W        W29280  15.529   5.021  11.233  0.0177  0.1504 -0.1945
12434W        W29281  15.140   9.863   4.816 -0.0549  0.1265  0.1471
12435W        W29282  15.347   2.973   2.296  0.1717 -0.3165  0.2484
12436W        W29283   5.736   0.482  12.606 -0.0225  0.2187 -0.1740
12437W        W29284  16.620   5.924  13.514 -0.3851  0.0004 -0.1724
12438W        W29285   2.281   5.128   2.177  0.3372  0.0820 -0.1180
12439W        W29286   5.538  10.258   5.352  0.2727  0.1575 -0.2290
12440W        W29287   2.535   3.833  14.148  0.2363  0.1601  0.2030
12441W        W29288   2.556   7.795  12.006  0.0404  0.0710 -0.1567
12442W        W29289  14.892  17.382  11.006 -0.1501  0.0372 -0.2890
12443W        W29290   4.612  11.682  12.618  0.1431 -0.3224 -0.1202
12444W        W29291   0.380  17.599   1.521  0.1630  0.0245  0.1255
12445W        W29292   3.399  11.441  14.957  0.0319 -0.0978 -0.0537
12446W        W29293   0.825  11.067   2.324 -0.1164 -0.1286 -0.1903
12447W        W29294  17.665   4.845   4.809  0.0885 -0.2506  0.3832
12448W        W29295  12.898   7.306  12.433  0.1095  0.0698 -0.0730
12449W        W29296  15.714  17.854  12.152 -0.1527 -0.1524  0.2234
12450W        W29297  12.402   3.309  13.189  0.2501 -0.0107  0.1234
12451W        W29298   4.264   3.906   4.251  0.1632  0.1247 -0.2651
12452W        W29299   9.980  17.859   3.162  0.0114 -0.0739 -0.1420
12453W        W29300   7.669  14.970  12.566  0.2942  0.0636 -0.0532
12454W        W29301   0.764  12.865  13.709  0.3875  0.3211 -0.0866
12455W        W29302   0.235   6.906  16.317  0.1019 -0.3728 -0.0320
12456W        W29303  11.948   6.378  15.844 -0.1302  0.2501  0.0660
12457W        W29304   3.812  12.287   5.115  0.1101  0.0982  0.5357
12458W        W29305  11.951   1.401  10.890  0.0625 -0.0238  0.0261
12459W        W29306  13.614  13.950  12.494 -0.0814 -0.0068 -0.0102
12460W        W29307  14.280  13.147   1.161  0.1092 -0.0557  0.2707
12461W        W29308  11.613   6.407   4.485 -0.0001 -0.2290  0.1230
12462W        W29309   2.570   7.276   1.048  0.0262  0.0310  0.0572
12463W        W29310  11.346   2.240  12.916 -0.1087 -0.0017  0.1196
12464W        W29311   6.987  10.990  14.193  0.2624  0.0603 -0.2174
12465W        W29312   5.987  16.435  16.184  0.2416 -0.2167  0.1983
12466W        W29313   7.182   9.938   1.784 -0.1182 -0.0069  0.1887
12467W        W29314  14.136  17.025  13.147 -0.0566  0.2220 -0.1657
12468W        W29315   7.193  17.770  12.877  0.0880  0.2311 -0.0510
12469W        W29316  14.934  10.029   1.508  0.2402  0.2229 -0.2548
12470W        W29317  15.256   4.581  16.386 -0.3252  0.0197 -0.0800
12471W        W29318  10.577  12.037   0.835  0.1045 -0.1366  0.0485
12472W        W29319  11.387  16.232   0.853 -0.2589 -0.1422  0.1156
12473W        W29320  12.572  15.549  11.983 -0.1797  0.0550  0.1865
12474W        W29321   1.744   4.005  13.669  0.2561  0.1172  0.1683
12475W        W29322  14.202   8.063   3.044 -0.2122 -0.0554 -0.1735
12476W        W29323   4.881   7.846  16.384  0.0286 -0.0550  0.2367
12477W        W29324  13.418  12.261  15.268  0.1116  0.1925  0.0726
12478W        W29325  16.762  16.603  13.484 -0.0126  0.1483  0.1254
12479W        W29326   9.031   8.349   4.875  0.2355 -0.0655  0.0541
12480W        W29327  14.806  17.013   2.900 -0.1149  0.0640 -0.2172
12481W        W29328  10.960   6.261  16.573  0.0024  0.3048 -0.0500
12482W        W29329  10.939  10.500   2.917  0.0591 -0.0889  0.2339
12483W        W29330   1.775   6.649  16.280 -0.1051 -0.2806  0.0616
12484W        W29331  13.763   0.311  16.142 -0.2488  0.1254  0.0072
12485W        W29332   9.412   9.839  14.978 -0.1268 -0.1072  0.0935
12486W        W29333   2.869   2.348   5.404 -0.1606  0.4371 -0.1880
12487W        W29334  10.492   7.684   4.633 -0.0937 -0.1237  0.1991
12488W        W29335  14.735  12.184  15.800  0.0941 -0.0420 -0.1334
12489W        W29336  15.743  14.404  12.842  0.0576 -0.0832  0.0651
12490W        W29337  11.623   2.581   3.558  0.0934  0.2226 -0.0959
12491W        W29338   5.622  12.432   1.707 -0.1013 -0.3253 -0.0080
12492W        W29339   9.312   3.082  16.413 -0.0676 -0.0631 -0.2426
12493W        W29340  13.802  13.194  12.037 -0.2184 -0.2081 -0.0848
12494W        W29341   6.463  10.886   1.926 -0.2175  0.0972 -0.0868
12495W        W29342   3.393   1.350   0.641 -0.0476 -0.3557 -0.2127
12496W        W29343   0.492  17.181   1.763  0.0433  0.0093  0.0500
12497W        W29344  15.399   6.266  15.208 -0.1003  0.0464 -0.0344
12498W        W29345  11.768   7.410  16.672 -0.4060  0.0496 -0.1039
12499W        W29346   4.361   2.672  14.660  0.4015  0.1279  0.0371
12500W        W29347   6.142   8.562   6.160 -0.2388  0.2072 -0.0417
12501W        W29348   8.793   2.738  12.043  0.2334  0.1817  0.0356
12502W        W29349   4.805  13.640   3.319  0.2481  0.1692 -0.1614
12503W        W29350  10.840  14.571  12.698 -0.0699  0.1253 -0.1045
12504W        W29351  17.994  16.284   2.439  0.0668 -0.0231 -0.0277
12505W        W29352   6.548  15.890   2.073 -0.0126 -0.0976  0.1231
12506W        W29353  16.368  12.212   4.098  0.0954 -0.1052 -0.1377
12507W        W29354  14.705  12.893   3.137  0.1111 -0.5819 -0.1723
12508W        W29355  16.738  15.631   2.047 -0.5183 -0.0898 -0.2164
12509W        W29356  12.139   9.752   4.849  0.2820 -0.2251 -0.0450
12510W        W29357   1.528  12.461  13.482  0.0279 -0.0607  0.2663
12511W        W29358   2.190  10.873   6.216 -0.2774 -0.1258 -0.3351
12512W        W29359   4.946  11.839   3.169 -0.1509  0.0981 -0.2606
12513W        W29360  14.938   2.288   3.692 -0.0542  0.0307 -0.3422
12514W        W29361  17.247   6.152   4.669  0.0352  0.0620  0.1489
12515W        W29362   4.019  10.471   1.330  0.1197 -0.0736  0.2777
12516W        W29363  12.867   5.393  15.086 -0.2829  0.2017  0.0202
12517W        W29364   3.237   7.795  14.474 -0.2491  0.0724 -0.1457
12518W        W29365   6.495  10.705  13.959  0.2404 -0.3716 -0.1092
12519W        W29366  15.347  14.661   1.671  0.0154 -0.2097  0.1570
12520W        W29367   2.368   7.136  12.483 -0.0190 -0.1554 -0.1584
12521W        W29368  12.769  16.180   2.084  0.1879  0.0263 -0.0046
12522W        W29369  16.984   6.444   2.868 -0.2475  0.2842  0.3456
12523W        W29370  12.344   1.432   1.912  0.2453  0.1285 -0.2311
12524W        W29371  17.119  13.213  13.837 -0.1060  0.1003  0.0292
12525W        W29372  13.424  14.958   0.600  0.1246  0.0787  0.1669
12526W        W29373  13.063  15.446  11.948  0.0843  0.0298  0.0510
12527W        W29374   3.246  10.000   3.703  0.3443 -0.1010  0.3407
12528W        W29375  12.931  14.606   0.931  0.3653 -0.0732 -0.2452
12529W        W29376  10.315  16.499  14.488 -0.0186  0.0048 -0.1689
12530W        W29377  16.411  10.730   4.086  0.3803 -0.2650  0.1510
12531W        W29378   6.852   6.732  16.386 -0.3284  0.0546  0.2133
12532W        W29379  14.595  13.597  15.821  0.0743 -0.0946  0.0213
12533W        W29380  17.981   4.836  15.390  0.4267  0.3865 -0.3605
12534W        W29381  11.981   1.756  14.801 -0.3424 -0.0963  0.1702
12535W        W29382   5.092   1.859  13.447  0.2637  0.0806  0.1098
12536W        W29383   1.812   8.362   2.187  0.1366 -0.1707  0.1210
12537W        W29384   2.014  14.896   4.776 -0.1980  0.0397  0.1260
12538W        W29385   1.432   3.972   1.523 -0.1050  0.2794  0.2151
12539W        W29386  13.366  16.886   2.707  0.0640  0.0156 -0.0044
12540W        W29387   6.122  12.548   1.790 -0.0719 -0.2114 -0.0268
12541W        W29388  12.789   3.729  16.569 -0.3069 -0.0717 -0.0208
12542W        W29389   8.871   1.842   4.983 -0.3047 -0.2173 -0.1215
12543W        W29390  10.951   1.990  14.450 -0.3265 -0.3862  0.1217
12544W        W29391   2.015  15.847   4.659  0.0322 -0.3235 -0.0547
12545W        W29392  16.797  12.851  12.726 -0.1585 -0.0203 -0.0157
12546W        W29393  14.281   3.517   0.727  0.0766  0.1027  0.2734
12547W        W29394  15.081  10.575  15.422 -0.3123  0.0321 -0.1216
12548W        W29395   5.909   4.176   4.823  0.1787  0.1705  0.1005
12549W        W29396  11.988   3.586  13.385  0.1267  0.3721 -0.0746
12550W        W29397   2.015  11.114   4.503  0.2250 -0.0567  0.1203
12551W        W29398   8.385  17.258   4.115  0.0021 -0.0651 -0.1521
12552W        W29399   9.423  13.767  14.466 -0.1231 -0.1434  0.3221
12553W        W29400   0.902  12.909  15.638  0.0728  0.2243  0.0098
12554W        W29401  11.585   8.307   0.944  0.0501  0.1437  0.1110
12555W        W29402  13.852   8.285  12.397 -0.1244  0.2862  0.2755
12556W        W29403   2.290   7.702   4.755 -0.0063  0.4269 -0.3459
12557W        W29404  13.238   1.524  16.465 -0.0688  0.1512 -0.1377
12558W        W29405  11.157   6.568   4.083 -0.2371 -0.0271  0.1102
12559W        W29406   1.635  17.303  13.320  0.2457 -0.0376 -0.0597
12560W        W29407   9.236   9.617  13.647 -0.3885 -0.3153  0.1392
12561W        W29408   0.072   7.700   1.033 -0.0838 -0.1026 -0.1603
12562W        W29409   1.567   8.967  16.501 -0.0950 -0.0513 -0.2196
12563W        W29410  16.220  13.941   6.249  0.2071  0.0330  0.0590
12564W        W29411  15.422   1.490  16.228 -0.2184 -0.2701  0.0503
12565W        W29412   3.708  16.236   2.997 -0.1579 -0.2270  0.1327
12566W        W29413   7.623   7.898  12.049 -0.0344  0.1833 -0.0116
12567W        W29414  10.157  12.038   2.177 -0.1807  0.0251  0.2793
12568W        W29415   0.696   6.848   3.426  0.0496 -0.2479  0.1980
12569W        W29416  15.611  14.673  14.999 -0.1626  0.4074  0.0325
12570W        W29417   7.433   5.847  12.970 -0.2671 -0.0210  0.0991
12571W        W29418  16.581  14.847  11.748 -0.1316  0.3328  0.0752
12572W        W29419   3.484   5.091   3.604 -0.3210 -0.3722 -0.3260
12573W        W29420   4.549  12.643  14.658 -0.0383  0.1382  0.1575
12574W        W29421  10.082  13.527   0.347  0.1549  0.1997  0.1970
12575W        W29422  14.635   2.008   1.647 -0.0507  0.1160  0.0079
12576W        W29423  17.143  13.264   1.501  0.0653 -0.1104 -0.1224
12577W        W29424  17.078   1.360   2.123  0.2941  0.0312  0.1720
12578W        W29425  11.342  17.518   1.004  0.1993 -0.3005  0.3994
12579W        W29426   1.404   7.911   2.441 -0.1207 -0.0967  0.3232
12580W        W29427   1.337  16.614  12.633 -0.0585  0.1888  0.1627
12581W        W29428   7.584  11.873  13.067  0.2659  0.0541 -0.2151
12582W        W29429  13.124   9.567  13.632  0.0680  0.0091  0.2364
12583W        W29430  11.250   0.249  13.878 -0.1180 -0.2201 -0.1163
12584W        W29431  11.495   5.304   1.834  0.0483 -0.1311  0.2214
12585W        W29432  16.950   6.683  15.123 -0.1851  0.1016  0.1197
12586W        W29433   6.543  15.557  15.101 -0.1642  0.1059  0.3022
12587W        W29434  11.093  12.368   1.733 -0.0134 -0.0998 -0.2371
12588W        W29435   4.121  11.167   5.422 -0.4447  0.0353  0.0576
12589W        W29436  11.927  13.538  14.179  0.1180 -0.1294 -0.2483
12590W        W29437   3.814  11.189   0.405 -0.1631 -0.0596  0.1534
12591W        W29438   7.867   0.848  15.909 -0.2383 -0.0570 -0.1050
12592W        W29439   1.537  17.832   4.571 -0.1227  0.0100 -0.0860
12593W        W29440   5.131  16.096   2.950 -0.0931 -0.2118 -0.0129
12594W        W29441   6.624  12.607   2.015  0.2356 -0.0300  0.0623
12595W        W29442  11.154   7.802  13.257  0.0722  0.1155 -0.0064
12596W        W29443  10.777  16.062  12.830  0.1237 -0.3681  0.0768
12597W        W29444   5.102  10.482   5.474 -0.0023  0.1039 -0.1001
12598W        W29445  14.039   0.280  13.524  0.2221 -0.0839  0.2226
12599W        W29446   8.696  17.711   1.495  0.0306  0.2207  0.0492
12600W        W29447   6.104   1.492   1.420  0.1410  0.1309 -0.0645
12601W        W29448  17.460   4.853   4.304 -0.0775 -0.1718 -0.1025
12602W        W29449   5.009  15.682   2.103  0.0510  0.1088 -0.0438
12603W        W29450  12.529  13.520  13.471  0.2172 -0.0664  0.2772
12604W        W29451   0.225  11.140  15.116 -0.0271 -0.1146  0.0781
12605W        W29452  15.222  13.894   3.974 -0.0221 -0.1399 -0.0225
12606W        W29453  14.921  13.677   0.792 -0.0254 -0.1021  0.3051
12607W        W29454  14.756   8.572  15.871 -0.1013  0.1279 -0.1413
12608W        W29455   2.520   7.100  16.054  0.0899  0.0103  0.0620
12609W        W29456   7.446   0.917   3.440 -0.0975 -0.2704  0.2334
12610W        W29457  10.678  16.500  12.625 -0.1030 -0.0921 -0.0982
12611W        W29458  14.448  12.462   2.405 -0.0785 -0.0068 -0.3907
12612W        W29459   3.761  11.224  11.421  0.1230  0.1128  0.1259
12613W        W29460   0.061   6.584  13.652  0.0944  0.0266 -0.0545
12614W        W29461   2.909   2.975  14.567 -0.0527 -0.2678  0.3170
12615W        W29462   0.702  17.600  16.582  0.1794  0.2507  0.0660
12616W        W29463   1.465  12.256   3.511 -0.4074  0.2293 -0.2327
12617W        W29464   0.497   9.166   3.499 -0.0768 -0.1341  0.1844
12618W        W29465  17.421  17.866   0.691  0.0966  0.1630 -0.0229
12619W        W29466  12.677   8.289   0.211 -0.1093  0.1597  0.0180
12620W        W29467   8.379  14.134  14.502  0.0247  0.0374 -0.2024
12621W        W29468  12.330  16.082   2.530 -0.1921  0.0026  0.1812
12622W        W29469   1.072   3.746   1.225  0.0619  0.1770 -0.0572
12623W        W29470   8.994   5.426  16.113  0.0612  0.0467  0.2548
12624W        W29471   8.091   7.520   3.028  0.0456 -0.0718 -0.0136
12625W        W29472  14.423   4.674   2.750  0.2270  0.0385 -0.2296
12626W        W29473  14.666   0.775  11.674 -0.1079 -0.1893 -0.0660
12627W        W29474   6.664   0.477   4.452  0.0913 -0.0262 -0.0400
12628W        W29475   7.307   2.330  14.748  0.0123  0.0502 -0.2264
12629W        W29476   3.651   7.377   0.599 -0.2038  0.1953 -0.0809
12630W        W29477   9.646   7.110   4.951  0.1191  0.2151 -0.2785
12631W        W29478   3.579   4.068  15.534 -0.0820  0.0814 -0.0556
12632W        W29479  14.761   1.483  11.701 -0.0213  0.0811  0.1960
12633W        W29480   0.729  16.449  14.556  0.1788 -0.0745  0.1590
12634W        W29481   6.201   2.582  14.418 -0.0216 -0.1784  0.2139
12635W        W29482  14.567  17.186  16.120 -0.2475 -0.1310  0.1777
12636W        W29483  10.230  13.221  12.387 -0.2489 -0.1417 -0.0472
12637W        W29484  17.075   8.871  11.600 -0.0993  0.2670 -0.0408
12638W        W29485  13.188  11.337   1.849  0.3062  0.0791  0.1309
12639W        W29486   1.540   7.493   2.008  0.1138  0.0804 -0.0291
12640W        W29487   6.658  13.203  11.660  0.0720 -0.1900  0.1383
12641W        W29488   7.993  10.815  13.698  0.2768  0.1164 -0.1082
12642W        W29489   1.528  12.607  15.725  0.0285  0.3614  0.0705
12643W        W29490  15.267   4.468  15.360 -0.0450  0.1271 -0.0620
12644W        W29491   8.367   0.073   3.146 -0.1851  0.0479 -0.0028
12645W        W29492   1.256   7.719   4.750  0.1494  0.0053 -0.0755
12646W        W29493   6.642  12.497  14.615  0.2123  0.0814 -0.0496
12647W        W29494   7.264   5.965  15.344  0.2704 -0.1225 -0.2007
12648W        W29495  15.921   6.898  16.410 -0.0228  0.0562 -0.1980
12649W        W29496   7.031   3.661  16.016  0.1666  0.0479  0.0792
12650W        W29497   4.454  13.065   3.929 -0.1063  0.1065  0.1981
12651W        W29498   3.153   2.622  15.389 -0.0699  0.3433 -0.1394
12652W        W29499  15.680   3.999  14.319 -0.2359  0.1097 -0.2228
12653W        W29500   8.439   2.902   3.755 -0.4296  0.1946  0.0973
12654W        W29501  12.917  11.190   6.319  0.2948  0.0128 -0.1775
12655W        W29502   8.801   4.348  16.526 -0.1099  0.0994  0.0213
12656W        W29503   1.096   9.728   3.462  0.1531 -0.1719 -0.0538
12657W        W29504   2.486  17.427  13.096 -0.1014 -0.1836  0.0535
12658W        W29505   6.817  11.271   0.842  0.2035 -0.3252  0.1746
12659W        W29506   2.589  14.266   2.173 -0.1441 -0.1192  0.0154
12660W        W29507  15.825  17.850  13.448 -0.0786 -0.3591  0.0565
12661W        W29508   2.907  13.220   1.582  0.1942 -0.1453 -0.0270
12662W        W29509   1.790  10.729  14.842  0.1632  0.0935 -0.1953
12663W        W29510   7.207   2.050  12.225  0.1477 -0.1814  0.2483
12664W        W29511  15.536  17.790  16.335  0.2325 -0.1097 -0.1926
12665W        W29512  17.488  10.799   4.436 -0.3759 -0.1069 -0.0295
12666W        W29513   6.719   5.018   3.983  0.1612  0.0746  0.1757
12667W        W29514  17.423   2.821   1.612  0.0621 -0.3875  0.3857
12668W        W29515   1.207   7.037  13.557  0.1221  0.1196  0.1056
12669W        W29516  10.957  16.532  13.840  0.1416 -0.1278  0.2275
12670W        W29517  10.932   3.220  11.389  0.2254 -0.0247  0.1527
12671W        W29518  14.448   0.864   2.016  0.0064 -0.0547 -0.1025
12672W        W29519   5.430   4.336   2.014  0.4024  0.0359 -0.0701
12673W        W29520  11.385  10.902  13.658 -0.2689 -0.1756  0.1240
12674W        W29521   8.017   3.786  13.639 -0.3640 -0.2648  0.1171
12675W        W29522   2.153   1.375  11.346  0.1449 -0.2128 -0.0646
12676W        W29523  15.643   8.853   5.075  0.1632 -0.5049  0.2326
12677W        W29524   5.628  17.405   2.576 -0.1931  0.0041 -0.0732
12678W        W29525   9.861   1.398   0.630  0.5518  0.3151 -0.2171
12679W        W29526   8.011  16.801   0.586 -0.3626  0.4833 -0.2363
12680W        W29527   3.710  10.257  16.385 -0.0010  0.0205  0.2992
12681W        W29528  14.767  14.208  14.168  0.1814  0.0227 -0.2638
12682W        W29529  17.691   4.450  13.637  0.2233 -0.3246 -0.0624
12683W        W29530   8.225   5.627  13.424  0.0701  0.1243 -0.0101
12684W        W29531  15.761  14.657   4.802  0.0955 -0.2240  0.0661
12685W        W29532   7.815  14.299  12.009  0.0023  0.0101  0.0250
12686W        W29533  12.008   8.212  15.675 -0.0193 -0.0646  0.1176
12687W        W29534   9.893   2.686  15.808  0.2094 -0.0983  0.0623
12688W        W29535   1.153   9.152  13.219 -0.1976  0.0478  0.1341
12689W        W29536   6.101  16.081  16.526 -0.0183  0.1389  0.1805
12690W        W29537  12.723  12.393  16.275  0.1408  0.0333  0.0455
12691W        W29538  15.986   5.113   3.500 -0.0284  0.0864  0.2317
12692W        W29539  10.844  10.073   2.714  0.0167  0.1516  0.0688
12693W        W29540   7.796   5.442  13.796 -0.5000 -0.1984  0.2928
12694W        W29541  10.274  16.729   5.084  0.2383 -0.0926 -0.0584
12695W        W29542   9.279   9.297   1.145 -0.2127 -0.0803  0.0501
12696W        W29543  13.406  17.912  16.111  0.0506  0.1025 -0.1055
12697W        W29544   3.030  17.521  14.776 -0.1950  0.0239  0.0399
12698W        W29545  13.963   1.422  12.392 -0.0658 -0.0616 -0.1366
12699W        W29546  15.046  10.235  13.564 -0.0552  0.1639  0.1625
12700W        W29547  14.619   9.795  14.328 -0.0514 -0.1073  0.0570
12701W        W29548  16.256  13.193   1.835  0.1295 -0.1458  0.1811
12702W        W29549  14.971   1.762   4.283  0.2454 -0.5510 -0.0983
12703W        W29550  16.363   7.880  16.341  0.0606  0.2261 -0.2358
12704W        W29551  11.005   5.582  13.944  0.3990  0.3539 -0.2624
12705W        W29552   6.866   1.611  13.798  0.3038  0.1643  0.0921
12706W        W29553  15.721  15.730   0.727 -0.2055  0.1755  0.1357
12707W        W29554   5.222  13.737   2.873  0.1986 -0.0954 -0.0162
12708W        W29555  12.521  13.044   1.818 -0.0115 -0.3906  0.0781
12709W        W29556  12.157   7.105  12.433 -0.2179 -0.1313 -0.1270
12710W        W29557   3.627  17.861   3.200 -0.0694 -0.0174  0.1288
12711W        W29558  13.312   0.226  13.835  0.0921  0.5031 -0.1639
12712W        W29559   5.884  15.376  16.011 -0.4024 -0.0371 -0.0607
12713W        W29560  12.028   4.159  16.669 -0.0386  0.1669 -0.0259
12714W        W29561   4.662   3.821  12.800 -0.1286 -0.0754 -0.0042
12715W        W29562  16.115  12.184   1.873  0.2088  0.0859  0.0565
12716W        W29563  13.781   8.941   5.382 -0.0691 -0.0934  0.1670
12717W        W29564  16.510   0.244  12.770  0.1185  0.2564 -0.0467
12718W        W29565   4.943  13.528  14.863 -0.3212 -0.0933  0.1496
12719W        W29566  16.103   5.065  14.037 -0.0132 -0.1856 -0.0674
12720W        W29567   2.864  11.531   0.904 -0.0932  0.1911  0.1658
12721W        W29568  10.354   6.959   0.369  0.0928 -0.0939  0.1026
12722W        W29569   2.710  16.156   1.503 -0.1149  0.0066 -0.0947
12723W        W29570   0.639  16.624   2.973 -0.0481 -0.0330  0.2587
12724W        W29571   4.851   8.953   0.329 -0.0881  0.4605  0.1137
12725W        W29572  11.960  15.578   0.559  0.3979 -0.1932 -0.1006
12726W        W29573  11.760  13.629   3.604 -0.1844 -0.1823 -0.1400
12727W        W29574  11.387  13.433  10.365  0.1086 -0.2230  0.0559
12728W        W29575   5.416  13.360   4.374  0.1057 -0.0776 -0.2466
12729W        W29576   8.424   5.127  15.563 -0.1739 -0.1597  0.1129
12730W        W29577   9.432  10.321   2.135  0.1560 -0.0141  0.1087
12731W        W29578   4.745  14.879   3.513 -0.0406  0.0551 -0.0412
12732W        W29579   5.538   5.112   0.224 -0.2076 -0.2028  0.2751
12733W        W29580   3.012  17.242   0.245  0.0241  0.0033 -0.2114
12734W        W29581  16.234   0.888  11.512 -0.1252 -0.1573 -0.2920
12735W        W29582   9.503   3.596  12.326  0.0098 -0.0619  0.0136
12736W        W29583  17.434   8.195   1.610 -0.1658  0.1517 -0.1056
12737W        W29584  14.250   7.801  14.136  0.0731 -0.1498  0.0937
12738W        W29585  10.926   3.697   0.103  0.1678 -0.0622 -0.5589
12739W        W29586   4.618  14.201   5.053 -0.0293 -0.0767  0.3497
12740W        W29587  16.859   4.863   2.542  0.0783  0.0892  0.0633
12741W        W29588  17.051   3.730  12.337 -0.0023  0.0572  0.1832
12742W        W29589  10.889   2.866   1.678  0.0200  0.2195  0.0753
12743W        W29590   8.427   0.290  14.872 -0.3412  0.0857  0.0884
12744W        W29591  12.461   1.509  14.158 -0.1927  0.0218 -0.2513
12745W        W29592  16.118  17.806   1.897 -0.0538 -0.2078  0.1977
12746W        W29593   6.261  17.641   4.376  0.0345  0.0528 -0.1240
12747W        W29594  16.144  12.637   2.567 -0.0360 -0.1196  0.0524
12748W        W29595  10.033   6.844   4.821  0.0858 -0.2248 -0.1975
12749W        W29596  15.102   6.994   1.998 -0.0421 -0.3453  0.0151
12750W        W29597  14.515   5.397  15.994  0.1732 -0.1505 -0.2267
12751W        W29598   0.289   2.442   0.285 -0.3114 -0.1188  0.2685
12752W        W29599   9.385  12.123   3.915 -0.0476 -0.0134  0.2145
12753W        W29600   3.021  13.817   4.971  0.2442 -0.2580 -0.0512
12754W        W29601  10.756  14.250  13.098 -0.0225  0.1810  0.1508
12755W        W29602   6.999   6.713  13.188  0.1963 -0.0332 -0.2374
12756W        W29603  16.751   3.453  11.474  0.0409 -0.1508 -0.1735
12757W        W29604   9.238  15.633   3.453 -0.0773  0.1565  0.0862
12758W        W29605   3.706   3.079   1.027  0.0685  0.1404  0.0119
12759W        W29606  15.836   8.905   0.670 -0.3140 -0.1217 -0.0713
12760W        W29607   6.001   7.926  16.596  0.2228  0.1375  0.2548
12761W        W29608  14.874   8.677  13.497  0.2366  0.1974 -0.3413
12762W        W29609  10.467   7.572  14.018 -0.1523 -0.0708  0.1389
12763W        W29610  14.513   2.969  16.182  0.2030 -0.1851 -0.0220
12764W        W29611  13.880  18.032  13.147 -0.1070  0.0820  0.2072
12765W        W29612  10.325   6.560   4.348 -0.1030 -0.0625 -0.2999
12766W        W29613  17.851   1.641  12.837 -0.4727  0.1608  0.1415
12767W        W29614   8.062   9.312   4.413  0.0275  0.1089 -0.1593
12768W        W29615  14.550   9.399  16.116  0.2139  0.3163  0.0061
12769W        W29616   2.269  11.352  16.332 -0.0843  0.0719  0.1353
12770W        W29617   2.243  12.592   1.080 -0.2370 -0.1558  0.0707
12771W        W29618   8.961  13.493   4.796 -0.2140 -0.0305 -0.2088
12772W        W29619  11.753  16.867  12.414  0.0217 -0.0329 -0.0044
12773W        W29620   9.969   0.652  13.501 -0.0849  0.0069 -0.1740
12774W        W29621  16.612   3.431  14.427  0.3112  0.4735  0.4788
12775W        W29622  10.318   2.450  16.635  0.2227 -0.0128 -0.0498
12776W        W29623  14.473   5.476   2.553 -0.0982 -0.0324 -0.2818
12777W        W29624  10.743  14.599   3.582  0.0132  0.1225  0.4111
12778W        W29625   8.811  14.016   5.361  0.1501  0.3500  0.0438
12779W        W29626   7.277  13.155  13.007 -0.0779 -0.0309 -0.2698
12780W        W29627   7.370   4.034   5.335  0.1034 -0.0940  0.1756
12781W        W29628  11.320   3.687   5.158 -0.0867 -0.1780 -0.1598
12782W        W29629  13.378  12.376  12.517 -0.1912 -0.0232  0.2294
12783W        W29630   9.389  15.301   4.604  0.0532  0.0211 -0.2032
12784W        W29631   2.283  18.001   3.198  0.2129  0.1377 -0.1561
12785W        W29632   4.092   5.566   2.091  0.1922  0.0719  0.0853
12786W        W29633  10.385   4.501  15.404 -0.0441  0.0877 -0.2955
12787W        W29634   9.726   6.968   1.263  0.3276 -0.0319  0.0164
12788W        W29635   7.674  13.777  15.136  0.0817 -0.0205 -0.0211
12789W        W29636  16.174   3.888  14.341  0.1895 -0.2865 -0.0013
12790W        W29637  10.144  14.042   0.103 -0.2488  0.0011 -0.1193
12791W        W29638   5.351   6.658   0.271 -0.0709  0.2122  0.0320
12792W        W29639   9.863   4.240   4.409  0.0041  0.0027  0.1893
12793W        W29640  12.149   9.513   1.805 -0.0310  0.0776  0.3510
12794W        W29641   9.873   5.836   1.890  0.4116 -0.2343 -0.1039
12795W        W29642  13.367   8.775   4.674  0.0628 -0.4731 -0.1798
12796W        W29643  15.005   7.605   2.984 -0.1511  0.1785  0.3803
12797W        W29644  10.623   4.567   0.146  0.3976  0.3624  0.3727
12798W        W29645   3.388   3.644  12.318  0.0481 -0.0676 -0.1822
12799W        W29646   7.056  14.755  15.675 -0.2131 -0.2692  0.1519
12800W        W29647   5.492   2.049   4.477 -0.0278  0.1693 -0.4278
12801W        W29648   5.821   0.878   0.192 -0.1566  0.2070 -0.1454
12802W        W29649   9.309  10.786  12.991 -0.1399 -0.1529  0.0033
12803W        W29650   9.749   6.203   1.006  0.1058 -0.2721 -0.0053
12804W        W29651  11.020  11.793   5.720  0.1261 -0.2489 -0.2136
12805W        W29652   7.253   2.194  15.724  0.4331  0.1346 -0.1544
12806W        W29653  12.669   3.612   4.145  0.0426  0.0543  0.2187
12807W        W29654   2.247   0.189   1.302 -0.1188 -0.0951  0.0440
12808W        W29655   6.907   9.488   1.944  0.0187 -0.0447 -0.3583
12809W        W29656   1.898  14.676  14.073  0.2654 -0.1156 -0.4696
12810W        W29657  12.599  13.813  14.261 -0.0245 -0.0264 -0.2208
12811W        W29658  11.688   8.763  13.217  0.0521  0.0404  0.2002
12812W        W29659   8.637   0.534  16.121 -0.1399  0.4106 -0.1835
12813W        W29660  17.635  14.476   1.429 -0.1963  0.0673  0.2156
12814W        W29661  14.087   7.332  15.280 -0.0071  0.0945 -0.2184
12815W        W29662  17.720   2.355   1.831 -0.0602 -0.3097 -0.0936
12816W        W29663   5.186   7.013   4.543  0.0893  0.1916 -0.1021
12817W        W29664   4.062   5.312  11.849  0.0861 -0.2355  0.1107
12818W        W29665   5.979   8.653   3.655  0.0490  0.0360  0.1624
12819W        W29666   2.346   4.789   6.223  0.0833 -0.1693 -0.2574
12820W        W29667   0.711  12.109  15.695 -0.0308 -0.2101 -0.1964
12821W        W29668   2.486   1.580  14.357  0.1642 -0.0164 -0.1594
12822W        W29669  17.584   1.559  16.047  0.2752  0.1312 -0.1674
12823W        W29670   9.197  10.076  14.068  0.0347  0.3714  0.1358
12824W        W29671   0.645   5.512  11.608  0.1684 -0.0054  0.1486
12825W        W29672   4.770  13.233  12.614 -0.1056  0.2312  0.1583
12826W        W29673   3.009   3.424  15.322 -0.0550 -0.1568 -0.3314
12827W        W29674  16.867  15.843  15.061 -0.0181 -0.0080 -0.0546
12828W        W29675   4.406  11.670   2.989 -0.0333 -0.0234 -0.0237
12829W        W29676  16.033   4.958   2.164 -0.2318  0.2874  0.0145
12830W        W29677  13.195  14.972  13.406  0.0304  0.0137  0.1576
12831W        W29678   4.270  14.800  16.281 -0.6040  0.0502  0.1472
12832W        W29679  17.251   8.877  15.948  0.3521 -0.0043 -0.2663
12833W        W29680   7.345   9.475   5.749 -0.2802  0.0987 -0.1535
12834W        W29681   7.436  13.372   4.270 -0.2281  0.0223  0.0230
12835W        W29682   0.698  14.535   5.597  0.1570 -0.1295 -0.1110
12836W        W29683  11.748   2.698  12.986 -0.0675 -0.0309 -0.0969
12837W        W29684  13.827   2.387   4.271 -0.1400 -0.2361 -0.0703
12838W        W29685   1.563   0.494  12.999 -0.0914 -0.2948 -0.1737
12839W        W29686   6.615  12.363   4.329 -0.3036  0.3189  0.3158
12840W        W29687  16.350   5.849   1.161  0.0098  0.1618 -0.1722
12841W        W29688   6.443  11.996   1.201  0.2595  0.4605 -0.2629
12842W        W29689   1.309  16.049   0.521 -0.2030 -0.1002 -0.0834
12843W        W29690  10.944   5.933  13.132  0.0361  0.0004 -0.1001
12844W        W29691  13.593   9.810  16.248 -0.4062 -0.1483 -0.1351
12845W        W29692   2.591   0.192   3.458 -0.2329 -0.2061 -0.0811
12846W        W29693  13.039   8.569   5.613  0.0403 -0.2546  0.1130
12847W        W29694   7.279  10.985  12.869 -0.1038 -0.1366 -0.0792
12848W        W29695  17.795   4.833  12.882 -0.1053  0.0075 -0.0552
12849W        W29696   6.858  16.634   1.550  0.1882  0.0286  0.2235
12850W        W29697   1.210   5.768   3.874 -0.1196  0.1078  0.1018
12851W        W29698  10.771  16.871  11.758 -0.0013 -0.2977  0.1460
12852W        W29699   7.089   0.383  13.684  0.0031  0.1189 -0.1729
12853W        W29700   5.583   0.375   1.950  0.1517  0.0273  0.1047
12854W        W29701  11.024   7.179  16.260  0.2058  0.1836  0.3274
12855W        W29702  16.946   7.086  14.022  0.1488  0.0073 -0.3756
12856W        W29703   0.268   5.426  15.532  0.2027  0.1539 -0.4561
12857W        W29704   7.333  11.306  16.541 -0.0829  0.1819 -0.5530
12858W        W29705   2.625   5.061   4.086 -0.3319  0.0278 -0.0820
12859W        W29706  13.150   6.119   1.574  0.2798 -0.2149 -0.2855
12860W        W29707   3.735  10.090   1.360  0.1238 -0.0684 -0.1592
12861W        W29708  13.760  12.401   3.619 -0.2336  0.3638 -0.2305
12862W        W29709   9.588   5.872  13.860  0.1521  0.4019  0.2139
12863W        W29710   4.406   5.773   4.713  0.0655 -0.1152  0.0816
12864W        W29711   9.707  15.250   4.209 -0.0480  0.0735 -0.3338
12865W        W29712   9.406   6.074   1.839 -0.0118  0.2364 -0.0175
12866W        W29713   6.399   0.596  13.242  0.0278  0.3163 -0.0466
12867W        W29714   1.696   2.417   4.191 -0.2558 -0.1063  0.0655
12868W        W29715  12.285  15.952  12.659 -0.1992  0.0860  0.1146
12869W        W29716  12.742   4.938   0.462  0.0804 -0.3672 -0.2263
12870W        W29717   2.612  14.757   6.421  0.2696 -0.1468 -0.1417
12871W        W29718  14.177  17.533   0.913  0.2581 -0.1118  0.1033
12872W        W29719   2.491  14.515  15.566  0.0037  0.1456  0.0265
12873W        W29720  11.647   3.605   0.791 -0.1052 -0.0097  0.1428
12874W        W29721   2.763   1.955   2.960 -0.1337 -0.0680 -0.3123
12875W        W29722   2.819   1.229   0.780 -0.2467 -0.0614 -0.1055
12876W        W29723   0.821  10.087  12.859 -0.1996 -0.1448 -0.0100
12877W        W29724  13.623   0.188   1.609  0.0221 -0.1033  0.0561
12878W        W29725  11.878  17.705   3.648 -0.0855  0.4441  0.0814
12879W        W29726   5.955  14.602   2.063 -0.1687 -0.1092 -0.1310
12880W        W29727   5.712  12.761  12.029  0.2248 -0.0372  0.0539
12881W        W29728  12.181  10.410  12.439  0.0375 -0.2546 -0.1625
12882W        W29729  10.788  16.049  16.118 -0.0141  0.1559  0.0847
12883W        W29730  13.533   5.410  14.098  0.0359 -0.3447 -0.0516
12884W        W29731   4.004   5.553  12.424 -0.0871  0.2120 -0.1147
12885W        W29732  11.127  16.400   5.473 -0.2193 -0.2819 -0.1354
12886W        W29733   9.699   5.261   5.553  0.0699  0.2071  0.0725
12887W        W29734  16.809  16.878   0.312 -0.2388  0.0586  0.4546
12888W        W29735   2.680   5.705   3.351  0.1960 -0.1350 -0.2857
12889W        W29736  17.852  13.837   1.869 -0.2843  0.0922  0.0064
12890W        W29737   6.529  13.298   5.781 -0.0616 -0.0304  0.3573
12891W        W29738   8.558   2.370  15.754  0.3055 -0.1077 -0.1467
12892W        W29739   9.913  15.133  12.099 -0.0107 -0.0605 -0.1463
12893W        W29740  10.358   1.670   1.368 -0.1936  0.2634  0.0735
12894W        W29741  14.805  16.392  14.159  0.2012  0.0392 -0.3768
12895W        W29742  10.371   6.860  12.267  0.3110 -0.2202 -0.1754
12896W        W29743   2.405  14.774   2.777  0.0870 -0.0126 -0.0983
12897W        W29744  16.677   5.141   3.715  0.1223  0.2548 -0.1232
12898W        W29745  12.935   1.483  15.063  0.1645  0.0172  0.0763
12899W        W29746  10.568   4.994   1.511 -0.0192  0.1092  0.2425
12900W        W29747   5.993  16.142  14.656  0.0835  0.0925  0.0875
12901W        W29748   9.137   8.252  13.216  0.0747 -0.1490  0.0099
12902W        W29749   0.263   7.659  15.545  0.2316  0.2780 -0.4156
12903W        W29750   5.195   7.383   2.250  0.1311 -0.0177  0.0287
12904W        W29751  16.098   7.610   4.435  0.1340 -0.1028 -0.0926
12905W        W29752  15.853  12.720   5.660  0.1990 -0.0402 -0.2942
12906W        W29753  13.335   9.670   5.314  0.0354  0.1319 -0.2603
12907W        W29754   9.012  14.456   5.020  0.2147 -0.1222  0.0844
12908W        W29755  12.453   8.191   1.607 -0.1290 -0.1115 -0.1044
12909W        W29756  17.556  17.339  16.603 -0.2038  0.0176  0.1073
12910W        W29757   5.255  13.365  12.725  0.2433 -0.0276 -0.0214
12911W        W29758   1.890  15.012   2.465  0.0484 -0.1852  0.2301
12912W        W29759  12.653  11.457  13.689 -0.0683 -0.0301  0.1298
12913W        W29760  15.446   8.623  12.039  0.0360 -0.0625 -0.1998
12914W        W29761   2.509   9.580  15.520 -0.2747 -0.0355  0.1778
12915W        W29762   9.559   0.772   3.127  0.3166 -0.0228 -0.0519
12916W        W29763   2.197  15.729  13.188 -0.0815  0.0332 -0.2251
12917W        W29764  13.745  17.483   4.381  0.0528 -0.0366 -0.3101
12918W        W29765  17.461   5.674  12.323 -0.3407 -0.3233 -0.1006
12919W        W29766   5.830  13.746  15.410 -0.2847 -0.2897  0.4008
12920W        W29767  14.715   0.434  14.848 -0.1794  0.3102 -0.0924
12921W        W29768   6.923  16.033   2.487 -0.0383  0.0709  0.0481
12922W        W29769   5.551   8.283  15.582  0.2254 -0.0977 -0.1865
12923W        W29770  14.098  16.286  13.150  0.1853 -0.0677 -0.0309
12924W        W29771   2.947   2.998   3.556 -0.1080 -0.2299  0.0477
12925W        W29772   1.692   6.242  16.024  0.4247 -0.1124 -0.0483
12926W        W29773   6.030  11.220  11.904  0.0789 -0.0299  0.0162
12927W        W29774   7.850  16.365   0.849 -0.2680 -0.0376 -0.0019
12928W        W29775  11.181  16.053  13.169 -0.1259 -0.0727 -0.1599
12929W        W29776   9.393  17.882   1.081  0.1885 -0.1079  0.1616
12930W        W29777  15.996  15.785  13.958  0.0290  0.0292  0.0986
12931W        W29778   8.074   4.038   4.629 -0.0330 -0.1332  0.0483
12932W        W29779   4.614  10.907  11.825 -0.0114 -0.0421  0.0696
12933W        W29780   5.787   4.931   3.118 -0.3170 -0.0092 -0.0874
12934W        W29781  16.516   3.336  12.004  0.1981  0.0010 -0.1255
12935W        W29782   5.952  17.517  13.929 -0.1966 -0.1220 -0.1251
12936W        W29783  13.137   0.051   1.558  0.2998 -0.2426 -0.1719
12937W        W29784   4.391   7.256  12.900 -0.0982  0.0015 -0.2157
12938W        W29785   5.783   7.745  16.155 -0.1109  0.1997 -0.0939
12939W        W29786   9.988   0.870   0.677  0.0504  0.0497 -0.1143
12940W        W29787   3.920   4.809   1.084  0.0231 -0.0586 -0.2271
12941W        W29788  15.188   1.258   4.290  0.1338  0.2720 -0.2543
12942W        W29789   8.261  14.988  15.436  0.0590  0.1218 -0.0103
12943W        W29790   9.773  12.102  14.627  0.1044 -0.1484 -0.1633
12944W        W29791   9.522  14.949  16.051 -0.1408  0.5194  0.0117
12945W        W29792  11.611  14.176   3.763  0.0742 -0.1834  0.3685
12946W        W29793  10.078   3.916   0.438 -0.0653 -0.0628 -0.0572
12947W        W29794   7.011  12.515   3.869  0.0464 -0.0630 -0.2217
12948W        W29795   4.190  17.053  15.266  0.1646 -0.2648 -0.1670
12949W        W29796  15.043   8.535   3.350  0.1063 -0.0717 -0.0458
12950W        W29797   1.144   3.274  16.538 -0.1074  0.1749  0.0940
12951W        W29798   8.917   1.101  12.966  0.2323  0.1936 -0.2651
12952W        W29799   4.138  10.563  15.578 -0.0486 -0.0249  0.0037
12953W        W29800   9.377  13.988   6.205  0.2815 -0.3440  0.0287
12954W        W29801  11.102  16.712   1.431 -0.1505 -0.0516  0.3361
12955W        W29802   3.031  17.254   2.751  0.3265  0.1475  0.1224
12956W        W29803  10.486   4.405  12.851  0.5649 -0.0067 -0.2270
12957W        W29804   6.741   2.706   5.410 -0.0947  0.1927 -0.3097
12958W        W29805  12.804   8.251   3.385 -0.2634 -0.1811  0.1651
12959W        W29806   9.257   1.876  11.857 -0.2702 -0.3124 -0.0502
12960W        W29807   2.403  11.328  13.389  0.1734  0.2348  0.0698
12961W        W29808  15.843  11.251  13.666  0.2758  0.0610  0.0860
12962W        W29809  15.296   7.475  11.990 -0.3276  0.0331  0.2413
12963W        W29810   2.943   5.802  14.203  0.2935  0.1642 -0.0480
12964W        W29811   3.630   3.785   6.278  0.1128 -0.3081  0.3357
12965W        W29812   5.611  10.494  11.951  0.1632  0.1061  0.0009
12966W        W29813  13.318  12.670   3.590 -0.1342  0.2121  0.3399
12967W        W29814   0.080  12.572   2.814  0.1571  0.1587 -0.0201
12968W        W29815  12.729   7.344  15.632 -0.1011 -0.1915  0.2426
12969W        W29816   6.847   0.440   1.962  0.0233 -0.0853 -0.3485
12970W        W29817  17.818   9.114   5.276  0.0410 -0.0970 -0.1609
12971W        W29818   0.798   8.128   3.020  0.2312 -0.2871  0.2661
12972W        W29819  14.027   1.354  11.262 -0.2360  0.0087 -0.0611
12973W        W29820   5.678  17.652   4.589  0.0991 -0.1131 -0.0950
12974W        W29821   3.401  14.914  13.653 -0.0662  0.0023 -0.1275
12975W        W29822  14.676   6.980   3.969  0.3769  0.1918  0.4529
12976W        W29823  15.195   3.664   2.055  0.0123 -0.0833  0.2302
12977W        W29824   9.081  17.953  15.116  0.3365  0.0039  0.2103
12978W        W29825   4.015  11.744  13.860 -0.0743  0.2800  0.0716
12979W        W29826  13.033   6.005  11.777 -0.0755 -0.0361  0.0321
12980W        W29827  17.473   7.676   4.194  0.2220 -0.2025  0.1968
12981W        W29828   1.431   8.485  14.682 -0.0798  0.1044  0.0342
12982W        W29829   7.081   4.402  12.472  0.0318 -0.0154 -0.0933
12983W        W29830   4.815   8.273   0.903 -0.0297  0.2211  0.1979
12984W        W29831  16.775  15.155  16.632 -0.3584  0.0264  0.0152
12985W        W29832  13.731  17.149  12.837 -0.3273 -0.1018 -0.0608
12986W        W29833   9.763   5.433   5.079 -0.0388 -0.0899 -0.3286
12987W        W29834  10.246   8.393   5.126 -0.0887  0.0107 -0.1365
12988W        W29835   7.743   3.060   2.708  0.5296 -0.1910  0.0469
12989W        W29836   5.699   6.089  13.175  0.1053 -0.0671 -0.1337
12990W        W29837  17.850   4.052   3.206  0.0580 -0.2585 -0.0785
12991W        W29838   7.735   6.699   2.864  0.0603  0.3305  0.1642
12992W        W29839  15.936  14.100  11.604  0.0225  0.0953  0.1185
12993W        W29840  13.798  12.081  15.940  0.0436  0.1437  0.0257
12994W        W29841   7.939   4.249   1.323 -0.0713 -0.1626  0.2173
12995W        W29842  16.540   9.737   5.253  0.2801 -0.1283 -0.1086
12996W        W29843   6.983   4.108   3.534 -0.1202 -0.1794 -0.1474
12997W        W29844  16.344   7.669  12.067 -0.2063  0.2087  0.2460
12998W        W29845   1.076  13.397   2.106  0.0437  0.1978 -0.0739
12999W        W29846  17.277   5.988  16.329 -0.2261 -0.0730  0.0931
13000W        W29847   7.410   6.138  12.571 -0.2390  0.3927 -0.1161
13001W        W29848  15.669   6.961   3.400 -0.0321  0.1395  0.2871
13002W        W29849  11.087   3.358   4.551  0.0023 -0.2364  0.2783
13003W        W29850  16.360   2.831  10.993 -0.1232 -0.1134  0.2057
13004W        W29851  17.434  10.146  16.492  0.3142  0.0090 -0.0445
13005W        W29852  13.444   7.584   3.965  0.2256 -0.1561  0.1556
13006W        W29853   6.108   6.926   2.097 -0.0881 -0.0325 -0.0242
13007W        W29854   7.935   7.718  14.597 -0.2804 -0.1691  0.0484
13008W        W29855   6.292   7.960   1.300 -0.0594  0.0773 -0.0997
13009W        W29856  14.771   8.668  14.266  0.0600 -0.2594 -0.2193
13010W        W29857  10.431  17.078  15.082  0.4245 -0.5021 -0.0894
13011W        W29858  16.562   9.853  14.632  0.1809 -0.0901  0.2435
13012W        W29859  15.823   4.146   3.817 -0.0629  0.2224  0.2554
13013W        W29860   0.374   4.088   5.523  0.0111  0.1480  0.1007
13014W        W29861   1.492  12.712  14.425 -0.0892  0.0000  0.2116
13015W        W29862  14.611   6.110  13.051  0.3375  0.1279  0.0881
13016W        W29863  16.381  14.550   2.781 -0.1886 -0.1307  0.1625
13017W        W29864   8.422  12.956   0.677  0.3265  0.1099 -0.2718
13018W        W29865  17.556   1.052  12.336  0.0607 -0.0874 -0.3724
13019W        W29866  17.893  16.881  12.454  0.0836 -0.3560  0.3650
13020W        W29867  16.104   9.283  13.036  0.3363 -0.1302  0.4529
13021W        W29868  14.115  11.707  16.168  0.0226  0.0794  0.0083
13022W        W29869   7.337   9.209  12.695 -0.0257 -0.1244 -0.0044
13023W        W29870  10.273  10.639  14.769  0.1059 -0.2384 -0.3093
13024W        W29871   5.072  15.931  13.590 -0.0260  0.1420 -0.0216
13025W        W29872   2.473  13.274   5.425 -0.0905  0.1892 -0.0342
13026W        W29873   1.724   3.221  12.714  0.0856  0.0350  0.2375
13027W        W29874  17.171   1.820  16.299 -0.0579  0.1311 -0.2366
13028W        W29875  15.465  12.422  13.434 -0.1221  0.1787  0.0894
13029W        W29876   4.944  17.496  15.262  0.1813  0.1954  0.3465
13030W        W29877  12.555   7.193   4.737  0.1717 -0.2853  0.1333
13031W        W29878   4.444   6.133  15.738  0.0106 -0.2172  0.1030
13032W        W29879  16.512   3.614   1.246  0.1986 -0.2406  0.1447
13033W        W29880   6.907  14.520   4.620  0.2295  0.2805 -0.1029
13034W        W29881  12.963   4.586   0.117 -0.4207 -0.0805  0.2727
13035W        W29882  17.779   2.720  15.410 -0.0249  0.0469  0.0474
13036W        W29883  14.451  12.415  14.088 -0.1623  0.2020  0.2327
13037W        W29884   7.253   1.882  12.935 -0.0554  0.1021  0.2853
13038W        W29885  13.560   2.122  15.325 -0.1551 -0.1615  0.1472
13039W        W29886  12.035   3.269   1.038  0.0317 -0.3691 -0.0261
13040W        W29887  15.926  11.919  12.057 -0.0415  0.0488  0.1962
13041W        W29888   1.650   8.010  11.878 -0.1598  0.1665  0.0486
13042W        W29889   9.889   0.059   1.940 -0.0524  0.0563 -0.2606
13043W        W29890   3.198   3.788  15.648 -0.2407  0.3020  0.1855
13044W        W29891   9.987   0.962  16.292 -0.0160 -0.0420  0.0630
13045W        W29892   7.224  16.819   6.187 -0.1284 -0.0896 -0.3775
13046W        W29893  17.080  15.870   3.376 -0.1491 -0.1530 -0.0046
13047W        W29894   4.502   5.083   2.674 -0.1562  0.0322 -0.0489
13048W        W29895  13.722  14.566  15.285  0.1699  0.0782  0.2105
13049W        W29896  11.931  11.756   1.537 -0.1883  0.4237 -0.2564
13050W        W29897   9.907   1.484   1.177  0.1515  0.2483  0.2098
13051W        W29898   6.613  10.269  13.756  0.0317 -0.2293  0.2174
13052W        W29899  13.243  15.255  16.439  0.1035  0.3126 -0.0846
13053W        W29900   3.189  14.216   0.052 -0.1964  0.0289  0.0149
13054W        W29901   6.377   2.094  15.290  0.1211  0.0176 -0.1432
13055W        W29902   0.396  11.784   2.829  0.0293 -0.0835 -0.1639
13056W        W29903  14.844   9.215  16.491 -0.0298  0.1402  0.0203
13057W        W29904   7.800   5.959   2.482  0.1067 -0.2350 -0.0669
13058W        W29905   1.907   0.931   2.774 -0.0535 -0.1114  0.0371
13059W        W29906  17.870   3.818   2.742  0.3361 -0.1322 -0.2115
13060W        W29907  12.489   0.591  14.030 -0.1079  0.2542 -0.1418
13061W        W29908  14.343   8.976   4.673  0.1892 -0.1481 -0.0221
13062W        W29909  12.877   0.973   3.688 -0.0720 -0.1381 -0.1759
13063W        W29910  12.151   4.254   3.547 -0.0213  0.0493 -0.3487
13064W        W29911  15.740   2.393   0.751 -0.3514  0.0271 -0.1224
13065W        W29912  17.717  11.441  12.583 -0.2566 -0.1466 -0.0647
13066W        W29913  14.398  10.234  13.510 -0.1157 -0.1706 -0.0960
13067W        W29914   8.883  12.363  15.156  0.1105 -0.1515 -0.0991
13068W        W29915   6.037  17.675   4.986 -0.4394 -0.1100 -0.3477
13069W        W29916  13.530  12.373   2.124  0.0505  0.0294  0.1579
13070W        W29917   1.853  14.405  13.450  0.0783 -0.0334  0.0405
13071W        W29918   9.372   1.444   0.831 -0.1056 -0.2107  0.0072
13072W        W29919   0.547  16.157   3.230  0.5362 -0.4228 -0.0205
13073W        W29920   7.747  12.562  12.294 -0.0425 -0.1489  0.5091
13074W        W29921   9.423  15.879  11.683  0.4776  0.2262  0.2453
13075W        W29922  17.364   1.946  15.814  0.1319 -0.2072 -0.2596
13076W        W29923   8.383   7.979   4.666 -0.0778  0.0178  0.1831
13077W        W29924   3.371   4.235  16.017  0.1205  0.0275  0.0911
13078W        W29925  16.029   3.450  12.192  0.1331 -0.0108  0.1596
13079W        W29926   5.609  15.759  16.047  0.0416 -0.0876 -0.1119
13080W        W29927  14.312   7.229   3.075 -0.1780 -0.1743  0.0861
13081W        W29928  11.760  13.141  12.218 -0.2824  0.2834 -0.0048
13082W        W29929   3.399  17.181  11.728 -0.2947 -0.1589 -0.0360
13083W        W29930  13.236   4.989  14.330  0.2363  0.2939 -0.0480
13084W        W29931  10.103   9.299  14.473 -0.0671 -0.2146  0.1122
13085W        W29932   3.565  10.719   2.220 -0.4133 -0.3847  0.1723
13086W        W29933  15.576  16.279  12.235  0.1117 -0.0038  0.1145
13087W        W29934   5.216   7.313  15.546 -0.1039  0.1993 -0.1634
13088W        W29935  16.581   2.439  11.351 -0.3597 -0.0223  0.1678
13089W        W29936  15.973  12.130   3.201 -0.0104 -0.1274 -0.0918
13090W        W29937  13.565  13.175   0.219  0.2383  0.0410 -0.0698
13091W        W29938  14.160  17.209   5.475  0.0079  0.0343 -0.0158
13092W        W29939   0.261  14.952  13.956 -0.1839 -0.0577 -0.0472
13093W        W29940   3.207  17.687   3.020 -0.2514 -0.2654  0.1218
13094W        W29941   1.902   3.189  15.893 -0.5011  0.1772  0.3863
13095W        W29942   1.864   5.609  15.187 -0.0638 -0.0410 -0.1117
13096W        W29943  14.903   8.032  13.094  0.2021 -0.0426 -0.1106
13097W        W29944   9.478  10.542  14.288  0.0072  0.2769  0.2124
13098W        W29945   4.700   0.014  11.785 -0.1109 -0.1213 -0.4148
13099W        W29946  11.779  10.113   1.284 -0.2063  0.1166 -0.0956
13100W        W29947   9.425   7.430   1.247 -0.2088 -0.2077 -0.0682
13101W        W29948  13.094  13.238  15.639 -0.1362  0.1240 -0.0171
13102W        W29949  16.836   8.325  13.281  0.2082 -0.2347  0.0241
13103W        W29950  17.591  12.907   0.317 -0.1939  0.4121 -0.4263
13104W        W29951  10.553  17.802  16.113 -0.2626  0.0259  0.3786
13105W        W29952   7.937   0.242   2.145 -0.1780 -0.0599  0.0790
13106W        W29953  17.269  14.058   4.603 -0.1094  0.2270  0.0755
13107W        W29954  14.635   9.566   1.796  0.2151 -0.1226  0.0269
13108W        W29955  12.088  14.051   2.901 -0.3631  0.4787 -0.3157
13109W        W29956   1.444   0.350   4.601 -0.2273  0.1410  0.4113
13110W        W29957  17.078   5.789  11.610 -0.3493  0.2300  0.0585
13111W        W29958   7.965   9.843  13.517 -0.0614  0.0426 -0.0785
13112W        W29959  14.961   6.627   0.391 -0.4791 -0.3542 -0.0083
13113W        W29960  11.269   1.708   1.424 -0.0525 -0.0440  0.1094
13114W        W29961  16.155  10.432  12.833 -0.0757  0.1633 -0.1030
13115W        W29962   9.927   1.330  12.190  0.3348 -0.0976  0.0657
13116W        W29963  15.207  13.425  13.556  0.1986  0.0590  0.3045
13117W        W29964  11.193  16.486  15.278 -0.0148  0.0486 -0.3434
13118W        W29965   9.702   5.503  15.613 -0.2069 -0.3463  0.1458
13119W        W29966   2.436  10.033  13.061  0.0038 -0.2534  0.0267
13120W        W29967  17.093  14.937   4.917 -0.1521 -0.0847  0.0078
13121W        W29968  17.025  10.447  12.174  0.1681  0.2363 -0.1664
13122W        W29969  17.780  15.996  13.743  0.3887 -0.0848 -0.0851
13123W        W29970   5.435   7.681   3.894  0.4148  0.1994 -0.0571
13124W        W29971   5.939   5.845  15.646  0.2774 -0.1341  0.2450
13125W        W29972  13.120  15.736  15.455 -0.0133 -0.0748  0.0286
13126W        W29973   1.218   0.480   3.658 -0.3339  0.2058  0.1947
13127W        W29974   3.186   1.146  13.794  0.1863  0.1242 -0.2715
13128W        W29975   5.187   6.189  13.660 -0.0564  0.0804 -0.2518
13129W        W29976   0.095  16.486  14.849  0.1113  0.0321  0.1076
13130W        W29977  11.771  15.592   5.055  0.1145  0.1082  0.1839
13131W        W29978  10.350   3.602  15.884 -0.1124 -0.3688  0.2495
13132W        W29979   9.348  16.891  12.397  0.1405  0.2301 -0.1169
13133W        W29980   3.138   6.142  15.127  0.2260  0.2468 -0.0283
13134W        W29981   4.073   6.219  14.647  0.3288 -0.3341 -0.0218
13135W        W29982  15.178   8.937  13.128 -0.0071 -0.0297  0.2761
13136W        W29983   5.983  13.901   2.813  0.1448 -0.1118  0.1346
13137W        W29984   6.248   9.655  15.499 -0.0684  0.0778 -0.0708
13138W        W29985   0.862   7.142   4.728  0.2169 -0.0515 -0.1651
13139W        W29986  10.179   4.262  12.429 -0.0960 -0.1060 -0.1407
13140W        W29987  16.088   0.481   2.472 -0.1132  0.0469  0.1185
13141W        W29988   0.068   9.855   1.201  0.2857 -0.1390 -0.1521
13142W        W29989   4.696  17.801  16.170 -0.1883  0.0794 -0.0005
13143W        W29990  14.849  16.692   1.438 -0.2406 -0.1990 -0.4598
13144W        W29991  11.457   9.603   4.341  0.0762  0.0867 -0.2723
13145W        W29992   2.211   4.711  14.058 -0.0950 -0.1645 -0.2211
13146W        W29993   3.586  17.528   3.926  0.0768 -0.0891 -0.0030
13147W        W29994  13.499   8.811  12.819 -0.0921 -0.3555 -0.0291
13148W        W29995   1.964  16.936   5.607  0.0142 -0.2323 -0.0551
13149W        W29996   5.985   2.323   0.901 -0.0482  0.0107  0.0712
13150W        W29997   2.893   7.681  13.362 -0.0266 -0.2313 -0.0003
13151W        W29998   4.648   7.063  15.850 -0.0669  0.2241 -0.0501
13152W        W29999   5.571   3.412  14.711 -0.0987 -0.1695 -0.0202
13153W        W30000   0.448   1.820   1.376  0.1645  0.1411  0.0713
13154W        W30001  13.444  15.354  15.550 -0.0394 -0.0142 -0.1953
13155W        W30002  18.032  14.876   3.039  0.2350  0.0884 -0.0417
13156W        W30003   1.456   6.606  13.606  0.0195 -0.2371 -0.0305
13157W        W30004  12.553  11.848  14.973 -0.2918 -0.0213 -0.1031
13158W        W30005   5.623   0.027  12.715 -0.0288 -0.3005  0.0020
13159W        W30006  12.951   7.920  11.933  0.2930  0.1865 -0.4404
13160W        W30007   7.569  16.750   2.608 -0.1266  0.0985  0.0056
13161W        W30008  12.939   1.267  13.290 -0.2250 -0.2116 -0.1630
13162W        W30009   4.881  15.146   4.982 -0.0181  0.0203 -0.0590
13163W        W30010   2.466   1.890  12.075 -0.2066  0.0816  0.3285
13164W        W30011   7.854   4.632  13.071 -0.2389 -0.0169 -0.0523
13165W        W30012  13.958  13.652  13.348 -0.1180  0.2592 -0.1348
13166W        W30013  18.068  13.816  13.898 -0.0061 -0.1463 -0.1432
13167W        W30014  11.446   8.427   3.904  0.0490 -0.1824 -0.1318
13168W        W30015  10.027  17.592  12.724  0.2417  0.1177 -0.2478
13169W        W30016  12.056   1.835   4.220  0.0489  0.1771  0.0899
13170W        W30017   3.374   6.927   0.660  0.1070  0.1007  0.1743
13171W        W30018  17.570   8.098   0.389  0.2699 -0.0765  0.0881
13172W        W30019  11.253  16.842   3.444 -0.2495  0.1208  0.1272
13173W        W30020   3.561   6.876  12.495 -0.2406 -0.2146 -0.1646
13174W        W30021  16.305  13.271   3.178  0.0387 -0.2919  0.0352
13175W        W30022   5.439   3.605   3.369 -0.2458 -0.0087  0.2483
13176W        W30023   4.302  15.757   2.401 -0.2155  0.4144 -0.2615
13177W        W30024   8.495  16.705  14.981 -0.4460  0.0986  0.2565
13178W        W30025   1.623  10.266  12.130 -0.3228 -0.1078  0.0412
13179W        W30026  10.787   5.546   1.530 -0.0366 -0.1669  0.3388
13180W        W30027   0.097   2.804  12.440 -0.2480  0.1773 -0.1309
13181W        W30028  10.810  10.897   4.873  0.3388  0.4180 -0.0954
13182W        W30029   2.234  11.510  14.336  0.2675 -0.1251  0.3671
13183W        W30030  10.490   8.744   3.860  0.0650  0.2492  0.0033
13184W        W30031  12.454   3.921  14.495  0.3050  0.4055 -0.0325
13185W        W30032   5.658   9.709  14.052  0.1803  0.2675 -0.0239
13186W        W30033   5.296   6.366  12.789 -0.2617  0.1199 -0.0936
13187W        W30034   8.457   8.697  11.942  0.1767  0.0037 -0.0295
13188W        W30035   9.087   7.638  16.050 -0.1511 -0.0146 -0.1150
13189W        W30036  12.665   6.696   2.449 -0.1339 -0.1688  0.1371
13190W        W30037  16.505   5.224   4.245 -0.0386  0.2925  0.1090
13191W        W30038   4.757   8.396   3.071 -0.0472 -0.1262  0.2129
13192W        W30039  15.935  10.366  14.631 -0.1264  0.1461 -0.3086
13193W        W30040   7.683  10.965   2.526 -0.0422  0.0639 -0.0407
13194W        W30041  12.105   6.339  11.613  0.2032  0.0349 -0.1694
13195W        W30042  12.415  10.214   0.612  0.0215  0.2362 -0.2654
13196W        W30043   8.430   0.182  13.768  0.0712  0.1586 -0.1457
13197W        W30044   4.096  17.114   0.863 -0.1915  0.0007  0.2179
13198W        W30045   1.304  14.194   3.578 -0.2067  0.2684  0.0656
13199W        W30046  11.582  11.217  12.767  0.0780  0.2413  0.2418
13200W        W30047   2.975  13.639  13.183  0.5336  0.0451 -0.1336
13201W        W30048  11.657   5.509  16.469 -0.0749  0.0711  0.2177
13202W        W30049  12.314   7.395   2.155 -0.2101  0.1963 -0.2102
13203W        W30050   3.048  15.712   1.529  0.0005  0.2523  0.2539
13204W        W30051   1.580   4.050   2.568 -0.0653  0.0357  0.4543
13205W        W30052   6.995   5.576  14.199  0.1413 -0.1299 -0.2946
13206W        W30053   2.878   5.088   5.019  0.1358 -0.1424  0.2142
13207W        W30054   6.387  17.093   1.288 -0.2120  0.1641 -0.0219
13208W        W30055  17.053  13.612  12.055 -0.1465  0.0383 -0.2106
13209W        W30056   7.132  11.123   5.382  0.0316 -0.1486  0.3196
13210W        W30057   5.439  14.487  16.389 -0.2890 -0.1125  0.0450
13211W        W30058  12.903   0.452  14.253  0.2735 -0.0735  0.0039
13212W        W30059  12.036  11.502  11.907  0.0429  0.4500  0.1090
13213W        W30060   2.673  13.534   1.907  0.0302  0.0788 -0.1166
13214W        W30061  17.004   8.044  11.628  0.1978  0.5460  0.0083
13215W        W30062   0.860   2.050  13.939  0.0178  0.0480 -0.0933
13216W        W30063   1.513   5.052   5.377  0.1895 -0.1106 -0.2434
13217W        W30064  13.822   4.189  15.874  0.2975  0.1785  0.0360
13218W        W30065  13.408   2.618  14.033  0.1924 -0.0774 -0.0508
13219W        W30066  13.264  14.220   1.163 -0.1086 -0.3657  0.2432
13220W        W30067  12.652  12.560  13.466  0.0174 -0.1985 -0.2403
13221W        W30068  15.157   4.567   4.158 -0.1647  0.0356  0.1104
13222W        W30069  15.821   1.189  14.243  0.1265 -0.0330 -0.3846
13223W        W30070  13.587   4.852  13.268 -0.1267  0.3231  0.1566
13224W        W30071  12.576  17.669   0.373 -0.1290  0.0384  0.1955
13225W        W30072   0.787   1.490   1.222 -0.0358  0.0145  0.0024
13226W        W30073  11.037   7.225  13.545 -0.0376 -0.1452  0.0801
13227W        W30074  12.607  10.801   3.651  0.1367 -0.0888  0.0537
13228W        W30075  17.942   5.417  14.185  0.0278  0.0055  0.1276
13229W        W30076  15.297   6.966   0.476 -0.0715 -0.1220 -0.2307
13230W        W30077   0.407   8.225  12.332 -0.1211 -0.0606 -0.1721
13231W        W30078  16.126   4.063  16.581 -0.0661 -0.2173 -0.0015
13232W        W30079   4.480   6.620  15.971  0.2626  0.1307  0.1472
13233W        W30080  14.675   7.365  16.464  0.0874 -0.0817  0.1164
13234W        W30081  10.097   2.937   1.270 -0.0637 -0.0182  0.1995
13235W        W30082  17.007   3.034  14.155 -0.0718 -0.2671 -0.0421
13236W        W30083   8.708  11.506   3.190 -0.1152 -0.2157 -0.0682
13237W        W30084   2.538   7.375   2.603  0.0196 -0.1156 -0.0799
13238W        W30085   9.739   5.866  12.495 -0.3716  0.0356  0.2844
13239W        W30086   3.835   4.056  13.947  0.0203 -0.0948 -0.1201
13240W        W30087   4.344   4.849  12.047 -0.0355  0.0229  0.1106
13241W        W30088   6.704  10.800  15.960  0.0501 -0.0996 -0.0569
13242W        W30089  11.261   1.151  13.995 -0.0467  0.3755  0.0612
13243W        W30090   2.912  11.445  12.535 -0.0364  0.1117 -0.3354
13244W        W30091   9.954  14.006   0.611  0.0009  0.1107 -0.1803
13245W        W30092   8.354   1.831  15.913  0.0901 -0.1577  0.2747
13246W        W30093   9.686  10.914  12.183  0.2931  0.0067 -0.0302
13247W        W30094   7.430   8.966   5.020  0.0229  0.3188  0.4012
13248W        W30095   9.010   3.121   4.363  0.0345  0.2037 -0.0876
13249W        W30096   0.303   3.830  14.873  0.1275  0.0563  0.1300
13250W        W30097  10.612  17.552   0.365 -0.1407 -0.0769  0.0927
13251W        W30098  16.274   8.520  12.443  0.4086 -0.2182 -0.1663
13252W        W30099   8.768  11.688   1.583  0.0174  0.0511 -0.3851
13253W        W30100  16.069  13.687  15.479  0.0360 -0.1162 -0.1512
13254W        W30101   8.373   0.996  15.948  0.0430 -0.0920 -0.5370
13255W        W30102  14.474   3.678   6.181  0.0137 -0.1020  0.3784
13256W        W30103   8.676  17.718   5.876 -0.2177  0.1038  0.0363
13257W        W30104   6.062   1.518  11.939 -0.0580  0.0253  0.2770
13258W        W30105   3.285  17.924   2.393  0.0355 -0.4292 -0.0211
13259W        W30106   7.482  12.077  13.593 -0.0373 -0.0708 -0.0055
13260W        W30107   9.944  17.825  11.772 -0.0160  0.0750 -0.0010
13261W        W30108   3.818  14.321   1.229  0.0137 -0.2313  0.0489
13262W        W30109  14.837   6.431   3.523 -0.2545  0.0516 -0.1790
13263W        W30110   6.980  17.709   4.423 -0.0838  0.0675  0.0428
13264W        W30111   6.082  17.030  11.640 -0.1293  0.1826 -0.1232
13265W        W30112  11.684  13.959   1.116 -0.0016 -0.3795  0.0957
13266W        W30113   5.101  15.205   5.440  0.1194 -0.0545  0.0848
13267W        W30114  16.609   8.875  12.977  0.2997  0.3042 -0.2810
13268W        W30115   1.957   5.970  12.001  0.1870 -0.1963 -0.0656
13269W        W30116  13.500  13.768  13.107  0.1363 -0.2798 -0.1886
13270W        W30117  13.206   1.673   0.807 -0.0655 -0.0351  0.0227
13271W        W30118  14.168  13.023   3.993  0.1407 -0.0345  0.2350
13272W        W30119   6.408   5.491  12.906 -0.1425 -0.0894  0.2437
13273W        W30120  10.738  13.991   1.270 -0.1903 -0.0504  0.2177
13274W        W30121   4.871   0.628  12.890 -0.0279  0.2542  0.1153
13275W        W30122   5.140   6.488  16.387 -0.2955  0.1147  0.2283
13276W        W30123   7.812   4.804  12.484  0.3015 -0.1153  0.1363
13277W        W30124   2.554   5.222   3.362  0.0319  0.0786 -0.0958
13278W        W30125  11.017  15.196  13.983  0.2741 -0.5943  0.0644
13279W        W30126  11.356  13.264  13.472 -0.1379 -0.1749  0.0901
13280W        W30127  14.116   2.227   0.703  0.0414  0.1535 -0.1592
13281W        W30128  16.617  10.263  10.534  0.1841  0.0751 -0.0324
13282W        W30129   6.825   9.189   4.460  0.3438 -0.1842  0.1019
13283W        W30130  12.107   9.847   3.598  0.3932  0.0760 -0.0094
13284W        W30131  16.187  15.128  16.378 -0.1940  0.2892 -0.1363
13285W        W30132  17.518   9.789  13.100  0.1294 -0.4375 -0.0404
13286W        W30133   3.659  15.040  11.709 -0.1407 -0.2587 -0.1191
13287W        W30134   1.243   8.255   0.985  0.1467  0.2040  0.1147
13288W        W30135   5.768   7.985   1.298  0.1090 -0.1965 -0.0813
13289W        W30136   6.000   8.361  12.578 -0.0445  0.0609  0.2616
13290W        W30137   6.645   1.218   2.110 -0.1449  0.0305  0.0229
13291W        W30138   6.031   2.437  12.241  0.1615  0.3560 -0.1849
13292W        W30139   5.564   0.220  13.336 -0.0581 -0.0441 -0.2085
13293W        W30140  15.906  15.994   5.186  0.1535 -0.0071  0.1279
13294W        W30141   8.412   7.596  15.930 -0.0539 -0.1152  0.1740
13295W        W30142  12.011  10.273   5.700  0.0079 -0.1333 -0.2111
13296W        W30143   1.425   7.263   3.848 -0.3074 -0.1827 -0.1079
13297W        W30144   7.491   3.012  15.391  0.0326 -0.2197  0.0121
13298W        W30145   8.867  13.205   1.537 -0.2079  0.0193  0.1010
13299W        W30146   2.401   8.351   0.482  0.0341  0.0268  0.0660
13300W        W30147  17.732  14.432  13.482 -0.2032 -0.0480 -0.2430
13301W        W30148  10.469   7.522  13.039  0.1986  0.0534  0.1749
13302W        W30149   8.599   6.916  12.918  0.1309 -0.0985  0.0392
13303W        W30150  11.623   0.771  13.886 -0.2722 -0.2705  0.0512
13304W        W30151   4.251  17.135   0.314 -0.2228  0.1114  0.0114
13305W        W30152  16.318  14.891  13.412 -0.0428  0.2594 -0.0857
13306W        W30153  12.344  11.242   2.843  0.1223 -0.0232 -0.1780
13307W        W30154   1.750  17.080   2.651  0.2777  0.0605 -0.2463
13308W        W30155  16.922   2.661   5.368 -0.0382  0.0822 -0.0748
13309W        W30156   8.340   6.108  15.535 -0.1408 -0.1251  0.2904
13310W        W30157  13.789  14.067   3.211  0.0075  0.1111  0.0084
13311W        W30158   1.435  14.133   0.548 -0.3128 -0.1288 -0.4000
13312W        W30159   3.820   0.230  16.343  0.0088  0.1775 -0.0679
13313W        W30160  15.466   8.806  11.578  0.0199 -0.0031 -0.3651
13314W        W30161  15.585   1.483  15.445  0.1046  0.0275  0.3216
13315W        W30162   3.229  16.849   3.903  0.1215  0.4477  0.1105
13316W        W30163  11.659   0.980   3.428  0.2941 -0.1441 -0.1452
13317W        W30164   1.152  17.501  16.415 -0.4534  0.0331 -0.0602
13318W        W30165   6.632  16.982   0.473  0.0373  0.3064  0.0380
13319W        W30166  17.306  14.734  14.518  0.0332 -0.2118 -0.1114
13320W        W30167   6.731   7.943  16.194 -0.1774 -0.1436 -0.0015
13321W        W30168   7.353   3.281  13.272 -0.3766 -0.0148 -0.2961
13322W        W30169   9.183  16.477  13.117  0.0357  0.2434  0.2435
13323W        W30170  15.606  12.197   1.893  0.0852  0.0184 -0.1395
13324W        W30171  12.231  13.279  12.360 -0.0778  0.0791 -0.1965
13325W        W30172   3.710   5.957  12.700 -0.1962 -0.0621 -0.2495
13326W        W30173   1.603   4.647  16.381 -0.1068 -0.1373  0.1420
13327W        W30174  10.925  12.718  16.278 -0.1136 -0.0530  0.2097
13328W        W30175  16.113  16.122  11.550  0.1832  0.1753  0.0905
13329W        W30176  17.131  14.388   1.039 -0.0590 -0.0683  0.2419
13330W        W30177  16.294  11.523  12.187  0.1859 -0.0008 -0.1029
13331W        W30178   5.679  15.511   0.548  0.1781 -0.0510  0.2171
13332W        W30179   6.894  15.722   0.112  0.0715 -0.0307  0.1006
13333W        W30180  17.508   5.294   5.044 -0.0589 -0.0708 -0.0699
13334W        W30181   5.825   4.627  12.208  0.0455 -0.0518  0.1962
13335W        W30182   2.296   0.921  13.164  0.1119  0.0756 -0.1685
13336W        W30183  15.863   0.922   2.504  0.1127 -0.1647 -0.1566
13337W        W30184   7.596   7.975   0.538  0.0926 -0.2340 -0.1183
13338W        W30185  11.176   6.096   1.767 -0.2594 -0.1258 -0.0960
13339W        W30186  15.541   2.033  12.607 -0.3872  0.4176  0.1174
13340W        W30187   1.589   3.266  16.294  0.1243 -0.0496  0.4447
13341W        W30188   3.181  10.245   4.139 -0.3758 -0.0256 -0.1320
13342W        W30189   1.225  17.681  15.075 -0.1355  0.2060  0.2622
13343W        W30190   2.016   1.200   1.330  0.1103  0.0571 -0.1642
13344W        W30191   9.857   6.463   1.801 -0.2205 -0.3689  0.1875
13345W        W30192  13.157   4.498  11.841  0.3323 -0.0148 -0.1819
13346W        W30193  10.620   9.362  12.248  0.0993  0.0956  0.0923
13347W        W30194   4.382  15.875   0.374 -0.2872  0.0345  0.2557
13348W        W30195   5.904  13.977   3.745  0.3122 -0.1774 -0.0996
13349W        W30196   7.875   9.191  15.401  0.1691 -0.1743  0.0656
13350W        W30197  15.520   9.317  12.330  0.0197 -0.1617  0.1061
13351W        W30198   3.749  11.263  16.156  0.0310 -0.3825 -0.4003
13352W        W30199   0.619   3.085   2.413 -0.2756  0.2012  0.3842
13353W        W30200   7.123   7.980  11.931  0.1427 -0.1900  0.0628
13354W        W30201   9.788  16.342  11.885  0.1077  0.1525  0.1474
13355W        W30202  10.005   4.109   2.516 -0.2007  0.0823 -0.0591
13356W        W30203  16.415   0.916   1.151 -0.0551 -0.0302 -0.0268
13357W        W30204   3.443  14.796   4.582  0.1311  0.1113  0.0503
13358W        W30205   7.655   1.119  13.322  0.1710  0.0429 -0.0724
13359W        W30206   2.936  12.250  14.634 -0.2025  0.2867 -0.2789
13360W        W30207   6.671  11.997   2.260  0.0782  0.2277 -0.1537
13361W        W30208   7.922  16.458  15.843 -0.0696  0.1956  0.1831
13362W        W30209   3.636   7.389   2.194 -0.1030  0.1297 -0.0191
13363W        W30210  11.479   4.493   3.992 -0.0327 -0.1607  0.1556
13364W        W30211   2.849  17.113   3.219  0.0134  0.0475 -0.0076
13365W        W30212   0.590  13.318   4.532  0.0038  0.0506  0.1390
13366W        W30213  17.139  15.121  13.268  0.1929 -0.3155  0.0086
13367W        W30214   9.337  14.176  13.594 -0.1585 -0.2014  0.1676
13368W        W30215   2.715  10.758  12.669  0.0939  0.0118 -0.4160
13369W        W30216   7.659   6.037   1.949 -0.2575 -0.2533 -0.0468
13370W        W30217   6.695  11.710  11.744 -0.0395 -0.1697  0.0600
13371W        W30218  12.776   1.959  16.332  0.1297 -0.0343  0.2950
13372W        W30219   0.324  11.368  13.739 -0.1097  0.0578 -0.3029
13373W        W30220   9.719   4.501   1.153  0.1444 -0.3303 -0.0264
13374W        W30221   8.876   1.866   2.091  0.0595 -0.1774  0.1590
13375W        W30222   7.474   9.889   0.921  0.1063  0.1725  0.2810
13376W        W30223   6.809  13.688  12.142  0.1367  0.0011 -0.0127
13377W        W30224   3.642   8.339   3.705  0.1083  0.2951  0.2787
13378W        W30225   9.815   4.284  14.194 -0.1662 -0.0987  0.2172
13379W        W30226  10.196  15.670  13.868  0.1212 -0.1852  0.0254
13380W        W30227  12.886   8.808   4.291 -0.1936  0.2192  0.2905
13381W        W30228   7.233  16.812   2.216 -0.1336  0.2237  0.0513
13382W        W30229   3.927  17.788   1.651 -0.1948  0.1616 -0.1776
13383W        W30230   6.900  17.545   5.048 -0.2160  0.1103  0.1995
13384W        W30231   1.015   8.815  14.981  0.0389 -0.0777  0.2418
13385W        W30232  10.315   3.671   4.411 -0.1421 -0.2408 -0.1832
13386W        W30233  11.620   7.969   4.060 -0.2091  0.0933 -0.1031
13387W        W30234   8.940  14.371   1.778 -0.0583 -0.1324  0.0120
13388W        W30235  16.280   1.920  16.628  0.0327 -0.1945 -0.1432
13389W        W30236   5.907  11.354  16.407  0.0900  0.0835  0.1235
13390W        W30237   9.699  15.765  14.070  0.0082 -0.0733  0.0237
13391W        W30238   5.051   3.924   0.565 -0.3705 -0.1200 -0.1551
13392W        W30239   7.054   6.487   3.021 -0.1657 -0.2582 -0.1833
13393W        W30240  14.305   8.786  12.898 -0.2659 -0.1200 -0.0883
13394W        W30241   5.546  15.337  12.809 -0.1614 -0.4417 -0.3640
13395W        W30242  16.436   1.915  13.591 -0.0400  0.0604  0.3939
13396W        W30243  14.794   4.062  14.724 -0.4223  0.0562  0.0803
13397W        W30244  13.909  11.015   2.924  0.0374  0.3372 -0.0171
13398W        W30245  17.613   2.259   0.828 -0.0267 -0.1130 -0.0358
13399W        W30246  15.696   3.725  15.127  0.0626  0.1824 -0.3369
13400W        W30247   0.372  16.758  13.791 -0.1595 -0.1409 -0.0129
13401W        W30248  14.793  13.639  14.985  0.2435 -0.4200  0.2424
13402W        W30249  10.666  13.129   1.380  0.0523  0.1081  0.1554
13403W        W30250  15.939   2.968  14.275  0.0624 -0.0391  0.0035
13404W        W30251   2.542   9.113  16.456  0.0643 -0.0754 -0.0548
13405W        W30252   4.087  16.587   1.709  0.1597  0.0365 -0.2160
13406W        W30253  16.835  12.553   5.899 -0.2331 -0.0346  0.1434
13407W        W30254  13.007   2.427  16.365 -0.0480  0.2218  0.2046
13408W        W30255   2.477  17.874   2.691 -0.1845 -0.2233  0.0873
13409W        W30256  14.953  15.264  11.486 -0.0466 -0.0037 -0.0383
13410W        W30257   0.153  14.327   1.525  0.0981 -0.1439 -0.1730
13411W        W30258  17.275   1.919  15.069  0.0555  0.6035 -0.2152
13412W        W30259   4.473   4.300  12.863  0.0156 -0.1660 -0.2708
13413W        W30260   9.504  14.136   3.269  0.0179 -0.0381  0.0018
13414W        W30261  15.844   4.732  12.647 -0.3273 -0.1818 -0.0174
13415W        W30262  15.454   1.934   0.709 -0.1664  0.1237  0.1540
13416W        W30263   1.734  15.719  12.476 -0.0030 -0.0201  0.0767
13417W        W30264  15.621   0.458  15.524  0.2158 -0.0986  0.1988
13418W        W30265   0.653  17.156  11.751 -0.1703 -0.0273 -0.2122
13419W        W30266  11.765   8.314   5.138 -0.0194 -0.1307 -0.1109
13420W        W30267   9.334  17.291  16.663  0.4085  0.0878 -0.0527
13421W        W30268   7.817   5.805  12.532  0.3070  0.0448  0.2855
13422W        W30269   0.170  16.116   5.747  0.0044 -0.2065  0.0981
13423W        W30270   4.328   9.764  12.042 -0.1142 -0.0144  0.1647
13424W        W30271   4.482  17.356  11.539  0.2000 -0.1190 -0.0398
13425W        W30272   9.210  13.883   4.425 -0.3963 -0.0423  0.0819
13426W        W30273  13.510   9.639   1.758 -0.0861  0.0456 -0.1037
13427W        W30274  18.055  16.199  15.369  0.0915 -0.0327 -0.1357
13428W        W30275  15.058  17.619   3.786  0.3153  0.0328 -0.0134
13429W        W30276   0.970  15.416  13.753  0.1735  0.0610 -0.2023
13430W        W30277  10.853   5.791   4.602 -0.0330 -0.3461 -0.0013
13431W        W30278  15.890   2.506  12.267 -0.0685  0.0416 -0.0452
13432W        W30279   2.951  11.959   4.785  0.0823  0.1954 -0.2135
13433W        W30280   6.029   7.909   5.597 -0.0343 -0.2664 -0.3170
13434W        W30281   3.168  14.606  13.999 -0.0487 -0.0329 -0.0698
13435W        W30282  10.004  12.652  14.802  0.2764 -0.0045 -0.1840
13436W        W30283   1.969  12.933   2.623  0.0701 -0.3173  0.3417
13437W        W30284   2.193   5.681   2.939  0.3592 -0.0800 -0.4910
13438W        W30285   5.547   8.630  16.493 -0.0804  0.0524 -0.0013
13439W        W30286   7.670   2.516  11.080 -0.1336 -0.2091 -0.0822
13440W        W30287   9.381  12.979   6.016 -0.0715 -0.1997  0.0712
13441W        W30288  11.458  12.638   1.343  0.3325 -0.0432 -0.0726
13442W        W30289  14.257  13.523   0.718 -0.1530 -0.0125 -0.0573
13443W        W30290  11.389   5.726   3.987  0.1645 -0.0471 -0.0342
13444W        W30291   8.802  13.177  15.395 -0.2164 -0.0614  0.1756
13445W        W30292   2.894   8.019  14.889 -0.1198 -0.1228 -0.2270
13446W        W30293  17.664   7.342  15.020  0.0994 -0.0262 -0.2040
13447W        W30294  17.509   8.626   2.273 -0.1461 -0.2407  0.0650
13448W        W30295   6.423   9.610   6.095 -0.0963  0.1344  0.0725
13449W        W30296   9.803  16.353  16.361 -0.3252  0.1118 -0.1684
13450W        W30297  11.186  17.862   2.240  0.0735  0.0753  0.0151
13451W        W30298   0.360   5.922   0.980  0.2918  0.3178  0.0105
13452W        W30299   5.375  15.851  15.440  0.1430  0.3322  0.0077
13453W        W30300   1.300  16.098   2.293 -0.0169  0.2738 -0.1717
13454W        W30301   1.335  16.168  12.957 -0.2401  0.2550 -0.2451
13455W        W30302  13.038  18.006  12.285  0.1327  0.0233  0.1202
13456W        W30303  12.449   4.678   2.221  0.1388 -0.1505  0.1336
13457W        W30304   2.667   9.985   6.006  0.0116 -0.2144  0.2826
13458W        W30305   4.698  11.879  15.143  0.0783 -0.0979 -0.1524
13459W        W30306  13.520   4.669  12.257 -0.1525  0.1990  0.0006
13460W        W30307   3.024   1.704  13.858 -0.0814 -0.3206  0.3863
13461W        W30308   4.505   0.203   6.308  0.2335  0.3930  0.2131
13462W        W30309   8.854  13.800   2.536  0.1762 -0.0870  0.2210
13463W        W30310   1.945   8.800  15.448 -0.2650 -0.0939  0.1096
13464W        W30311   6.681  16.717   1.077 -0.1674 -0.3773  0.1708
13465W        W30312   6.326  12.601  16.148 -0.1069  0.0722 -0.2172
13466W        W30313   4.794  14.576  16.099  0.0376  0.0383  0.2247
13467W        W30314   6.207  10.360  12.239 -0.0601 -0.1709 -0.0394
13468W        W30315  11.844   3.794   1.339 -0.2978 -0.0002  0.1030
13469W        W30316  16.453   8.928   3.279  0.0388  0.2384  0.0616
13470W        W30317  14.137   0.096   1.723  0.0447 -0.1232 -0.0113
13471W        W30318   2.045  14.612  11.934 -0.0962  0.3447  0.0197
13472W        W30319   4.563  13.231  16.324  0.1074 -0.0829 -0.0461
13473W        W30320   2.984   7.595  16.207  0.0352 -0.2176  0.1125
13474W        W30321   8.084   5.830  15.213 -0.3618 -0.2191 -0.0771
13475W        W30322   2.186  10.859   4.921 -0.2414 -0.0540  0.1077
13476W        W30323  16.445  14.245  12.273  0.3586 -0.0913  0.2851
13477W        W30324  10.528   6.970  16.217  0.0300 -0.1858  0.0378
13478W        W30325   3.230   1.343  12.941  0.1760  0.0205 -0.2919
13479W        W30326   2.726   1.488  12.218 -0.2732 -0.0686 -0.1990
13480W        W30327   6.801  14.474   5.428  0.1763 -0.1503  0.0005
13481W        W30328  10.642  13.748   4.804  0.0785 -0.0859 -0.1074
13482W        W30329  10.353   7.884  16.619 -0.1332  0.0726  0.2685
13483W        W30330   3.621   5.279  11.564  0.2709  0.0065 -0.1041
13484W        W30331  17.115   4.319  11.800 -0.2229 -0.2686  0.2431
13485W        W30332   3.630  12.245  12.904 -0.0311  0.2041  0.0278
13486W        W30333  13.535  16.539  13.828  0.0140 -0.0618 -0.2580
13487W        W30334  12.215   6.181   4.615  0.1485  0.1287 -0.3212
13488W        W30335  11.629   7.303  15.698 -0.1652 -0.0461  0.0846
13489W        W30336   1.784   3.594   5.091 -0.0089 -0.0987  0.0463
13490W        W30337   7.110   0.462   3.481  0.1200 -0.0909 -0.0523
13491W        W30338   2.849   3.840   1.818 -0.1301  0.0558  0.0253
13492W        W30339   8.250  15.924  15.722  0.1447  0.1154  0.0558
13493W        W30340   5.593  17.196   1.879 -0.1530 -0.0041  0.0983
13494W        W30341   5.077   4.957  16.155  0.0955  0.1136 -0.0966
13495W        W30342  13.654  13.619   4.411 -0.0141  0.0619  0.0227
13496W        W30343  14.686   3.050   0.528 -0.3136  0.2660 -0.1166
13497W        W30344   6.433   6.490  14.416  0.1079 -0.1038 -0.0428
13498W        W30345   4.473  13.742  12.698  0.0178 -0.1165 -0.3482
13499W        W30346   5.020   7.874   3.196  0.0749 -0.0044  0.0041
13500W        W30347  15.245  16.038  16.099  0.2176 -0.0170 -0.1744
13501W        W30348   0.035  10.545  13.394 -0.0750 -0.0575 -0.0432
13502W        W30349   4.045   6.688   3.810  0.1895  0.3272  0.0342
13503W        W30350  12.025  17.797  10.954  0.2743 -0.1778 -0.1399
13504W        W30351   7.169  10.102   3.560 -0.0146  0.4374  0.0918
13505W        W30352   3.696   1.328  12.176 -0.3611  0.2603 -0.0313
13506W        W30353   4.316  10.101   2.878  0.0344  0.1174  0.1893
13507W        W30354  16.901   7.538   1.258  0.2255 -0.3862  0.0627
13508W        W30355   7.132  15.622   1.164  0.0455 -0.0393 -0.1312
13509W        W30356  14.316   6.840  16.471 -0.0333 -0.0523 -0.2018
13510W        W30357  15.158   8.440  13.215  0.2652  0.1204  0.0877
13511W        W30358  12.586   4.523  11.950 -0.1036 -0.0868 -0.5119
13512W        W30359   7.264  12.400  13.077  0.1426  0.2070  0.4016
13513W        W30360   7.282  17.706   4.807 -0.2814 -0.0135 -0.3557
13514W        W30361   6.530   9.545   4.726 -0.0505 -0.3307 -0.0836
13515W        W30362  17.968  13.063  12.256  0.0591 -0.0734 -0.1254
13516W        W30363  10.749  15.469  12.223  0.4118 -0.1086  0.2473
13517W        W30364   4.168   8.382  12.182 -0.1935  0.1056 -0.0175
13518W        W30365  15.167  16.385  11.834 -0.2189 -0.0025 -0.0706
13519W        W30366  14.954  10.112  15.637 -0.1370 -0.5835 -0.0060
13520W        W30367  10.821   0.601   4.881 -0.0327 -0.1159  0.0972
13521W        W30368   3.748   3.916   2.927 -0.0768 -0.2078 -0.0743
13522W        W30369   3.942  10.750  13.575  0.1729 -0.1653  0.0230
13523W        W30370  10.858  17.525   5.315  0.0547  0.0857  0.2215
13524W        W30371  17.220  12.186  11.577  0.1239  0.2313  0.1855
13525W        W30372   5.955   5.437   2.575 -0.0379 -0.3878 -0.2026
13526W        W30373   5.712   9.520   0.890  0.2597  0.1322  0.1128
13527W        W30374   4.135  17.865  15.628  0.0868  0.0703 -0.1806
13528W        W30375   3.492   9.247   0.876 -0.0639  0.1009 -0.2689
13529W        W30376   8.836   0.619   3.649  0.2097 -0.0050 -0.0331
13530W        W30377   2.127  10.989   0.932  0.2785 -0.1865 -0.2604
13531W        W30378   2.789  11.753  12.925 -0.1009 -0.2222 -0.1255
13532W        W30379  16.763  15.106   2.025 -0.1182  0.0958  0.0184
13533W        W30380   5.253   8.820   3.785  0.2397 -0.1640  0.2827
13534W        W30381  10.005   9.023   2.420 -0.0173 -0.2387 -0.0079
13535W        W30382  16.650  11.100  11.866 -0.1415  0.2163 -0.0870
13536W        W30383  15.754   2.361  13.069  0.2606  0.0823 -0.0591
13537W        W30384  15.693  15.125  14.810 -0.0885 -0.0069 -0.2345
13538W        W30385   2.928   8.948   1.808  0.0638 -0.2589  0.0742
13539W        W30386  14.891  10.573   2.404  0.3231  0.0186  0.0349
13540W        W30387  12.065  17.173  14.313 -0.0309  0.0462  0.1760
13541W        W30388  11.293   3.068  11.686  0.1092  0.4393 -0.2459
13542W        W30389   9.226  17.857  15.968  0.0398  0.0882 -0.1426
13543W        W30390  17.601   1.859  16.571 -0.1838 -0.0800 -0.0138
13544W        W30391   0.858   4.987   2.037 -0.0417 -0.2416 -0.2680
13545W        W30392   6.715  13.032   3.734  0.0553 -0.0943 -0.1848
13546W        W30393  16.101  13.464   5.031 -0.1910  0.1105 -0.1289
13547W        W30394   7.968  11.795   3.873 -0.1207 -0.1799  0.2118
13548W        W30395   4.216   0.041  14.592  0.0854  0.2803  0.0012
13549W        W30396   8.315  14.886  11.761 -0.0395  0.2764  0.1667
13550W        W30397  14.661  12.103   2.991  0.0369 -0.2159  0.0531
13551W        W30398  12.160   0.473  12.287  0.1006  0.1810 -0.0474
13552W        W30399   2.668  14.892   3.359  0.2175 -0.0139  0.1803
13553W        W30400   2.622   5.572   2.169 -0.0042 -0.2720  0.2029
13554W        W30401   4.509  16.465  13.806 -0.0160  0.2537  0.0432
13555W        W30402   1.408   2.067   4.508  0.1460  0.2884 -0.1288
13556W        W30403   4.933   0.915   5.427  0.1317  0.2800  0.0141
13557W        W30404   6.311   5.800  14.140 -0.1811 -0.0982  0.0415
13558W        W30405   0.033  16.373  13.728  0.1906  0.3501 -0.3079
13559W        W30406   6.500   2.491   0.750  0.0618  0.4162 -0.3501
13560W        W30407   0.743   0.854  16.318  0.0140 -0.0920 -0.1159
13561W        W30408  12.666   4.988   3.942  0.1866 -0.1049 -0.2528
13562W        W30409  10.287   6.714  15.151  0.1233 -0.3448 -0.2640
13563W        W30410  10.895  10.447   1.601 -0.4250 -0.3556 -0.1955
13564W        W30411  15.453   3.013  13.845  0.0765  0.1807 -0.1490
13565W        W30412   8.607   6.288   4.612  0.3554  0.0527  0.1768
13566W        W30413   2.542   4.447  11.512  0.0895 -0.0532 -0.1604
13567W        W30414   1.122   8.678   3.557 -0.0016 -0.2277  0.2244
13568W        W30415  12.441   7.307  16.085 -0.2063 -0.2945 -0.0014
13569W        W30416   9.894  18.049  14.716 -0.0098  0.0142  0.0968
13570W        W30417  12.233  13.306   3.762 -0.0710 -0.1498 -0.1493
13571W        W30418   6.806  10.671   0.694 -0.0836  0.4573  0.0328
13572W        W30419   4.061   0.098  12.969  0.0691 -0.0633  0.2560
13573W        W30420   6.808  12.862   4.179  0.3756 -0.1563 -0.2757
13574W        W30421   7.528   4.062   4.830  0.1512  0.4013  0.0720
13575W        W30422  12.044   0.454   4.002  0.0086 -0.1993 -0.3310
13576W        W30423   3.955  12.296   4.608  0.0981  0.3302  0.3275
13577W        W30424   1.062   0.846  12.800  0.2546  0.1366 -0.4067
13578W        W30425   5.821  11.184   2.882 -0.1595  0.0258 -0.2931
13579W        W30426   0.232  12.729  13.809 -0.2424  0.1427 -0.1860
13580W        W30427   2.378   4.156   2.472  0.2335 -0.4230 -0.4156
13581W        W30428  14.561   8.883   3.075 -0.1794 -0.0073 -0.2104
13582W        W30429   8.585   4.092  15.478  0.2918 -0.2016 -0.2265
13583W        W30430   0.348   5.758  12.694 -0.1601  0.2295  0.0711
13584W        W30431   6.151  14.498   1.606  0.0734  0.1535 -0.1007
13585W        W30432  12.941   1.294  11.220  0.2104  0.3637  0.1479
13586W        W30433   2.583   3.995   1.325 -0.0237 -0.2126  0.1308
13587W        W30434   0.228   4.473   0.738  0.1030  0.1962  0.0067
13588W        W30435  14.417  16.307  15.404 -0.2886  0.4961  0.1327
13589W        W30436   8.809   8.960  14.319  0.2629  0.2105  0.0802
13590W        W30437  11.462  11.976   5.829  0.0205 -0.2045 -0.3758
13591W        W30438  12.735  10.675  13.147 -0.4339 -0.3634 -0.1460
13592W        W30439  15.150  10.875   3.916 -0.0685  0.2462  0.0287
13593W        W30440  15.461   9.759   2.607  0.1373 -0.2202 -0.2371
13594W        W30441  17.811   0.554   5.118  0.0305  0.2132 -0.1138
13595W        W30442   3.030  11.469  14.622  0.0172 -0.0885  0.1524
13596W        W30443  15.764  15.893   4.240 -0.2036  0.3643 -0.0850
13597W        W30444   4.959  12.215   1.111 -0.0163  0.3507 -0.2215
13598W        W30445  10.971  16.213  16.616  0.1000 -0.3375  0.1663
13599W        W30446   1.863  15.879   0.025 -0.0101 -0.1324 -0.3409
13600W        W30447  15.816   6.987   5.871  0.2800  0.2107 -0.3479
13601W        W30448   8.883  13.703  12.371 -0.1944 -0.2724 -0.0032
13602W        W30449  14.268   8.834  13.384 -0.2250  0.1502 -0.2630
13603W        W30450  15.549   3.216  15.011  0.1815 -0.2285 -0.0956
13604W        W30451   9.504  15.327  14.230 -0.0624 -0.0667  0.1296
13605W        W30452   1.296   1.712  16.171  0.3871  0.0120  0.0841
13606W        W30453   4.051   2.940   4.493 -0.0948  0.2339 -0.0618
13607W        W30454  11.512   2.594  16.278  0.3481 -0.1202  0.0189
13608W        W30455   7.175  10.832  16.677  0.0331  0.0810 -0.0767
13609W        W30456  12.999   5.846   4.499 -0.1983 -0.1896  0.1806
13610W        W30457  13.341   5.926  14.093 -0.2458 -0.0729 -0.3824
13611W        W30458   5.772   3.927   2.260  0.3574 -0.0253  0.0297
13612W        W30459  10.751   4.215  16.284  0.2133  0.1679  0.0599
13613W        W30460   2.573  17.466   2.973  0.1187  0.1300  0.0050
13614W        W30461  12.884   3.927  14.191 -0.0546 -0.0442 -0.1673
13615W        W30462   5.036   1.338  13.544 -0.2236 -0.1021 -0.0352
13616W        W30463   0.809   0.074   2.368  0.0780  0.0307 -0.0469
13617W        W30464  10.869   3.041   5.409 -0.0473 -0.0853 -0.1202
13618W        W30465   4.287   6.352   5.371  0.1189 -0.0463 -0.2058
13619W        W30466   0.429  16.340  14.089 -0.0197 -0.1744  0.0766
13620W        W30467  10.134  10.838   3.583  0.1235 -0.1900 -0.1407
13621W        W30468  11.144  15.297   1.149  0.0741  0.1845 -0.0422
13622W        W30469   8.149   5.911  14.626 -0.3294 -0.2725  0.0652
13623W        W30470  18.022  16.712   5.594  0.0404 -0.1878 -0.3451
13624W        W30471  10.665  13.253   3.087 -0.0014 -0.2226  0.3117
13625W        W30472   3.687   0.934   0.449  0.0534  0.1650 -0.0406
13626W        W30473  15.788  15.272  12.796  0.0811 -0.0302  0.2451
13627W        W30474  11.638   1.252   3.918 -0.1128 -0.0448 -0.0441
13628W        W30475   9.084   1.635   2.448  0.1687 -0.0302  0.1491
13629W        W30476  10.888   8.779  14.157  0.1298  0.2632 -0.1942
13630W        W30477   0.200  11.151   0.350  0.1820  0.0164  0.1475
13631W        W30478   0.658   0.995  11.528 -0.3760  0.0135  0.1622
13632W        W30479  13.375   4.799  16.596  0.0008 -0.1152 -0.2608
13633W        W30480   9.747  13.974  14.892 -0.1953  0.0759  0.2456
13634W        W30481  11.913  16.210   3.182 -0.0419  0.1349 -0.3469
13635W        W30482   3.412   6.525   5.235  0.3494 -0.4132  0.2277
13636W        W30483   6.914   3.921   0.721 -0.4517 -0.1105 -0.0279
13637W        W30484   2.702   7.851   5.445 -0.0893  0.0945  0.1901
13638W        W30485  12.458   0.082   4.631 -0.0797 -0.1319  0.3472
13639W        W30486   5.551   1.999   0.715 -0.4537 -0.2236  0.1772
13640W        W30487   8.916   6.531   0.724 -0.0213  0.2981  0.2065
13641W        W30488   4.253  15.680   1.872  0.0110 -0.0114 -0.1842
13642W        W30489  12.041   4.335   0.492 -0.2233  0.2494 -0.1766
13643W        W30490  14.240   0.560  14.696 -0.0932  0.1415 -0.0754
13644W        W30491   0.255  12.171  14.646 -0.0084 -0.1405 -0.1671
13645W        W30492   0.490  15.831  16.478  0.2093  0.0187  0.0943
13646W        W30493   2.527   1.064   1.480  0.0305 -0.0308  0.0156
13647W        W30494   2.635   4.657  13.881 -0.1368  0.0132  0.1030
13648W        W30495  11.388   0.027  11.970 -0.2569  0.1179 -0.1260
13649W        W30496  14.041   3.845  15.394  0.2558 -0.2372  0.1176
13650W        W30497  16.216   6.094   2.293  0.0112  0.0014 -0.2688
13651W        W30498   8.131  12.377  14.024 -0.0476  0.2912 -0.2159
13652W        W30499  16.183   8.898   4.951  0.0912  0.0725 -0.1807
13653W        W30500   6.808   5.788  16.089  0.2256  0.0897 -0.1565
13654W        W30501  10.768  13.341   3.925 -0.2022  0.0560 -0.0272
13655W        W30502   6.719  11.785   3.498 -0.1612  0.1260  0.0433
13656W        W30503   0.983   3.323  13.566 -0.2118  0.1506  0.0529
13657W        W30504  13.604   0.561  12.309 -0.2370  0.0931  0.1938
13658W        W30505  14.266   2.768  14.804  0.2585 -0.1545  0.0360
13659W        W30506  11.975   0.520   5.178  0.0364  0.2685 -0.1518
13660W        W30507   1.358  16.311  12.111 -0.0316 -0.2212  0.2309
13661W        W30508  15.254   5.771  13.900  0.0891  0.1563  0.1599
13662W        W30509  12.270  12.804   2.540  0.0694 -0.2827 -0.1299
13663W        W30510   7.585  17.110   1.949  0.0246 -0.1932 -0.0863
13664W        W30511   9.530   2.762  13.966 -0.3008  0.0515 -0.1206
13665W        W30512  15.233  17.671  12.078 -0.0730 -0.1586  0.0527
13666W        W30513   6.557   5.673   5.187 -0.2190  0.2153 -0.0992
13667W        W30514  12.911   0.613  16.494  0.0680 -0.0950 -0.1589
13668W        W30515  14.047   5.615  14.757  0.0369 -0.1431  0.0600
13669W        W30516   8.689  11.967  12.462  0.2013  0.0683 -0.1511
13670W        W30517  10.096  16.080   4.360 -0.0253 -0.1041  0.0627
13671W        W30518   4.713  14.191   6.327  0.4076 -0.0424  0.0774
13672W        W30519   4.058  17.144  14.292  0.0534 -0.1567 -0.1396
13673W        W30520  16.183  13.470   1.034  0.0656  0.0915  0.1106
13674W        W30521   1.031   3.791   4.312  0.0637  0.0805 -0.3352
13675W        W30522   7.192   7.261   2.714  0.0845  0.0894  0.1668
13676W        W30523   0.529   4.055  15.256  0.3519  0.1152 -0.0938
13677W        W30524   0.991   2.815  16.527 -0.1994  0.0598  0.0496
13678W        W30525   7.297   6.768   3.514  0.0404  0.0192 -0.1835
13679W        W30526   2.751   1.108  13.060  0.2461 -0.3757 -0.0582
13680W        W30527  12.430   3.161  15.004 -0.1470  0.1319  0.1180
13681W        W30528  14.183   5.340  13.410  0.4270 -0.1336  0.0018
13682W        W30529  16.620  13.664  12.372  0.3143  0.2514 -0.2624
13683W        W30530   4.400   3.504  12.112  0.0656  0.1693 -0.2513
13684W        W30531   8.461   6.665   5.362 -0.0051 -0.2021 -0.0170
13685W        W30532   6.867  18.059   3.709  0.0596  0.2291  0.2502
13686W        W30533  10.522  10.225   3.302  0.2991  0.2119 -0.0352
13687W        W30534  10.968   3.838  12.723  0.1250 -0.0222 -0.0371
13688W        W30535  16.205   3.677  15.241  0.4942 -0.0983  0.1019
13689W        W30536  17.529  13.558   4.509 -0.0985  0.3522  0.1569
13690W        W30537   0.487   7.011   5.719  0.1228  0.2174  0.1270
13691W        W30538   2.570   5.989   2.959 -0.1980  0.1276 -0.0575
13692W        W30539   7.120   5.432  12.763  0.0543 -0.0598  0.0406
13693W        W30540  15.806   6.190  13.568  0.0228 -0.0324 -0.0419
13694W        W30541   3.310   8.629   2.044  0.1619 -0.0661 -0.3308
13695W        W30542   8.162   5.787   2.031  0.0981 -0.1586 -0.3146
13696W        W30543  15.667   4.119   2.169 -0.0892 -0.2229  0.1109
13697W        W30544  10.156  11.075  11.973 -0.0908 -0.1826 -0.3339
13698W        W30545   0.270  17.694  16.362 -0.1722  0.1710 -0.0703
13699W        W30546   3.790   6.755  14.494  0.0780 -0.2964  0.1030
13700W        W30547   5.784   9.120   1.879 -0.0197  0.2135 -0.1475
13701W        W30548  11.529  10.376   4.734  0.0770 -0.1927  0.1359
13702W        W30549   9.283  15.863   6.093  0.1453 -0.5202 -0.1788
13703W        W30550  16.279  15.751  15.634  0.4510 -0.0989  0.2645
13704W        W30551  10.611  11.765   3.230  0.1922  0.1916  0.0684
13705W        W30552  12.020  17.623  16.376 -0.3868  0.0073  0.2941
13706W        W30553  16.537  11.355  15.840 -0.1475 -0.0786  0.0762
13707W        W30554  12.093   3.571   2.738  0.0292 -0.1340  0.3103
13708W        W30555   6.818   4.399   4.703  0.0091 -0.1523  0.5238
13709W        W30556  14.735  15.047   0.231 -0.2527 -0.0103 -0.0694
13710W        W30557  16.684  15.520  14.155  0.0094 -0.2657  0.2880
13711W        W30558  11.211  14.968  14.822  0.0542 -0.0781  0.3253
13712W        W30559   6.385   2.508   2.704 -0.1257  0.0893 -0.0144
13713W        W30560  17.079   5.249  15.439 -0.1209  0.0745  0.2040
13714W        W30561  13.014   4.936  16.273 -0.0427  0.1387  0.0747
13715W        W30562  14.140  14.908   4.820  0.1941  0.0048 -0.2341
13716W        W30563   3.871  14.861   4.877  0.0663  0.3494 -0.1129
13717W        W30564   8.918   2.946   3.901  0.0344 -0.0387  0.1381
13718W        W30565   9.079   4.480   3.887  0.3010  0.0785 -0.0381
13719W        W30566  13.193  13.143  14.705  0.0104 -0.2013 -0.0039
13720W        W30567  12.021   8.609   3.705  0.0585  0.0412 -0.0303
13721W        W30568   1.194  17.670  13.341  0.2196  0.0007 -0.0822
13722W        W30569   6.306  15.594  11.882  0.0230  0.2999 -0.1195
13723W        W30570   7.393  12.379  16.295  0.1703 -0.0095  0.3039
13724W        W30571   4.091  16.624   0.296  0.1497  0.0290  0.0080
13725W        W30572   3.779  12.875   2.459 -0.1898 -0.0138 -0.0481
13726W        W30573   2.735  12.486   3.994  0.0181 -0.1892  0.1329
13727W        W30574   8.024  13.646  11.489 -0.0604 -0.3002  0.2798
13728W        W30575   6.598   0.865   5.085  0.4378 -0.1123  0.3691
13729W        W30576   7.076  10.309   4.652  0.3711 -0.0406 -0.0145
13730W        W30577   9.525   6.071  11.692  0.2588 -0.0494  0.0905
13731W        W30578   2.980  11.924  12.052  0.3425 -0.0233 -0.0005
13732W        W30579  16.907  15.894  14.502  0.1319  0.1093  0.0730
13733W        W30580   6.891   1.611   0.708  0.1082 -0.1926 -0.3640
13734W        W30581  17.456   5.768   5.372 -0.2353  0.2676  0.1662
13735W        W30582  13.468  13.546  16.368 -0.2841  0.0493  0.0245
13736W        W30583  16.514  10.371  13.964 -0.0263 -0.0555 -0.0751
13737W        W30584  11.249   8.231  14.991  0.1640  0.1107  0.0674
13738W        W30585   0.999  14.454   2.644 -0.2122  0.0641 -0.0949
13739W        W30586   5.573   2.549  12.414  0.0121  0.1579  0.2695
13740W        W30587  13.388  10.971   4.976  0.2570 -0.0676 -0.1101
13741W        W30588  12.717   4.113   1.345  0.1072 -0.1373  0.2701
13742W        W30589   8.230   3.373   3.535  0.1813 -0.0639  0.0815
13743W        W30590  13.689  16.544  15.656  0.0649  0.0730 -0.1686
13744W        W30591   8.291  11.174  14.653  0.2581  0.1495 -0.0361
13745W        W30592   7.550   0.392   1.220  0.1450 -0.4339 -0.2147
13746W        W30593  17.426   9.834  13.576 -0.1041  0.1897 -0.3009
13747W        W30594   0.282  16.995   2.791 -0.0842 -0.1885 -0.0782
13748W        W30595  11.704  10.413  12.333  0.2745  0.2000 -0.1462
13749W        W30596   6.997   4.008  12.212  0.2913 -0.1557 -0.0054
13750W        W30597  16.793   1.709   5.157 -0.0303 -0.1374  0.0205
13751W        W30598  13.066  13.512   3.299 -0.0513  0.6140 -0.0528
13752W        W30599  12.603  14.928  13.209  0.0286  0.0282 -0.0213
13753W        W30600  11.075   6.076   2.708 -0.2150 -0.2540  0.1572
13754W        W30601  17.586  10.669  13.555 -0.0537 -0.1613 -0.0861
13755W        W30602  13.512   3.471   3.225  0.1094 -0.2368 -0.0579
13756W        W30603  11.363   5.260  14.749  0.0799 -0.0758  0.1199
13757W        W30604  17.061   8.503  11.958 -0.1021 -0.3180 -0.0779
13758W        W30605   4.373  12.648   0.862 -0.1960  0.0202  0.1597
13759W        W30606  15.501   1.926   5.145 -0.1383  0.0646 -0.1688
13760W        W30607   4.827  10.558  11.397 -0.0488  0.0046  0.1292
13761W        W30608  17.807  17.157   4.103  0.0450  0.1209  0.2462
13762W        W30609   6.393  14.930   1.657  0.0423  0.2662  0.0660
13763W        W30610   7.582  14.933   1.004 -0.1466  0.0828  0.1391
13764W        W30611  10.954  16.930  15.165 -0.2451 -0.0970  0.1713
13765W        W30612   2.059   9.291  14.081 -0.0622  0.2372 -0.1505
13766W        W30613  13.583   6.260  15.073 -0.1882  0.0392  0.2162
13767W        W30614   2.667   8.716   3.769  0.0435  0.0782 -0.1727
13768W        W30615   3.586  11.460   3.713 -0.1090  0.1589  0.0410
13769W        W30616   0.660  17.983   2.875 -0.0876  0.0577  0.0144
13770W        W30617  11.562   9.370   3.920 -0.3193  0.3074 -0.3408
13771W        W30618   8.953   8.659   4.483 -0.2663  0.1729 -0.0278
13772W        W30619   3.482   0.287  13.902  0.0725  0.3063 -0.0080
13773W        W30620  10.603   6.592  14.801  0.1322  0.1903 -0.0330
13774W        W30621   1.905   3.433  13.462 -0.2432  0.1909 -0.3526
13775W        W30622  14.370  10.104  12.451 -0.0962 -0.1159  0.0336
13776W        W30623   1.695   7.030  15.330 -0.2217 -0.0109  0.0988
13777W        W30624  10.809  13.224   1.854 -0.1243  0.1699 -0.1386
13778W        W30625  17.550   5.766   4.812  0.0479  0.0129  0.0978
13779W        W30626  12.540  14.327   0.797  0.0007 -0.1340 -0.2963
13780W        W30627  15.717   1.042   1.932  0.0996 -0.0396  0.0681
13781W        W30628  11.909  12.423  12.077 -0.1830 -0.0131  0.4214
13782W        W30629   2.184  13.269  14.939  0.0499  0.1481 -0.3542
13783W        W30630   4.190   4.942   0.668 -0.1980 -0.1236  0.2446
13784W        W30631  16.285  11.588  15.349 -0.4853  0.1556  0.1018
13785W        W30632   2.103   4.153  13.329 -0.0631 -0.0686 -0.0058
13786W        W30633   1.773  16.828  13.465  0.0916 -0.0044  0.1563
13787W        W30634  15.118  10.297  10.896  0.1150 -0.2106 -0.0737
13788W        W30635   6.791  13.242  12.944  0.3563 -0.0812 -0.0933
13789W        W30636   8.148   4.307  15.414 -0.0946 -0.0840 -0.1681
13790W        W30637  12.879   7.973   1.834 -0.0452 -0.2342 -0.1138
13791W        W30638  12.718  10.329  14.319 -0.0164  0.0177 -0.0714
13792W        W30639   8.565   2.058   4.627  0.0846  0.0510  0.2362
13793W        W30640  10.540  13.495  11.786 -0.0555  0.0620  0.0864
13794W        W30641   9.327  17.358  15.754 -0.0398 -0.2340  0.1345
13795W        W30642   3.150   7.759   5.593  0.1275 -0.2706 -0.0181
13796W        W30643   2.582   1.107  14.554  0.2604 -0.1960  0.1783
13797W        W30644   5.594  14.468   2.397  0.1289  0.1499 -0.0442
13798W        W30645  11.550  10.600   2.450  0.0588  0.1065  0.1191
13799W        W30646  17.476   6.174   2.712 -0.2864 -0.2113 -0.0149
13800W        W30647  17.065  15.870  13.925 -0.2463 -0.0326 -0.2448
13801W        W30648   1.484  17.063   0.332 -0.2974 -0.0156 -0.0246
13802W        W30649  17.607  10.080   4.961  0.1488  0.2246  0.1030
13803W        W30650   3.578   2.760  12.622 -0.1952  0.3160 -0.1601
13804W        W30651   8.213   4.636  11.603  0.0874 -0.2805  0.1693
13805W        W30652   2.350   5.910  13.161  0.3681 -0.2217 -0.1858
13806W        W30653   2.221   3.416  11.399  0.0035  0.1821 -0.1323
13807W        W30654  12.728  14.753   0.368 -0.4689 -0.0041 -0.2532
13808W        W30655  14.743  14.261  12.292 -0.2025 -0.2883 -0.0910
13809W        W30656   1.899   5.803   4.730  0.0034 -0.4059  0.1754
13810W        W30657  12.782  12.763  14.739  0.1266 -0.3638  0.0842
13811W        W30658   3.798   8.748  16.685  0.0884  0.0982 -0.3024
13812W        W30659   1.552   0.863  12.017 -0.0508  0.0935 -0.0288
13813W        W30660  10.427  11.115   4.556  0.0222 -0.2103  0.2145
13814W        W30661  11.704  14.279   0.508 -0.2099  0.1213 -0.0260
13815W        W30662   3.724   3.462   1.908 -0.3523 -0.3783  0.1348
13816W        W30663   8.595   3.999  12.906 -0.0311 -0.0969 -0.0694
13817W        W30664  16.507   9.744  10.578 -0.0397  0.2373 -0.0426
13818W        W30665   0.022   1.329  15.884 -0.1475  0.2286 -0.0198
13819W        W30666  13.321   9.032   3.932 -0.0296 -0.1600 -0.2802
13820W        W30667   7.805  11.149   0.627  0.2148  0.1700 -0.3214
13821W        W30668  11.703  10.965  12.235 -0.1086  0.2066 -0.0800
13822W        W30669   6.391  11.241  15.184 -0.1216  0.1581 -0.1209
13823W        W30670   1.681   5.433  15.713  0.0906 -0.2125  0.1353
13824W        W30671   1.140   5.326  11.604 -0.1538 -0.5054  0.0169
13825W        W30672  18.034  17.675  14.796  0.2825 -0.1021 -0.1690
13826W        W30673   9.129  17.746  11.273 -0.1362 -0.1008 -0.3288
13827W        W30674   6.544   6.206   5.028 -0.1285 -0.1683 -0.0777
13828W        W30675   3.585  13.270   3.394 -0.1311 -0.1803 -0.3287
13829W        W30676   1.763  12.310  16.547 -0.0345 -0.0085 -0.2651
13830W        W30677   0.436   7.353   0.872 -0.1820 -0.1566 -0.1334
13831W        W30678   5.869  11.102   5.317 -0.0559  0.4047  0.0513
13832W        W30679   7.388   8.187   0.990  0.0403  0.0229 -0.1609
13833W        W30680   6.082   8.161   0.869  0.0356  0.1053  0.3313
13834W        W30681  17.566  15.029   2.884 -0.0595 -0.1331 -0.0139
13835W        W30682  14.107  12.427  16.215 -0.0483 -0.0229 -0.1198
13836W        W30683   2.492   3.693   2.206  0.0025 -0.1821  0.0967
13837W        W30684   2.061  11.609  12.522  0.2798 -0.2150  0.0284
13838W        W30685   2.711  14.563  16.055  0.1318 -0.0659  0.0558
13839W        W30686   0.948   9.240   1.475 -0.0928  0.1987  0.2631
13840W        W30687  14.107  15.237  11.004  0.2196 -0.1962 -0.1345
13841W        W30688  13.371   2.602   4.302 -0.0442 -0.5166  0.1916
13842W        W30689  11.648   5.592   5.130 -0.0777 -0.1065 -0.2710
13843W        W30690  16.068   9.600   0.965 -0.1832 -0.1072  0.1325
13844W        W30691  11.728   4.056   3.598 -0.1661  0.0935 -0.1923
13845W        W30692   2.399   7.842  16.073  0.2545  0.1663 -0.3405
13846W        W30693  16.353  11.317   3.851 -0.1105 -0.2065 -0.0208
13847W        W30694   8.981  13.346  16.674  0.3320  0.0584 -0.1761
13848W        W30695   4.041  10.997   2.472  0.3304  0.1000 -0.0791
13849W        W30696  12.469   7.955  14.138 -0.1525  0.0844  0.2182
13850W        W30697  16.005   5.439  13.669 -0.2852 -0.0183 -0.0809
13851W        W30698   6.752  14.014   1.005  0.2920  0.2020  0.3706
13852W        W30699   6.068   3.089   2.026 -0.1160  0.0132  0.3308
13853W        W30700   8.993  16.151  16.155 -0.0477 -0.1455 -0.2938
13854W        W30701   0.157  10.092  13.685 -0.1701  0.1888 -0.0004
13855W        W30702   6.230   1.046   2.466  0.0646 -0.0148  0.1056
13856W        W30703   9.241  16.460  11.673 -0.3173  0.1137 -0.3313
13857W        W30704  14.604   1.965  14.575  0.2125 -0.0036  0.1800
13858W        W30705   8.187   3.421   0.544  0.0304  0.0011  0.1394
13859W        W30706   4.258   4.231   4.688  0.3536 -0.0008  0.0726
13860W        W30707  11.024   7.925  14.635 -0.1345  0.0159  0.1317
13861W        W30708  17.074  12.089   3.516 -0.1370 -0.2452 -0.0022
13862W        W30709   5.948   6.904   3.821  0.0257  0.1950  0.3766
13863W        W30710   4.179   3.183   3.704  0.2015  0.1438 -0.1615
13864W        W30711   0.222   8.575  15.903  0.0189  0.0029 -0.2123
13865W        W30712  15.921  15.775  12.610 -0.3284  0.0315 -0.0123
13866W        W30713  15.361  15.018   4.606  0.2099 -0.1616 -0.1149
13867W        W30714  14.446  14.778  12.840  0.2081  0.1953 -0.1008
13868W        W30715   1.318   1.357   3.817  0.0338  0.2853  0.2580
13869W        W30716   3.645   7.709   1.663 -0.1396  0.1689  0.1715
13870W        W30717   7.482  13.624  12.670  0.1952  0.0090  0.0392
13871W        W30718   9.566   2.145   1.546  0.1094 -0.0869  0.2723
13872W        W30719  16.295   0.718  13.016 -0.0360 -0.1994  0.0917
13873W        W30720   5.842  14.652   4.431  0.0768 -0.2192  0.0662
13874W        W30721  11.388  16.126   1.999  0.1441  0.0141 -0.0636
13875W        W30722   1.919   9.769   2.399  0.0371  0.3475 -0.1412
13876W        W30723  18.019   0.876   2.813  0.2388 -0.0188 -0.0088
13877W        W30724  15.741  14.253   0.927 -0.0823 -0.5493  0.1434
13878W        W30725   9.130  11.352  14.280  0.2517  0.1450  0.0101
13879W        W30726  12.019   4.287   2.846 -0.2078  0.0491  0.1499
13880W        W30727   2.850  15.456   1.073  0.2358 -0.1056 -0.3455
13881W        W30728  15.209  12.002  13.837 -0.1799  0.0353 -0.0717
13882W        W30729  12.169  16.629  13.826 -0.0870  0.3918 -0.1809
13883W        W30730   0.219  17.285  13.759  0.1235  0.0426  0.3646
13884W        W30731  17.547   5.026  13.845  0.0079  0.0994  0.1056
13885W        W30732   2.358  13.613   1.478  0.1076  0.0457 -0.1098
13886W        W30733  11.093   4.297  15.959 -0.0414  0.1686  0.2502
13887W        W30734  16.640   0.617  12.414  0.0401  0.0438 -0.0961
13888W        W30735  15.657   9.811  14.359  0.0162 -0.1302 -0.0076
13889W        W30736  13.473   3.465   0.719  0.1668  0.1554  0.2707
13890W        W30737  17.674   1.010   5.586 -0.0413 -0.0633  0.1372
13891W        W30738  15.476  14.180  14.921 -0.0244 -0.0945 -0.0131
13892W        W30739  15.431  16.438  15.829  0.0749  0.0628  0.0859
13893W        W30740  13.332  15.648  11.587  0.1574 -0.0401 -0.2185
13894W        W30741  14.720   7.013   4.520 -0.3739  0.3300  0.2068
13895W        W30742   9.960   2.007  13.274  0.1430 -0.0479  0.1761
13896W        W30743   3.275  11.321   3.337  0.0357  0.1725 -0.2450
13897W        W30744   9.000  14.856   0.072  0.0919 -0.0500 -0.3174
13898W        W30745  17.362  14.940  15.548  0.0549  0.0918 -0.0285
13899W        W30746  14.082   8.175   5.437  0.0371 -0.0115  0.1974
13900W        W30747   3.413   0.712   3.092  0.0808 -0.1354 -0.1756
13901W        W30748  15.541   3.358  12.082  0.1051 -0.1869 -0.3711
13902W        W30749   2.285  10.767  14.681 -0.2548 -0.2059  0.0488
13903W        W30750  17.016  10.953   4.635 -0.1767 -0.1469 -0.2868
13904W        W30751   7.378   2.237   3.434  0.3791 -0.1142 -0.1888
13905W        W30752   3.573   1.196   4.283 -0.4210 -0.0172 -0.3337
13906W        W30753   2.919  17.177  12.703 -0.0181 -0.1429  0.0488
13907W        W30754   5.909  12.106   1.966 -0.0323  0.0492  0.0836
13908W        W30755  12.778   3.648  12.853 -0.0635  0.1328  0.0287
13909W        W30756  14.037   7.288   1.302 -0.0519  0.0069 -0.0340
13910W        W30757  10.427   3.446   0.123 -0.2140 -0.0259  0.0602
13911W        W30758  17.831   8.376  11.581  0.1593 -0.0210  0.0162
13912W        W30759   0.020   8.635   4.105 -0.2550 -0.0894 -0.1369
13913W        W30760  15.749  10.724  12.035  0.0530 -0.0946  0.1634
13914W        W30761  11.605  16.356   3.988  0.0199 -0.0661  0.2379
13915W        W30762  10.631  17.464  14.020 -0.2390  0.0480  0.3957
13916W        W30763   1.107   7.505  16.485 -0.1670  0.2174 -0.1514
13917W        W30764  12.851  12.922   4.449  0.0246  0.1847  0.1109
13918W        W30765  11.842  16.864  15.813 -0.1247  0.3236 -0.1406
13919W        W30766   8.551  10.136   2.115  0.1401  0.0062 -0.5460
13920W        W30767   0.673   6.870  15.997  0.1038  0.3011 -0.0514
13921W        W30768   3.357  12.646  14.647  0.2345 -0.1305 -0.1323
13922W        W30769  10.005   9.541   2.755 -0.2231  0.1451  0.0616
13923W        W30770   5.132   3.239   0.459  0.3798 -0.0178 -0.1967
13924W        W30771   0.790  17.757  13.924  0.0946 -0.0330 -0.1826
13925W        W30772  12.865  16.072   2.739  0.2172 -0.0301  0.1201
13926W        W30773   0.696   6.163   0.374  0.1842 -0.3020  0.2120
13927W        W30774   8.668  11.884  15.867  0.1583 -0.1037 -0.1353
13928W        W30775  12.983   7.504   2.736  0.2696 -0.0452  0.0943
13929W        W30776   4.340   3.286   4.175  0.5420 -0.0616 -0.2028
13930W        W30777  13.474  13.684   3.500  0.2906 -0.0834 -0.0899
13931W        W30778  13.580   8.835   2.858  0.0176  0.2561  0.0182
13932W        W30779  13.511   5.043   1.145 -0.2460  0.1197 -0.1271
13933W        W30780   5.486  11.853  11.577 -0.1864  0.2323 -0.1730
13934W        W30781   1.251   0.755   1.023  0.0500 -0.2532 -0.0558
13935W        W30782   2.406   7.734  13.672  0.2125  0.1960  0.0907
13936W        W30783   3.145   1.127   2.847 -0.0436 -0.0298  0.2111
13937W        W30784  15.409   9.362  14.036  0.2548  0.1852  0.1829
13938W        W30785   6.779  15.260  16.335 -0.0172 -0.1975  0.1994
13939W        W30786   1.216   3.206  14.738  0.1089  0.1543  0.1361
13940W        W30787  15.200   9.066   1.455 -0.3211  0.1829  0.1973
13941W        W30788  17.393   5.710   5.846  0.1460  0.0492  0.0241
13942W        W30789   0.160   7.069  13.760  0.1357 -0.0009 -0.1701
13943W        W30790  15.287   5.371  14.253  0.0156 -0.2200 -0.1592
13944W        W30791   5.622  16.708  11.651 -0.0160  0.0842  0.2356
13945W        W30792  13.771   9.147   3.792  0.2836  0.0230  0.1299
13946W        W30793   8.272   0.212   2.600  0.0680  0.0428 -0.1788
13947W        W30794  17.652  14.432  15.603  0.0573 -0.2997  0.1112
13948W        W30795   8.101   6.260   1.817 -0.0715 -0.0158  0.0461
13949W        W30796  17.453   4.445  15.625  0.0374 -0.0669 -0.0306
13950W        W30797   3.409   6.938   6.092  0.5271  0.2229 -0.2031
13951W        W30798  15.819   5.554  14.788 -0.2163  0.5173 -0.1740
13952W        W30799  14.892   3.592  11.692 -0.2919  0.0209  0.1050
13953W        W30800  17.702  14.327  12.603 -0.0805  0.1093  0.0142
13954W        W30801   0.753   3.949  13.748  0.3671  0.2445 -0.0862
13955W        W30802  17.600  12.200   4.700  0.0904  0.1925 -0.1149
13956W        W30803   4.763   0.182  13.552  0.0335  0.2689  0.1632
13957W        W30804   8.911  15.328   3.635 -0.2792 -0.0345 -0.0881
13958W        W30805   9.528  17.616  11.581  0.3775 -0.0064  0.0861
13959W        W30806  14.118   6.901   3.465  0.2807 -0.0626 -0.3464
13960W        W30807  11.028  17.952  16.055  0.0692 -0.2258 -0.0228
13961W        W30808  16.984  10.902  15.396  0.0544 -0.1766  0.2015
13962W        W30809  18.054   1.068   1.579 -0.0688 -0.1133 -0.0966
13963W        W30810  12.500   9.457   5.072  0.1623 -0.0962 -0.2638
13964W        W30811  10.509   4.368  11.922  0.3520  0.1106  0.1604
13965W        W30812  14.957  11.823   1.553  0.3603 -0.0138 -0.0847
13966W        W30813   1.152   1.966  14.917 -0.1202 -0.0579  0.3643
13967W        W30814   0.245  10.927  16.506 -0.0821  0.1637 -0.2682
13968W        W30815  17.106  10.902  14.368  0.2010  0.0119 -0.3134
13969W        W30816   7.894   6.536   4.815 -0.0539 -0.1849 -0.4557
13970W        W30817   1.418   1.518  15.127 -0.0373 -0.0419 -0.0866
13971W        W30818  16.822   1.834  15.894 -0.0550  0.2648  0.0575
13972W        W30819   2.908   3.762   4.743 -0.1144 -0.0235 -0.0931
13973W        W30820   8.837   9.288  12.428 -0.0681  0.0656  0.2107
13974W        W30821   8.398   0.674  13.599  0.4908 -0.2902 -0.0563
13975W        W30822  11.297  14.699  12.873  0.1006  0.2203 -0.2890
13976W        W30823   5.568  12.146  16.280 -0.1663  0.3191 -0.0343
13977W        W30824  17.651   1.186  15.638  0.0913 -0.0832 -0.3251
13978W        W30825   9.705  13.038  16.596  0.1532 -0.0279 -0.3277
13979W        W30826  10.002  17.510   2.113 -0.1046 -0.2519  0.1358
13980W        W30827  10.410  10.118   2.269  0.0785  0.1772 -0.2909
13981W        W30828   2.908  13.317   5.147 -0.2773  0.0668 -0.2034
13982W        W30829   0.642  17.240   2.236  0.2466 -0.3264 -0.0089
13983W        W30830  12.673   2.881   1.970 -0.1093 -0.0788 -0.1543
13984W        W30831   1.409  16.388  11.133  0.2088 -0.1949  0.0149
13985W        W30832   8.267   3.347   2.061 -0.2275  0.0487  0.0783
13986W        W30833  17.914  16.899  14.589  0.0183 -0.2382 -0.0674
13987W        W30834   5.714  11.265  14.743  0.3109 -0.2939 -0.6408
13988W        W30835   2.673   3.939   0.535  0.1777 -0.1190  0.0816
13989W        W30836   1.104   8.616  12.790 -0.0374 -0.2146  0.1912
13990W        W30837   8.525   8.228  13.093  0.0827  0.2326 -0.0891
13991W        W30838   9.864  13.471  14.660 -0.3228  0.3204  0.1068
13992W        W30839  12.590  14.683   1.327 -0.0399 -0.0392  0.0905
13993W        W30840  17.974   6.641   2.216  0.0254 -0.2270  0.1561
13994W        W30841  11.921  10.143   5.032  0.2957 -0.0031  0.2193
13995W        W30842  15.583  16.746   4.732  0.0833 -0.0188 -0.2306
13996W        W30843   3.670   7.921   2.288 -0.2746  0.1754 -0.1144
13997W        W30844  17.559   8.383  15.787  0.2191 -0.0297  0.0565
13998W        W30845   0.913  16.926  12.686 -0.1718 -0.2053 -0.0717
13999W        W30846   1.603   1.991  15.034 -0.0639 -0.1126  0.0781
14000W        W30847   6.892   5.355  15.887  0.1836 -0.0691  0.1353
14001W        W30848  14.129  16.045   4.074  0.0315 -0.1044 -0.2105
14002W        W30849  11.805   2.071   3.667  0.0639 -0.2709 -0.0766
14003W        W30850  12.954  14.449  10.824  0.1230  0.0017 -0.0686
14004W        W30851  17.255   6.657  13.293 -0.1394 -0.2941 -0.0518
14005W        W30852   8.141  16.886  15.929 -0.1425 -0.5004 -0.0042
14006W        W30853   7.325   5.210   1.535 -0.3744 -0.2503  0.3615
14007W        W30854  11.002   5.026   0.024 -0.4259 -0.2695  0.1197
14008W        W30855   1.044  13.184   4.618 -0.1743 -0.2403 -0.4473
14009W        W30856  14.485  16.030   2.678 -0.0274 -0.0945 -0.0867
14010W        W30857   9.311   7.716   3.096  0.1803 -0.1346  0.1125
14011W        W30858   1.113   3.256   2.193  0.0920 -0.1166 -0.0771
14012W        W30859   5.878   5.785  13.737  0.0901  0.0945  0.1477
14013W        W30860   3.106  17.118  16.117 -0.0488 -0.0874  0.2409
14014W        W30861  16.055  17.619   2.767 -0.0076  0.2079 -0.2802
14015W        W30862  13.150   3.039  11.929  0.0756 -0.0802 -0.4015
14016W        W30863   4.768   6.025   5.219  0.1632  0.0755  0.0417
14017W        W30864  12.054  10.913   0.378  0.0912  0.2385 -0.1506
14018W        W30865   7.158  16.850   1.228 -0.0350  0.0051 -0.0270
14019W        W30866  12.350   4.710  14.619 -0.2031 -0.2401  0.0064
14020W        W30867   6.748  14.186  14.495 -0.4220  0.5016  0.0773
14021W        W30868   6.989   3.301   1.724 -0.0629  0.2068  0.1963
14022W        W30869   6.500   7.707   0.870 -0.0492  0.1837  0.2180
14023W        W30870  11.913  11.372  13.128 -0.2725  0.1273  0.0450
14024W        W30871   0.428  17.574  14.838  0.1035  0.1962 -0.3264
14025W        W30872   1.802   2.100  15.900  0.1788  0.0471 -0.1725
14026W        W30873   1.008  17.602   4.817 -0.1736  0.2227 -0.0736
14027W        W30874   7.961  11.151  15.909 -0.1849  0.1571  0.0987
14028W        W30875  13.227   9.021  13.196  0.1305 -0.2199 -0.1224
14029W        W30876  15.513   2.532  12.621 -0.1294  0.1916  0.0666
14030W        W30877   7.366  10.837   5.876 -0.0100 -0.0923 -0.0101
14031W        W30878   2.510  17.303  14.608  0.0135 -0.2309  0.0953
14032W        W30879  14.618  13.182   0.674  0.0263 -0.1921  0.0173
14033W        W30880   7.546   0.900   0.582  0.1869  0.2371 -0.0123
14034W        W30881   6.025   0.419   4.494  0.0320 -0.0763 -0.0455
14035W        W30882   2.977  14.293   5.003 -0.0259 -0.3556  0.0899
14036W        W30883   0.238   1.952   1.876 -0.1612 -0.1050 -0.0052
14037W        W30884   0.877   1.482  13.739  0.2498  0.0760 -0.0674
14038W        W30885  12.785  15.828  12.362 -0.0893  0.3745 -0.0833
14039W        W30886   3.336   7.068   5.238 -0.2383 -0.2453 -0.2088
14040W        W30887   0.871  17.493  12.554 -0.0023  0.2813  0.1880
14041W        W30888  16.241  16.544   2.859  0.4538  0.0432 -0.1633
14042W        W30889  16.898  15.337  11.794 -0.2536 -0.2907  0.1394
14043W        W30890  15.064   8.411   3.890 -0.0828  0.0718 -0.0554
14044W        W30891   9.062  15.157  12.353 -0.1556  0.2794  0.0586
14045W        W30892   9.314  13.526   3.135  0.0829 -0.0367  0.0682
14046W        W30893  11.120  10.387   2.381 -0.1259  0.0415  0.2404
14047W        W30894   1.209   1.920  13.569  0.0708 -0.0213  0.1114
14048W        W30895  14.414  15.284  11.965 -0.1404  0.0180 -0.1111
14049W        W30896  13.361   2.188  11.348  0.1712 -0.1107  0.0959
14050W        W30897  11.007  11.173   3.902 -0.4399  0.1157 -0.0092
14051W        W30898  10.065  16.227  14.122  0.0921 -0.2208 -0.0739
14052W        W30899   1.872  16.554  12.163  0.1001  0.1067  0.3712
14053W        W30900  15.379  10.308   0.394  0.2971 -0.2896  0.0928
14054W        W30901  16.607  16.248  11.664 -0.3326  0.0012 -0.1260
14055W        W30902   8.049   1.014   0.533  0.1444  0.4953  0.1014
14056W        W30903  11.885   7.512  12.285  0.6144 -0.1050  0.1707
14057W        W30904   3.735  15.017  12.691  0.2456  0.2018 -0.0016
14058W        W30905  15.422   4.271   5.406  0.3248 -0.2517 -0.1651
14059W        W30906   1.824   9.001   5.319 -0.1294 -0.2217  0.0740
14060W        W30907  18.023  15.015  11.555 -0.0260  0.2341 -0.1949
14061W        W30908  10.731   4.869   2.290 -0.1713  0.0270  0.1512
14062W        W30909  12.429   1.786   5.372  0.2372  0.0430  0.1508
14063W        W30910   5.100  15.629   0.850  0.1051  0.1887 -0.1789
14064W        W30911  15.484   0.543   1.288 -0.0002  0.1958  0.2917
14065W        W30912  16.987  17.997  14.408  0.0474  0.2021 -0.1831
14066W        W30913   4.931   7.692   4.147  0.1143 -0.0813  0.1429
14067W        W30914  17.991  13.375  14.563  0.1336  0.1687 -0.2145
14068W        W30915  14.152   7.583   3.926 -0.0311 -0.0100  0.0856
14069W        W30916   7.180   4.829  12.726  0.0523  0.0907 -0.2689
14070W        W30917  16.849  15.697  16.351 -0.0883 -0.1406 -0.0732
14071W        W30918  15.053   4.860   4.536 -0.1589 -0.6038  0.0412
14072W        W30919  10.220  13.977  15.467  0.1361 -0.1266  0.2470
14073W        W30920  10.872  11.792  14.023  0.0655  0.0814  0.1394
14074W        W30921  11.407   4.977   2.573  0.0017 -0.1639 -0.2531
14075W        W30922   0.191   6.364   0.592 -0.1802  0.3826  0.0655
14076W        W30923  11.739  10.419   1.718 -0.1161  0.0487  0.4292
14077W        W30924  15.059   1.357   2.118  0.0712 -0.1118  0.0002
14078W        W30925   3.245   9.972   5.942 -0.0083  0.1475 -0.1446
14079W        W30926   9.365   2.376  12.626  0.1899  0.2100 -0.2277
14080W        W30927   1.365  14.800  12.382 -0.1863  0.0748  0.0760
14081W        W30928   5.134  13.442   2.050  0.2548 -0.0654  0.1124
14082W        W30929   0.690  12.480  16.198 -0.0364  0.1487  0.1009
14083W        W30930   5.610  16.462   4.910  0.1572 -0.4075 -0.1454
14084W        W30931  15.129   0.083  11.862 -0.0414 -0.1062 -0.1700
14085W        W30932   0.392  10.253  16.005  0.0084 -0.1792 -0.0771
14086W        W30933  11.810  14.631  12.684  0.0743 -0.2592  0.1777
14087W        W30934   8.965   2.978  13.073 -0.3303 -0.2977 -0.0199
14088W        W30935  18.008  10.737   0.601  0.1631 -0.5899 -0.0911
14089W        W30936   6.464   1.844   4.335 -0.2468  0.2078  0.1015
14090W        W30937  14.467  13.519   3.749  0.2284 -0.0631  0.2280
14091W        W30938  12.896   9.947   5.922  0.1862  0.0960  0.0946
14092W        W30939   2.211   8.026  12.860 -0.1951 -0.2458 -0.0359
14093W        W30940   8.410  13.340  13.723 -0.0437 -0.0506 -0.2953
14094W        W30941   5.242   2.886   3.871  0.0792 -0.1856 -0.1684
14095W        W30942  17.080   7.838   1.793 -0.0841  0.1669 -0.0757
14096W        W30943   9.707  16.070   3.971 -0.0744  0.0770  0.0022
14097W        W30944  16.080  13.008  14.847  0.1197  0.3983 -0.3925
14098W        W30945  10.830   5.948   0.282  0.1127  0.0574  0.1107
14099W        W30946  17.235   9.289   5.487  0.0583 -0.0270 -0.0177
14100W        W30947  16.798   2.412   4.132 -0.1865  0.2155 -0.0473
14101W        W30948  10.452   4.651   2.640  0.1631  0.1595 -0.3584
14102W        W30949   9.023   3.724   2.549  0.1227 -0.0145  0.1983
14103W        W30950  12.189  15.558   3.694 -0.1996  0.1224  0.0411
14104W        W30951   1.740   6.253  12.440 -0.2511  0.1326 -0.0397
14105W        W30952  14.953   4.589  14.922 -0.0388  0.1051  0.3336
14106W        W30953   8.256  14.767  16.220 -0.0232  0.0125 -0.0685
14107W        W30954  16.088   7.985  11.732  0.1312  0.2025 -0.3040
14108W        W30955   4.578   1.949   3.386 -0.2171 -0.0179  0.0392
14109W        W30956   7.822   1.639   4.866 -0.2044 -0.1690 -0.0288
14110W        W30957   6.646   9.392  14.864  0.1548 -0.1787  0.2512
14111W        W30958   1.605   2.567  11.284  0.4371 -0.2752  0.1081
14112W        W30959  13.941  14.895  16.071 -0.1726  0.2241 -0.0749
14113W        W30960   5.595   2.988  13.741 -0.4258 -0.0100 -0.0173
14114W        W30961   3.355  13.339  13.463  0.1154  0.1810 -0.1089
14115W        W30962  12.456  12.017  16.581 -0.3331 -0.0261  0.1173
14116W        W30963  12.123   1.138  16.206  0.3949 -0.2642  0.1075
14117W        W30964  11.065  14.857  12.321  0.1535 -0.1076  0.0168
14118W        W30965   1.602   6.005  16.497 -0.1375 -0.1569  0.1389
14119W        W30966   7.013  11.757  15.759  0.2122 -0.2063 -0.1568
14120W        W30967  12.320  10.877   4.879 -0.0144 -0.1429 -0.5357
14121W        W30968  13.969  10.359  12.552  0.1539 -0.0501  0.1437
14122W        W30969  16.277   2.462  11.757 -0.0440 -0.0074 -0.0714
14123W        W30970   4.755  17.137  11.961  0.0316  0.2482  0.3988
14124W        W30971   8.677  16.759  13.847  0.2264  0.0515 -0.0152
14125W        W30972   7.627   5.710  16.669 -0.0140 -0.5207 -0.1532
14126W        W30973  12.471   2.679  14.701 -0.1336 -0.0702 -0.0761
14127W        W30974   4.072  11.082   3.688  0.0931  0.0878 -0.0597
14128W        W30975   7.074   9.207  14.633  0.3661 -0.2666  0.1385
14129W        W30976   9.645  17.271   2.391 -0.2909 -0.2548 -0.0043
14130W        W30977   5.705  10.015  15.241 -0.0501 -0.1481  0.0434
14131W        W30978  10.415   4.250   3.701  0.3235 -0.0739 -0.3525
14132W        W30979  14.084   9.387   4.505  0.0112  0.0208  0.1688
14133W        W30980   1.115   4.086  16.444 -0.0684 -0.1353 -0.2575
14134W        W30981   4.070   9.977   5.481 -0.2619  0.1323 -0.1260
14135W        W30982   0.121   5.507  14.860 -0.0550 -0.1515 -0.4003
14136W        W30983  10.625  17.727   4.311 -0.0451 -0.0610  0.3146
14137W        W30984  16.637   2.775  13.244  0.0910  0.1102  0.2277
14138W        W30985   4.920  16.273   1.514  0.0158  0.0479 -0.0492
14139W        W30986   8.586   1.888  12.304 -0.3185  0.1866 -0.0047
14140W        W30987  10.907  12.411   3.910 -0.2079  0.0189 -0.0696
14141W        W30988  14.205  15.246  11.526 -0.3069 -0.3013  0.0113
14142W        W30989   6.417   9.708  14.182  0.0214 -0.2901  0.0273
14143W        W30990   9.972  10.256   0.770  0.0171 -0.0140 -0.0451
14144W        W30991  11.701   9.771   1.745  0.2166 -0.1283  0.1915
14145W        W30992   8.334  16.839  12.600  0.1158  0.0118  0.0559
14146W        W30993  17.806   7.306   4.992  0.1194  0.1289 -0.1934
14147W        W30994   1.526   4.258   2.056  0.1795 -0.4369 -0.3617
14148W        W30995  15.291   1.989   3.933  0.0269  0.0541  0.1332
14149W        W30996  16.621  13.578   0.090 -0.1336  0.1268  0.1783
14150W        W30997  13.386  17.977  11.142  0.1882  0.2218 -0.1570
14151W        W30998  14.578   5.393  12.174  0.0587  0.0089  0.0482
14152W        W30999   8.609  17.745   4.042 -0.2524  0.0128 -0.3187
14153W        W31000   1.247  10.902   2.650 -0.4630 -0.1458  0.2161
14154W        W31001  10.391   8.531  16.009 -0.0733 -0.0235  0.1325
14155W        W31002  10.793  14.895  14.321 -0.2004 -0.2720 -0.0841
14156W        W31003  14.826  17.750  12.435 -0.1245  0.0778 -0.0831
14157W        W31004   6.392   4.496  13.727 -0.2024 -0.3362 -0.2019
14158W        W31005   9.426   6.826   0.494  0.0696  0.1678  0.3258
14159W        W31006   5.822   2.262   1.875  0.4164  0.0607  0.0477
14160W        W31007  11.862  12.276  12.782  0.0225  0.0968  0.0335
14161W        W31008   0.242   3.152  12.049 -0.1913  0.0921 -0.2961
14162W        W31009  13.688   2.665  11.885  0.0593 -0.2770 -0.0511
14163W        W31010   3.031   7.567  15.335  0.0908 -0.3098 -0.0975
14164W        W31011  12.206  15.540   0.120 -0.2081 -0.1015 -0.2291
14165W        W31012   6.022   8.957   5.071  0.0798  0.2261  0.0757
14166W        W31013   0.391   6.768   1.940 -0.2204  0.1053 -0.3464
14167W        W31014   5.418   7.601  15.202  0.2489  0.0069 -0.0901
14168W        W31015   0.848   1.659  12.298  0.1145 -0.4662  0.1632
14169W        W31016  11.148  13.748  14.850  0.2342  0.1551 -0.0264
14170W        W31017   0.219   5.763   3.640 -0.0333 -0.3012  0.1612
14171W        W31018   9.784   0.144  13.660 -0.1229 -0.4235  0.2968
14172W        W31019   4.558   0.811   0.475 -0.0348 -0.0107  0.3041
14173W        W31020   0.103  11.184  12.739 -0.1722 -0.1701 -0.1174
14174W        W31021  16.865   1.187   4.861 -0.0610  0.1989  0.0651
14175W        W31022   5.978  15.929  13.358 -0.0557  0.2543 -0.0301
14176W        W31023  17.232  15.146  13.860  0.1336 -0.1494  0.0204
14177W        W31024   4.544  15.315   2.021  0.0830  0.1561  0.3007
14178W        W31025   3.629   9.870   1.976  0.3651  0.0107 -0.0746
14179W        W31026   7.188   5.208   2.601  0.0117 -0.1083  0.0779
14180W        W31027   8.925  11.122   0.798  0.1108  0.0650  0.1576
14181W        W31028   0.658  17.644  14.384  0.0683 -0.0229 -0.1348
14182W        W31029  11.989   9.204  14.659  0.1001  0.0131 -0.0241
14183W        W31030  11.835   8.237  11.840  0.0804 -0.0827 -0.1411
14184W        W31031  12.102   2.511  16.522  0.0484  0.0468  0.2164
14185W        W31032  14.365   4.784   0.428 -0.2066  0.0707 -0.0735
14186W        W31033   8.831   6.043   0.551  0.0745  0.1275 -0.1929
14187W        W31034   0.164   6.304  11.735  0.0803  0.1350 -0.1095
14188W        W31035   4.012  13.960   2.095  0.1683 -0.3011  0.2102
14189W        W31036  11.489  15.144   3.768 -0.4166 -0.1609  0.0160
14190W        W31037  16.146  13.066   3.662 -0.0971  0.0360 -0.2411
14191W        W31038   3.211   0.425   4.594  0.1841  0.0888  0.0210
14192W        W31039   4.174  17.224   4.400  0.3598 -0.1575  0.2311
14193W        W31040  15.228   1.788  13.892  0.2050  0.1468  0.2772
14194W        W31041   5.305   3.116   3.413 -0.1123 -0.0619 -0.2945
14195W        W31042   7.876  13.645  12.245  0.0162 -0.1155  0.2532
14196W        W31043   3.209   8.171   4.543 -0.3023 -0.1644  0.1732
14197W        W31044   8.537  13.010  15.865  0.0342  0.0345 -0.0722
14198W        W31045  14.522   7.157   1.069  0.2582 -0.0852 -0.3970
14199W        W31046   0.263  17.814  14.004 -0.1085  0.0753  0.0725
14200W        W31047  10.112   4.854  15.109  0.3913  0.1385  0.0568
14201W        W31048  10.103   5.192  13.739  0.0439 -0.1693  0.2212
14202W        W31049   9.136  17.546   0.805  0.1590 -0.1274  0.3221
14203W        W31050   9.947   2.968  11.314  0.0471  0.0269 -0.1455
14204W        W31051  12.355   5.671   3.733  0.1301  0.1167  0.1716
14205W        W31052   2.368   8.251  15.702 -0.1550 -0.3017 -0.1092
14206W        W31053   0.490   5.959  11.567  0.1148  0.3169  0.0618
14207W        W31054   1.193   5.443  14.243 -0.1754 -0.2478  0.3108
14208W        W31055  11.467   7.023  16.128  0.4183  0.2367 -0.0834
14209W        W31056   9.437  11.486  12.844  0.1613  0.3609  0.0476
14210W        W31057  17.488  15.081  14.255  0.1501  0.0430  0.1428
14211W        W31058   5.459  11.398  15.814 -0.3351 -0.1878 -0.0857
14212W        W31059  16.084  15.802  14.580 -0.1051 -0.3511  0.0523
14213W        W31060   8.581   2.224   2.972  0.0218 -0.0958  0.3234
14214W        W31061  16.901  11.361   5.380 -0.2184 -0.0135 -0.1049
14215W        W31062  12.991  16.015   3.240 -0.0791  0.3079  0.3545
14216W        W31063   6.922   4.688   3.214 -0.3285  0.2625  0.0496
14217W        W31064  12.230   2.971   2.422 -0.0779 -0.4287  0.2920
14218W        W31065   0.015   4.174   5.115 -0.1981 -0.0488 -0.2297
14219W        W31066   4.068   7.725  14.202 -0.1204  0.2307  0.2082
14220W        W31067   0.119   3.245   2.028  0.1989  0.0861  0.0433
14221W        W31068   1.330   8.933   2.649 -0.2385  0.0840 -0.1140
14222W        W31069  13.691  13.537   5.771  0.4804 -0.0751 -0.1203
14223W        W31070   5.418   7.063   2.976  0.0819 -0.3290 -0.0165
14224W        W31071  14.223   7.088  12.023 -0.1287  0.0237  0.0706
14225W        W31072  14.598  13.375   2.364 -0.0538  0.0730 -0.0259
14226W        W31073  12.636   9.619   1.145  0.0138 -0.0602 -0.0621
14227W        W31074  16.226   5.190  16.178  0.1505 -0.0174 -0.1241
14228W        W31075   0.198  14.683  14.554 -0.1827 -0.0312 -0.0136
14229W        W31076   0.956   5.755  11.899 -0.0960 -0.1920  0.2396
14230W        W31077   1.930   5.402   1.371 -0.1180 -0.0587 -0.1580
14231W        W31078  12.366   7.934  14.666  0.0818  0.0488 -0.2084
14232W        W31079   9.304   9.649   4.029  0.2510  0.1197  0.2137
14233W        W31080   7.789   0.834  13.666 -0.1835  0.2979 -0.0297
14234W        W31081  14.104   3.348  14.121 -0.1793  0.0750 -0.0548
14235W        W31082  12.956  10.012  14.743 -0.0785  0.1147 -0.1194
14236W        W31083  11.851   0.048   1.402 -0.1010  0.1633  0.2167
14237W        W31084   6.509   8.991   3.181  0.1630 -0.0531 -0.2996
14238W        W31085   2.997  17.710  15.570  0.0446 -0.0444  0.3274
14239W        W31086  11.897   6.453  15.364 -0.1936 -0.3340  0.2623
14240W        W31087   2.367  17.675  16.264  0.2863 -0.2005 -0.1866
14241W        W31088  12.660   1.452  12.323 -0.0503  0.1408 -0.1916
14242W        W31089   5.385  11.827   3.938  0.2310  0.4951 -0.0672
14243W        W31090  16.307   4.586   2.667 -0.0532 -0.0213 -0.1240
14244W        W31091  14.886   6.253  14.568  0.1661  0.0402 -0.2616
14245W        W31092   3.888   3.097  12.425  0.0131 -0.0703 -0.1373
14246W        W31093  12.700  15.538   4.881 -0.1035  0.1671 -0.1025
14247W        W31094  13.585   1.946  12.863  0.2672 -0.1679 -0.1551
14248W        W31095  12.336  10.983   5.426  0.2006  0.1146 -0.1209
14249W        W31096  11.147   7.904  11.766 -0.0788  0.2127 -0.1169
14250W        W31097  17.598   5.167   0.091 -0.1022 -0.4273  0.0889
14251W        W31098  12.169  15.181  15.897  0.1243  0.1180 -0.1840
14252W        W31099  17.956  10.857  14.933  0.1022 -0.2057  0.0468
14253W        W31100   1.682   0.958  14.984 -0.0688 -0.0615 -0.2418
14254W        W31101  10.169   7.346  12.199 -0.1180  0.0507  0.1533
14255W        W31102   2.073   9.343  13.013  0.1853  0.2361  0.0009
14256W        W31103   3.805   7.766  13.740  0.2795  0.1218  0.2571
14257W        W31104  11.483  16.555   1.717 -0.1957 -0.0061  0.0213
14258W        W31105   9.048   2.351   0.398  0.1986 -0.0504  0.0594
14259W        W31106  10.640   0.204  16.285 -0.2130  0.0289  0.4212
14260W        W31107  14.005  12.821   1.495  0.0562  0.2400  0.1173
14261W        W31108   4.086   4.637  15.860  0.0060  0.0305 -0.0774
14262W        W31109   4.022  12.354   1.050 -0.2165 -0.0073  0.0592
14263W        W31110  11.042  15.684  14.109 -0.2894  0.1332  0.2458
14264W        W31111   8.734  12.486  13.200  0.1780 -0.2832  0.4299
14265W        W31112  15.878   0.001  11.378 -0.0298 -0.1671  0.0304
14266W        W31113  12.027  11.195   4.610  0.2705  0.1638 -0.0317
14267W        W31114  11.613   7.600   3.638  0.4534 -0.0675  0.1579
14268W        W31115   0.136  14.043   4.289  0.0277  0.2997  0.1382
14269W        W31116   2.131  14.819  15.649  0.0126 -0.0920  0.2401
14270W        W31117   4.227   0.928  16.589 -0.0994  0.0227 -0.1632
14271W        W31118   8.739  15.700   3.420  0.2256 -0.3940  0.2899
14272W        W31119  11.773  11.437  16.158 -0.1147 -0.0957  0.2367
14273W        W31120  10.347  14.389   1.220 -0.2752  0.1467 -0.2657
14274W        W31121  10.794   7.469   1.963  0.1920  0.2101  0.1573
14275W        W31122   9.564  11.538  15.702 -0.1716  0.1564  0.1267
14276W        W31123   4.840   3.264   4.528 -0.1083  0.0824 -0.1219
14277W        W31124   1.769   4.182   5.651 -0.1055 -0.3555 -0.2719
14278W        W31125  13.886  17.470  15.393  0.2073 -0.1180  0.1546
14279W        W31126   1.574   8.534   1.313  0.0399  0.0862 -0.0319
14280W        W31127  15.539   7.130  13.088 -0.1788  0.2495 -0.2291
14281W        W31128   7.357   0.078  15.831 -0.1238  0.0152 -0.0173
14282W        W31129  15.203   0.020   0.063  0.1704  0.0924 -0.1163
14283W        W31130   5.033  16.951   1.109  0.1544  0.1598 -0.0703
14284W        W31131  17.334  11.448   2.761  0.1900  0.1036 -0.0081
14285W        W31132   3.846   7.195  13.769 -0.0845  0.0925 -0.0224
14286W        W31133  17.816   4.809  15.940  0.2021 -0.3380  0.3691
14287W        W31134   9.906  17.017  14.021 -0.2569  0.0797 -0.0539
14288W        W31135  10.011  17.483  14.944  0.0033 -0.2925  0.0504
14289W        W31136   6.349  10.582   0.296 -0.0065 -0.2275  0.0023
14290W        W31137   6.375  10.585  15.174  0.1650 -0.3584  0.3374
14291W        W31138  11.640   9.460   3.451  0.1272  0.0251  0.2102
14292W        W31139  13.949  10.420   2.440 -0.0158 -0.1752 -0.1109
14293W        W31140  17.323   2.362   5.201  0.0023 -0.5062  0.0655
14294W        W31141   3.562  14.437  13.603 -0.2212  0.2922  0.2352
14295W        W31142  14.554   4.587   3.221 -0.3328 -0.0168  0.1570
14296W        W31143   6.404  17.311   3.920 -0.2950  0.0837  0.1214
14297W        W31144   0.664  16.968   6.021 -0.0622  0.1559 -0.0078
14298W        W31145  15.649  14.415  13.412 -0.0610  0.0139  0.3324
14299W        W31146   8.073  17.017  15.006 -0.0875  0.1827  0.1267
14300W        W31147   5.943   8.634   2.592  0.1473  0.1430  0.0572
14301W        W31148   3.267  16.600   2.131  0.0199  0.0004  0.1504
14302W        W31149   0.828  13.125   2.520  0.2874 -0.0673 -0.0151
14303W        W31150   8.035  13.043   5.969  0.3748 -0.1388  0.0306
14304W        W31151   8.362   2.925  12.208  0.0471 -0.0697 -0.1895
14305W        W31152   8.360   8.989  14.084  0.2559  0.1121  0.2614
14306W        W31153   9.459  12.114  12.941 -0.1359  0.2290  0.3125
14307W        W31154   1.637  13.849  13.509  0.2334  0.2667 -0.0368
14308W        W31155   0.677  10.657   5.662 -0.3918 -0.0294  0.3558
14309W        W31156   9.249   9.310  12.944 -0.0893 -0.1189  0.3203
14310W        W31157   0.714  17.170  15.739 -0.2144  0.2555  0.0581
14311W        W31158  17.694  14.639  11.555 -0.1857 -0.1129 -0.0517
14312W        W31159   5.234   1.154   1.077  0.0886 -0.2225 -0.1365
14313W        W31160   3.293   3.549   2.692 -0.1833 -0.0784  0.1513
14314W        W31161   2.147   9.080   1.760  0.1472  0.3095  0.1727
14315W        W31162   0.142  11.350   3.740 -0.3054 -0.1978 -0.2673
14316W        W31163  15.983  14.414   0.397 -0.4529  0.0100  0.1488
14317W        W31164  11.727   4.690  14.405 -0.1014  0.0885  0.1442
14318W        W31165  17.994  17.429   4.526  0.0326 -0.0956 -0.1394
14319W        W31166  12.228   4.597  16.524  0.0609  0.1528 -0.0040
14320W        W31167   7.016  12.022  16.196 -0.3786  0.1067  0.0812
14321W        W31168  12.454   6.148   2.424 -0.0005 -0.0668 -0.1531
14322W        W31169  10.817  14.560  11.680 -0.2395 -0.0209 -0.1095
14323W        W31170   7.274   5.501   4.782 -0.1885 -0.3371  0.0334
14324W        W31171  14.539   3.007  15.468  0.0033 -0.1664 -0.0079
14325W        W31172  15.678  17.640  13.899  0.4138  0.0915 -0.2177
14326W        W31173   5.414  16.120  14.605  0.1655  0.0061 -0.1403
14327W        W31174  10.785   5.824  16.463 -0.0327  0.1101 -0.1920
14328W        W31175   9.573  14.346  15.186 -0.2248 -0.1238 -0.0751
14329W        W31176  15.294  15.270   1.792  0.0637 -0.0544 -0.3247
14330W        W31177   2.195   3.314  13.874  0.0288  0.0857 -0.1588
14331W        W31178   8.115  17.861  11.586  0.0149 -0.3176 -0.0313
14332W        W31179  15.076   0.112   3.567 -0.0727  0.2199  0.1568
14333W        W31180  17.815  13.074   2.676 -0.2437 -0.1585 -0.1362
14334W        W31181   6.477  10.744   3.508 -0.0452  0.2948 -0.1775
14335W        W31182   3.760   8.761  16.083 -0.3351  0.1363  0.2296
14336W        W31183  10.958   4.140   4.471  0.1660  0.0352  0.0955
14337W        W31184   1.610  16.517  11.646  0.0961  0.0612 -0.2026
14338W        W31185   5.726  17.665  15.460  0.2748 -0.0102 -0.2263
14339W        W31186   4.450   3.073  13.928 -0.1008 -0.0839 -0.1513
14340W        W31187   7.072  17.985  15.157  0.2103 -0.0562 -0.0349
14341W        W31188  11.576   1.477   3.450  0.0940  0.1814 -0.1025
14342W        W31189  12.562   9.400  12.089  0.2186  0.0644  0.1615
14343W        W31190   3.644   0.584   5.848 -0.1716  0.0385  0.0406
14344W        W31191  15.672  16.605  13.576 -0.1427  0.2715  0.0842
14345W        W31192  16.922   3.982   4.132 -0.0334  0.0389  0.0408
14346W        W31193   6.905   1.974   6.105  0.0550  0.2203 -0.3269
14347W        W31194  16.392   0.518  15.124  0.1344  0.0757  0.0400
14348W        W31195   5.848  11.311   0.780  0.0280 -0.2019 -0.0770
14349W        W31196  10.729   7.209   0.004 -0.0303 -0.1355 -0.3398
14350W        W31197  12.129   9.196   1.375 -0.1916 -0.0169  0.0670
14351W        W31198   4.564  16.711  12.747  0.0209  0.0728 -0.1883
14352W        W31199   8.932   6.529  16.599 -0.1159  0.1227 -0.1935
14353W        W31200   8.645  13.645  15.244 -0.1718 -0.1550  0.1616
14354W        W31201  15.048   0.318   2.027  0.0950  0.1180 -0.1444
14355W        W31202   7.476   8.474   3.937  0.2356 -0.0244 -0.1429
14356W        W31203  16.416  15.942   1.083 -0.1096  0.3018 -0.0083
14357W        W31204   6.540   2.733  11.142  0.1715  0.0756  0.0814
14358W        W31205  12.341  12.844   4.385 -0.0680  0.0335  0.0518
14359W        W31206   2.169   2.551  14.330  0.0377  0.1089 -0.0361
14360W        W31207   2.753   7.182  13.732  0.5719 -0.4514  0.0668
14361W        W31208  16.162   3.944   1.232 -0.1045 -0.1679 -0.1094
14362W        W31209  11.158   8.283  12.741  0.0857 -0.1516 -0.2090
14363W        W31210  12.934   9.714   2.908  0.1235  0.1369 -0.1605
14364W        W31211  12.153  16.935  12.150  0.0412  0.1513  0.0634
14365W        W31212   0.576  14.894  15.310  0.2709 -0.0687  0.0523
14366W        W31213   9.326  10.550  16.572 -0.2999  0.1259  0.0525
14367W        W31214   3.805  18.074  12.124 -0.1270  0.0800 -0.1337
14368W        W31215  13.715   6.081   0.307 -0.1967  0.0614  0.0647
14369W        W31216   6.902   8.440   1.891 -0.1903 -0.0680 -0.0216
14370W        W31217   6.671   7.256   1.508  0.4884 -0.1344 -0.0578
14371W        W31218   8.512   7.627   2.724  0.0600  0.2856  0.0138
14372W        W31219   1.077  13.207  13.490  0.3449 -0.1042 -0.3202
14373W        W31220   7.329  17.715  14.664 -0.1893  0.0068 -0.0324
14374W        W31221   0.124  10.368   3.159  0.2461 -0.2252  0.2975
14375W        W31222   8.578   0.917   1.996  0.2382 -0.0914 -0.0267
14376W        W31223   0.799   4.142   4.679  0.2807  0.1150 -0.0280
14377W        W31224  10.536   7.026   1.712  0.2541  0.3054 -0.1376
14378W        W31225  14.997   1.656   1.654 -0.1028  0.0304  0.0234
14379W        W31226  16.368   9.398   2.371  0.0710  0.1044  0.1123
14380W        W31227   7.158   5.130  16.287  0.1882  0.1713  0.1259
14381W        W31228  10.967   2.367   4.076  0.1462  0.0803 -0.2644
14382W        W31229   8.453   9.901   4.594 -0.1085 -0.0269 -0.2882
14383W        W31230   9.185   2.314  15.171 -0.0890  0.0290 -0.1776
14384W        W31231   7.944   1.454   5.414  0.2680  0.0187  0.1567
14385W        W31232   7.868   0.609   3.054 -0.2237 -0.3922 -0.0814
14386W        W31233  12.679  13.428  12.677 -0.2070 -0.0511 -0.0287
14387W        W31234  17.972  12.595   0.111 -0.2521 -0.1819 -0.0384
14388W        W31235  15.949  17.676   0.461 -0.2122 -0.0798  0.0824
14389W        W31236   5.147  15.408   3.576  0.2622 -0.0834  0.1791
14390W        W31237   3.021  10.409   3.304 -0.0784  0.1432  0.1586
14391W        W31238  11.726   3.195  13.739 -0.1968  0.0233 -0.1032
14392W        W31239   2.995  16.466  11.233  0.0977 -0.2021 -0.1038
14393W        W31240  12.344   9.200  13.073  0.1161 -0.3519  0.0400
14394W        W31241  11.061  16.518  12.976  0.1848  0.1568 -0.1622
14395W        W31242   7.891   4.081  16.538 -0.2875 -0.0311 -0.0737
14396W        W31243   7.651  12.423  15.782  0.1686 -0.0157  0.0584
14397W        W31244   5.409  16.350   1.552 -0.2717  0.3677  0.1678
14398W        W31245   4.048  15.302   3.996  0.0333 -0.1605  0.1311
14399W        W31246  12.853   0.647   4.094 -0.0513  0.0869  0.1614
14400W        W31247   1.788  16.995  15.205  0.0662 -0.1720 -0.0142
14401W        W31248   4.777   5.076  11.984 -0.1160 -0.0052  0.3647
14402W        W31249   9.601  17.669   0.087  0.2614 -0.1356 -0.0233
14403W        W31250  14.752   5.413   3.807  0.2568  0.0391 -0.2110
14404W        W31251   4.244   0.538  15.885 -0.0646  0.1961 -0.1584
14405W        W31252  14.199   7.248  16.164 -0.0915  0.2060 -0.2281
14406W        W31253   0.493   7.695   5.338  0.1916  0.2206  0.3386
14407W        W31254  17.218   9.358   4.573 -0.0153 -0.3726 -0.1185
14408W        W31255   4.037  12.382  15.943  0.1569 -0.0285 -0.0998
14409W        W31256   6.955   4.784   5.915  0.1061  0.1380  0.2214
14410W        W31257  15.028   3.198  15.272  0.2607 -0.1454  0.1786
14411W        W31258   6.661  17.809   0.924 -0.0428  0.1510 -0.1636
14412W        W31259   6.002   8.318   0.341 -0.1377 -0.2440  0.1292
14413W        W31260  16.072  11.021   2.762 -0.0374  0.1002  0.1047
14414W        W31261   0.008  13.797   0.921  0.1673  0.4401  0.0208
14415W        W31262   6.486   7.411  14.714 -0.0446 -0.0559 -0.2954
14416W        W31263   8.992  15.179   1.440  0.1826  0.2555  0.2399
14417W        W31264  12.846  10.006   0.939  0.0298  0.0127 -0.0462
14418W        W31265   0.913  17.275  13.097  0.5598 -0.1213 -0.0535
14419W        W31266  15.736   9.131   2.872 -0.4364 -0.1800  0.1162
14420W        W31267   2.919   6.729  13.619 -0.1378 -0.2420  0.0025
14421W        W31268   0.233   3.034  14.209 -0.2277  0.3056 -0.0799
14422W        W31269  14.139  15.535  12.304  0.0871 -0.2667  0.1613
14423W        W31270  10.740   0.374   4.443 -0.4152 -0.1596 -0.0085
14424W        W31271   8.313  13.242  12.764 -0.1747 -0.0529 -0.0993
14425W        W31272  11.420   7.670  14.410 -0.3506 -0.0679  0.0135
14426W        W31273  14.651  16.468   0.766  0.1648  0.2236 -0.1280
14427W        W31274   9.248   4.767   1.184 -0.0261 -0.1510 -0.0799
14428W        W31275  11.704  14.403  11.693  0.0801 -0.0448 -0.0774
14429W        W31276   8.230   3.121  16.522 -0.1914 -0.1950 -0.1812
14430W        W31277   8.967  14.725   1.170 -0.0193 -0.0937 -0.3411
14431W        W31278   8.536  10.635   0.074  0.1511  0.0103 -0.2205
14432W        W31279   2.572   9.387   5.010  0.0255  0.2750  0.1939
14433W        W31280   9.494  10.794   4.762 -0.0369  0.0553  0.2293
14434W        W31281  17.031  17.095   4.622  0.2139  0.0338 -0.1809
14435W        W31282  17.344  10.667   6.045 -0.0376  0.0448 -0.2871
14436W        W31283  13.663  14.479  12.532 -0.0211 -0.1601  0.0098
14437W        W31284  12.653  14.439  16.086 -0.0922  0.1752 -0.0102
14438W        W31285   8.214   2.492   2.049  0.0678 -0.0673 -0.0527
14439W        W31286   6.085   0.976   1.449 -0.0767 -0.2013 -0.0071
14440W        W31287   8.758   5.312  14.089 -0.1583  0.0488  0.0588
14441W        W31288  12.244  17.734   4.781  0.0409 -0.1866 -0.0190
14442W        W31289   3.160   4.649   5.638  0.0833  0.2248  0.1475
14443W        W31290  12.997   6.797  12.530 -0.0916  0.1958  0.0311
14444W        W31291  14.852  10.484   1.628  0.1176 -0.2183  0.2943
14445W        W31292   4.049  16.245   0.619  0.0814 -0.0902  0.0192
14446W        W31293  12.332   5.301   5.330 -0.3390 -0.1915  0.0537
14447W        W31294  12.799  15.614  12.876 -0.2112  0.1132 -0.1398
14448W        W31295   5.923  11.071  15.949 -0.2153 -0.3082  0.3043
14449W        W31296  15.484  12.751  15.850 -0.3350 -0.0563  0.0992
14450W        W31297   3.903   9.361  16.209  0.0265  0.1925  0.2242
14451W        W31298   6.231  15.557  16.371  0.0234  0.4470 -0.1636
14452W        W31299  11.409   3.860   1.857 -0.2251  0.0408  0.0816
14453W        W31300   8.180  13.362  11.881 -0.0284  0.0706  0.2298
14454W        W31301   5.372   0.789   5.145  0.2221 -0.1659 -0.0815
14455W        W31302   7.967   7.267  15.913  0.0260  0.1373  0.2435
14456W        W31303  16.695  16.462  14.591 -0.0734  0.0324 -0.1018
14457W        W31304   2.216   4.756   1.861  0.0499  0.1464  0.1502
14458W        W31305  10.700   1.417  11.517 -0.2475 -0.0054 -0.0129
14459W        W31306  17.257  14.212  13.732 -0.0741 -0.1141  0.0670
14460W        W31307   6.941  14.403   1.846  0.0751  0.2472  0.1028
14461W        W31308   8.769   9.205  15.312  0.1646 -0.2583 -0.1885
14462W        W31309  12.719  15.597   3.860  0.1182  0.1114  0.0064
14463W        W31310  12.173   4.061  15.797 -0.0223  0.1560 -0.3177
14464W        W31311  14.673  14.504   3.045  0.1496  0.1344  0.1756
14465W        W31312   3.920   8.089  12.450 -0.2666 -0.1382 -0.5108
14466W        W31313  11.972   5.018  12.466 -0.2278 -0.1506 -0.0285
14467W        W31314   6.545   6.651   4.807  0.1112  0.2232  0.0764
14468W        W31315   1.702  10.522  16.466 -0.1965 -0.0588 -0.3024
14469W        W31316   2.602  10.422   5.665  0.1010 -0.0690  0.1340
14470W        W31317   0.209   9.825  15.935  0.2339 -0.0297  0.0853
14471W        W31318   1.363   4.804  11.552  0.0704 -0.0175  0.3354
14472W        W31319  10.892  16.637  15.727 -0.1844 -0.0093 -0.0199
14473W        W31320   7.072   0.948   3.919  0.0094 -0.0343  0.3861
14474W        W31321   5.480  16.919   0.938 -0.2917  0.3222 -0.3752
14475W        W31322  11.201   7.455   1.609  0.0062  0.1193  0.0999
14476W        W31323   7.400   0.729  15.668  0.0487 -0.0457 -0.0294
14477W        W31324   7.128  17.018   1.741 -0.2682  0.2767 -0.0461
14478W        W31325  17.821   6.984   3.661  0.2417 -0.0741  0.1004
14479W        W31326   2.544  17.743  11.868 -0.1538  0.1383 -0.0634
14480W        W31327   5.259  16.433  13.567 -0.2716  0.0875  0.0879
14481W        W31328   1.030   1.367  14.293  0.0510 -0.1003  0.3306
14482W        W31329  17.661  11.937  13.663 -0.0577 -0.3681  0.0260
14483W        W31330   7.580   5.622  13.423 -0.0221 -0.2446 -0.0302
14484W        W31331   7.389   1.672  15.807  0.0292 -0.0865 -0.1695
14485W        W31332   3.236   1.188   3.824  0.0369 -0.1181  0.0382
14486W        W31333  16.284   8.091  10.731 -0.1798 -0.0506  0.0883
14487W        W31334   0.324   4.299  11.573 -0.2815  0.4721 -0.0944
14488W        W31335  15.587  13.680  14.927 -0.0728 -0.0440 -0.1498
14489W        W31336   0.693  12.843   4.705  0.3236  0.0255  0.0014
14490W        W31337   5.683  17.924  11.799 -0.0132 -0.2021  0.1270
14491W        W31338  16.723  10.293  14.874  0.0515 -0.2087 -0.2150
14492W        W31339  10.911   8.595  12.426 -0.0357 -0.0045  0.1014
14493W        W31340   1.433   7.516   5.484 -0.1134  0.0847  0.1647
14494W        W31341   7.689  11.208  14.638  0.2196 -0.0154  0.2057
14495W        W31342  11.610   5.290  15.276 -0.2806 -0.1109  0.3121
14496W        W31343  14.368  15.553   3.383 -0.0970 -0.1220 -0.5333
14497W        W31344   9.907  11.773  13.678 -0.1903  0.0042  0.0537
14498W        W31345  16.409   5.360  13.391  0.3016  0.1078  0.1886
14499W        W31346   8.209  17.691  16.100  0.1809  0.1124 -0.4279
14500W        W31347  13.211  16.448   4.830  0.1309  0.1019 -0.0273
14501W        W31348  10.895  12.005  16.517  0.0471  0.0237 -0.3938
14502W        W31349   3.769   1.050  16.564 -0.1295  0.3128 -0.0884
14503W        W31350  11.983   1.288  14.497  0.5793 -0.2298 -0.0055
14504W        W31351   2.198  15.770   5.271 -0.4679  0.0094 -0.0311
14505W        W31352   8.741   0.488   1.700 -0.0064  0.2722  0.2201
14506W        W31353   6.954  16.638   0.289 -0.0052 -0.0333 -0.1271
14507W        W31354  15.159  11.858  15.891 -0.0984  0.1653  0.1554
14508W        W31355   8.238  15.797   5.046  0.0500 -0.1039 -0.2246
14509W        W31356   8.355   5.553   1.442  0.0909 -0.2392  0.2726
14510W        W31357  17.325   9.168  14.232 -0.2372  0.1082  0.1210
14511W        W31358  11.278   7.290  16.682 -0.0344  0.0737  0.2093
14512W        W31359   5.301  17.500   5.494  0.2781  0.0246 -0.1278
14513W        W31360   3.750  14.693   5.438  0.1879  0.2341 -0.0253
14514W        W31361   9.970  11.188  12.507 -0.1442  0.2287  0.2300
14515W        W31362   2.282   5.596  16.475  0.1756 -0.1321 -0.3574
14516W        W31363   4.539   3.548  13.766 -0.0432  0.0325 -0.0351
14517W        W31364  13.681   7.572   1.745 -0.0414 -0.0905  0.4630
14518W        W31365  11.176   9.742  11.907  0.1179 -0.1779 -0.0263
14519W        W31366   8.678   7.045  16.672 -0.1377  0.0563 -0.5184
14520W        W31367  16.517   8.964  14.911  0.0029 -0.0273  0.3654
14521W        W31368   5.033  13.322   3.035  0.3261  0.0423 -0.2206
14522W        W31369  10.682   6.503   4.017  0.0890 -0.0049  0.2758
14523W        W31370   3.998   3.631   3.918  0.1902  0.3348  0.1833
14524W        W31371   1.745  14.707  15.921 -0.1939  0.1569 -0.2295
14525W        W31372  14.052   0.268  16.677 -0.1086 -0.3894  0.2176
14526W        W31373  13.708  16.403  11.388 -0.2020  0.0479  0.2820
14527W        W31374   2.419   1.208  10.486  0.0736  0.0488 -0.0722
14528W        W31375   9.519  17.089  11.411  0.1429  0.1378 -0.1617
14529W        W31376   1.340   7.840   1.230 -0.1067 -0.2476 -0.0349
14530W        W31377   3.913  13.916   0.442 -0.1395  0.0362  0.0134
14531W        W31378  16.153   6.559   2.540  0.1416 -0.2929 -0.1863
14532W        W31379   1.976  17.214  16.177  0.1635 -0.0758  0.0106
14533W        W31380   7.041   1.387  16.202  0.0916 -0.2866  0.2269
14534W        W31381   8.114   6.523  12.141  0.1128 -0.0358 -0.0739
14535W        W31382   9.494  15.895   5.625  0.2347 -0.0337  0.0224
14536W        W31383  12.914  17.083  13.845 -0.0136  0.2926  0.3683
14537W        W31384  12.376   6.634  15.411 -0.0022 -0.1263 -0.1902
14538W        W31385   8.823  14.870   1.813 -0.0165 -0.0389  0.0957
14539W        W31386   0.308   2.419   3.575 -0.1368  0.2547 -0.1073
14540W        W31387  17.906  14.783  15.880 -0.0348 -0.4108  0.2258
14541W        W31388   7.416  16.487   0.486  0.2159 -0.0364 -0.1214
14542W        W31389   2.175   1.443  12.298 -0.0573 -0.0764 -0.0376
14543W        W31390   4.542   8.195  13.333  0.1275 -0.0182 -0.0156
14544W        W31391  17.534   3.383   5.013  0.2136 -0.3362 -0.2120
14545W        W31392   7.809  13.406   1.438 -0.1721  0.1829 -0.0968
14546W        W31393   3.454   8.732  12.914 -0.4422  0.1811 -0.2331
14547W        W31394   1.205   5.670   5.219  0.1509 -0.0619  0.1140
14548W        W31395   3.318   6.628  14.440  0.1084 -0.0170 -0.0365
14549W        W31396   1.075   9.677   5.294 -0.0575 -0.1013  0.0099
14550W        W31397   8.484  11.197  16.009 -0.2897 -0.1251 -0.1795
14551W        W31398   0.215   8.663  14.120  0.1199  0.2107  0.0274
14552W        W31399   3.114   3.315  15.818  0.4838  0.0614  0.0871
14553W        W31400   4.448  10.767  12.961  0.0305  0.1042 -0.2651
14554W        W31401  17.670   1.432   1.650  0.4191  0.0245  0.1442
14555W        W31402   6.939   0.829   1.347 -0.0131 -0.1382 -0.3684
14556W        W31403  12.954   4.390   1.007 -0.0289 -0.0093 -0.1249
14557W        W31404  12.822   5.035  13.769 -0.0974  0.1761 -0.4122
14558W        W31405   9.338  12.704  14.952  0.0927 -0.2583  0.0239
14559W        W31406   6.078   7.474  15.518  0.0998  0.2302  0.1677
14560W        W31407   6.149   9.571   3.293  0.0936 -0.3054  0.1678
14561W        W31408   5.382   0.813  13.476  0.2466  0.1117 -0.2928
14562W        W31409  12.504  10.596   2.939  0.4233 -0.4680 -0.0782
14563W        W31410   4.625  14.942  12.685 -0.0360  0.1320  0.1505
14564W        W31411   0.735   6.364   1.939  0.0445  0.4739 -0.0605
14565W        W31412  14.842   5.602   4.796  0.1502  0.1829  0.1578
14566W        W31413   1.453   7.842  14.996 -0.0723 -0.2231  0.1425
14567W        W31414   3.516   5.548   0.375 -0.1773 -0.1494  0.2421
14568W        W31415  12.358  17.244  12.629 -0.0761 -0.2978 -0.1391
14569W        W31416  11.090   4.533   4.867 -0.0341 -0.0550 -0.2628
14570W        W31417   9.495   6.631   0.047  0.1456  0.2129  0.1149
14571W        W31418   2.854  13.507   4.602  0.0553 -0.0006 -0.1060
14572W        W31419  15.831   4.154   4.415  0.0690  0.1491  0.2122
14573W        W31420   9.005  16.902   1.352  0.1148  0.1791  0.1337
14574W        W31421  15.964  10.642   1.110  0.2269  0.0857  0.3224
14575W        W31422  17.336  15.550  11.844  0.3098  0.2076  0.1773
14576W        W31423  14.701  11.635  15.970  0.0001 -0.0917  0.0794
14577W        W31424   4.129   0.604   0.665  0.0106 -0.3305 -0.0447
14578W        W31425   7.624  10.853   2.033  0.4358  0.0360  0.0725
14579W        W31426   0.806   9.528  15.323  0.0220  0.1407 -0.1108
14580W        W31427  14.984  10.843  15.916  0.0093  0.0461 -0.0910
14581W        W31428   8.902  14.438   2.669  0.4850 -0.2695  0.1148
14582W        W31429  13.342  13.278  13.236 -0.0159 -0.1107 -0.0282
14583W        W31430  13.644  10.277  12.119  0.1823  0.1179 -0.0640
14584W        W31431  13.356   6.214   3.485  0.1516 -0.2094 -0.0755
14585W        W31432   1.458   8.082  12.343  0.1536  0.1255 -0.4272
14586W        W31433  16.091   6.279   1.800 -0.1765  0.3470  0.2511
14587W        W31434  11.059   8.436   2.932 -0.1257 -0.0288  0.1782
14588W        W31435  16.755   6.498   4.942 -0.2554 -0.0913 -0.1317
14589W        W31436   1.885   5.121   1.753  0.2678  0.2003 -0.2532
14590W        W31437   9.004  14.714   0.645 -0.2261 -0.1955 -0.3292
14591W        W31438  16.163   3.034   1.402 -0.0829 -0.1066  0.1639
14592W        W31439   3.744  16.935   5.208 -0.0388  0.0183  0.0112
14593W        W31440   6.565  16.235   1.687  0.0495  0.0759  0.0486
14594W        W31441  13.447   5.289  16.415 -0.2864 -0.0816  0.2353
14595W        W31442   0.761   6.991   6.418  0.0379  0.2290  0.0207
14596W        W31443   1.528  14.864  14.448 -0.2646  0.0196  0.0810
14597W        W31444   8.229  12.666  15.631  0.2412  0.2736  0.1314
14598W        W31445  17.983   9.002   2.932 -0.0906 -0.2542 -0.1358
14599W        W31446   0.489   3.598  13.442  0.0919 -0.0660 -0.1979
14600W        W31447   2.842   4.754  15.249 -0.0929 -0.3075 -0.1967
14601W        W31448  12.066   8.490   2.115 -0.4110 -0.0678  0.0139
14602W        W31449  16.548  14.201   5.393 -0.0163  0.2035  0.0201
14603W        W31450  15.879   5.657   0.965  0.1834  0.0818  0.2596
14604W        W31451   6.399   6.110  15.392  0.0306 -0.1075  0.0032
14605W        W31452  16.864  16.926   5.117  0.0460 -0.0313  0.1955
14606W        W31453   0.653   7.608  14.304 -0.1739  0.0643  0.0294
14607W        W31454  13.451  11.066   4.246 -0.0927  0.1149 -0.2546
14608W        W31455   8.413   2.895   1.337 -0.0305  0.0905 -0.0259
14609W        W31456   2.683   3.707   4.269 -0.0602  0.2402 -0.0941
14610W        W31457   5.431  13.341   3.856 -0.1027 -0.2167 -0.2763
14611W        W31458   3.639  13.484  12.560 -0.1956  0.0750  0.0138
14612W        W31459   6.937  12.017  13.516  0.0221  0.1188 -0.0828
14613W        W31460   7.241  10.801  15.380  0.1482  0.1694  0.2681
14614W        W31461   3.697   7.110  12.086 -0.1442 -0.1092  0.0193
14615W        W31462  14.970   7.749   4.416 -0.0480  0.1780 -0.2055
14616W        W31463   4.632  10.415   1.698 -0.0939  0.2552 -0.0300
14617W        W31464  13.619   5.697   5.988 -0.3638 -0.2627  0.0363
14618W        W31465   1.865  11.267   0.550 -0.2199 -0.0955 -0.2811
14619W        W31466  16.680   1.194  11.591  0.0930 -0.1741  0.1775
14620W        W31467   6.985  12.493  13.574 -0.0972 -0.1386  0.0316
14621W        W31468   1.452   9.644  11.325  0.1190 -0.1584 -0.1198
14622W        W31469   4.400  14.902   1.712 -0.1077 -0.0837 -0.0841
14623W        W31470   2.706  13.500  15.619 -0.2799 -0.1865 -0.0374
14624W        W31471   9.644   7.611   4.048  0.1161  0.0099 -0.1683
14625W        W31472   5.764  15.168   2.849 -0.1628 -0.1090  0.0109
14626W        W31473   3.559  16.420   0.993  0.5264  0.0354  0.2197
14627W        W31474   1.675   2.231  12.576  0.0180  0.2091  0.1247
14628W        W31475  11.174   9.007   2.644  0.1650  0.2087 -0.2400
14629W        W31476   6.300   9.047   6.406 -0.0051 -0.2301  0.1208
14630W        W31477  11.529   7.842  12.142 -0.0981  0.0971 -0.1756
14631W        W31478   3.902  16.442  13.836 -0.3470 -0.0497  0.0974
14632W        W31479   1.618   9.606   2.808  0.0706  0.2416  0.1792
14633W        W31480  17.264   3.815  15.088  0.1908 -0.3049 -0.0580
14634W        W31481   3.369   0.312  10.394 -0.0832  0.1266 -0.1524
14635W        W31482  17.033   5.072   1.401  0.1257 -0.0990 -0.0891
14636W        W31483   6.042   0.970   3.925  0.1105  0.1778 -0.1493
14637W        W31484  14.546  11.465   0.375  0.0116 -0.0343 -0.1590
14638W        W31485   7.440   8.175   3.132 -0.0143 -0.0725  0.0243
14639W        W31486   2.414  10.329   4.759  0.0107 -0.1264  0.0931
14640W        W31487  11.221  12.728   0.816 -0.0648  0.2267 -0.2506
14641W        W31488   4.195   4.878  13.783 -0.0136  0.1661  0.0635
14642W        W31489   6.650  17.802  15.393  0.0154  0.0187  0.2278
14643W        W31490  11.290   3.219   0.774 -0.0099  0.0018 -0.1339
14644W        W31491   5.231   9.681   2.179 -0.1569 -0.1490 -0.0736
14645W        W31492   2.703   5.157   2.500 -0.0071  0.1603  0.0175
14646W        W31493  12.725  11.437   4.267 -0.3318  0.0062  0.1569
14647W        W31494  11.004   3.096  14.354  0.3348 -0.0286 -0.2603
14648W        W31495  15.729  13.763   1.178 -0.0219 -0.3796  0.1977
14649W        W31496   5.818  16.592  12.902  0.0498  0.0795  0.0742
14650W        W31497   1.165   1.269  12.294 -0.1819 -0.3185  0.1276
14651W        W31498  16.610   2.982   6.169  0.2288  0.1175 -0.1491
14652W        W31499   1.267  10.733   4.449 -0.2022 -0.1272 -0.1467
14653W        W31500  11.212  13.804  15.429  0.1178 -0.0662  0.1535
14654W        W31501  14.375  16.247   1.672 -0.0519  0.1775  0.2170
14655W        W31502  15.407   8.520  11.191 -0.2021 -0.1462 -0.0869
14656W        W31503  12.943   7.405  11.964 -0.2464  0.1694  0.0893
14657W        W31504  12.226   6.457   1.084  0.1608 -0.0944 -0.1013
14658W        W31505  14.013   1.450   3.607 -0.3659 -0.1896 -0.1253
14659W        W31506  16.441  10.274   4.999  0.2990  0.2728  0.0883
14660W        W31507   4.307  10.237   4.163  0.1139  0.1886 -0.0015
14661W        W31508  16.821   4.080  12.638  0.3598 -0.1337 -0.0786
14662W        W31509  15.468   9.186   3.353  0.1649  0.1183  0.0012
14663W        W31510   5.931  15.417   2.421 -0.0407 -0.0800 -0.2541
14664W        W31511   6.152   0.948  14.563 -0.0578 -0.2820  0.0529
14665W        W31512   4.910   1.978  11.366 -0.2194 -0.0456 -0.0523
14666W        W31513  15.056   7.185  11.607 -0.0187  0.0044 -0.1405
14667W        W31514  15.126   0.033  11.344 -0.1241  0.0347  0.0836
14668W        W31515   8.120   2.038  14.606 -0.2299  0.0563  0.0900
14669W        W31516  15.857   6.425  16.546  0.3148  0.3255  0.0902
14670W        W31517  13.837   0.394   4.925 -0.0588  0.1541 -0.0664
14671W        W31518  14.050  18.008   0.790 -0.2955 -0.0621  0.6064
14672W        W31519   5.727  15.232  13.274 -0.2913  0.1248  0.0477
14673W        W31520  10.298  12.510   3.776  0.1161  0.0638 -0.1185
14674W        W31521  11.892   4.841   0.603  0.1194  0.1075 -0.0459
14675W        W31522  13.786   2.928  11.424 -0.2100 -0.1279 -0.1124
14676W        W31523  15.988   0.336  15.802  0.1781  0.1084 -0.0088
14677W        W31524   3.625   0.389  11.818  0.2581 -0.0749  0.2621
14678W        W31525   3.118   6.690   3.473 -0.2151 -0.2725  0.1702
14679W        W31526   4.579  14.427   5.589 -0.0344 -0.1213 -0.0070
14680W        W31527   1.400   1.502   4.628 -0.2129  0.1601 -0.0501
14681W        W31528  14.141   2.237   3.177 -0.0820  0.0605  0.5481
14682W        W31529  15.338   6.845  15.092 -0.0016 -0.2023 -0.1400
14683W        W31530   7.004  12.736   3.412 -0.1144 -0.2316  0.1808
14684W        W31531  10.340   4.747   3.612 -0.3563 -0.2809 -0.0192
14685W        W31532   7.286   6.500   4.797  0.0430  0.1038 -0.3367
14686W        W31533   5.078   9.089  14.313 -0.0510  0.0649 -0.1512
14687W        W31534  10.702   1.058   3.720 -0.0801 -0.1347  0.2100
14688W        W31535  17.640   8.955   0.984  0.1982 -0.3456 -0.2397
14689W        W31536   0.011   0.717  11.960 -0.1751 -0.0935  0.1904
14690W        W31537   9.191  17.552   2.684  0.3217  0.0793 -0.2075
14691W        W31538  16.095  14.611  12.532  0.0922 -0.2782  0.0744
14692W        W31539   4.650  10.355  12.598 -0.1031 -0.2718 -0.0561
14693W        W31540  10.057  14.714  16.310 -0.0544 -0.1960 -0.0717
14694W        W31541   0.300   9.074  16.661  0.0895 -0.1400  0.2329
14695W        W31542  16.057   0.859  14.896  0.2113  0.0680 -0.2307
14696W        W31543   5.528   5.430   5.009  0.2150  0.1086 -0.1146
14697W        W31544  16.247   8.964  12.052  0.0160  0.0141  0.0626
14698W        W31545  15.620   7.797  13.952 -0.2026 -0.0177 -0.3009
14699W        W31546  15.769   1.950   4.706 -0.2748  0.1827 -0.0158
14700W        W31547  13.481  12.207  12.030  0.1282 -0.0083 -0.3556
14701W        W31548   4.231  11.438  11.867  0.1357  0.0436 -0.1018
14702W        W31549   8.973   5.024  11.946  0.0923  0.2366  0.0761
14703W        W31550  17.932   6.183   0.248  0.0002  0.1202  0.0353
14704W        W31551   9.302   4.287   0.933 -0.0479  0.0107 -0.2456
14705W        W31552   9.491  17.870   3.666  0.1066 -0.1136 -0.1560
14706W        W31553  13.235   5.158  13.471  0.0454 -0.1501 -0.1240
14707W        W31554   5.219   8.343   3.163  0.0394 -0.0219 -0.1604
14708W        W31555   6.243   1.908   3.394  0.1082 -0.0022  0.0354
14709W        W31556  17.598  13.445   3.592 -0.1881  0.4096 -0.0313
14710W        W31557  12.318  15.770   4.101  0.3953  0.0711  0.1398
14711W        W31558  16.427   9.723   1.987  0.2449  0.1821  0.2035
14712W        W31559   9.213  10.635  15.574 -0.2879 -0.0326 -0.1776
14713W        W31560   9.287  16.770  14.713  0.6177 -0.3321 -0.4731
14714W        W31561  16.691   8.888   1.362  0.4101 -0.2942 -0.0688
14715W        W31562   3.454  12.016  11.911  0.0973 -0.3314 -0.1995
14716W        W31563   5.532   1.754  12.702  0.0628 -0.3206  0.0710
14717W        W31564  16.023   6.327   3.604 -0.0097  0.2339  0.1805
14718W        W31565  13.448  15.895  15.954 -0.2571 -0.2828 -0.0722
14719W        W31566  12.999  15.348   3.476  0.3380  0.1233 -0.0771
14720W        W31567   9.449   2.218  16.593  0.1452  0.1690  0.0685
14721W        W31568   5.017  11.712   1.261  0.3367  0.2274 -0.2465
14722W        W31569  11.617   6.807  14.070 -0.1157 -0.0476 -0.1462
14723W        W31570  11.531  17.454  11.676 -0.3231  0.1447 -0.2022
14724W        W31571  13.255   8.392  16.135  0.0779 -0.1315  0.1060
14725W        W31572   9.461   1.344  12.091 -0.0107  0.1802 -0.2197
14726W        W31573  15.332  15.098  13.828  0.3447  0.0363  0.0144
14727W        W31574   2.669   2.678  15.929  0.0836 -0.0644  0.0623
14728W        W31575   6.805   9.525  15.381 -0.1345  0.2463 -0.1973
14729W        W31576   5.550   4.815   1.955  0.0638 -0.1239  0.1824
14730W        W31577  12.594   4.952   4.504  0.0566  0.1269 -0.2644
14731W        W31578  12.904  15.750  11.204  0.0452 -0.1146 -0.0424
14732W        W31579   6.712  13.917  15.731 -0.1150  0.0581 -0.1645
14733W        W31580  14.117  17.471   5.089  0.3491  0.2162  0.0136
14734W        W31581  12.276   7.031  13.479  0.1969  0.3597 -0.4149
14735W        W31582   7.137  11.627   1.708 -0.0858 -0.1022 -0.3513
14736W        W31583   3.398  16.744  13.875  0.2758 -0.0220  0.0049
14737W        W31584   1.236   4.768   2.287 -0.1212  0.1266 -0.0671
14738W        W31585   2.730   8.258  13.693 -0.0055  0.0529 -0.0486
14739W        W31586  16.266   6.569  12.713  0.0318  0.2159 -0.2244
14740W        W31587   8.176   8.894   0.683 -0.2856  0.0634 -0.2030
14741W        W31588   2.317   2.854  11.601  0.0126 -0.0649 -0.4715
14742W        W31589   2.056  11.462  15.515  0.0121 -0.2206  0.1345
14743W        W31590  13.224  13.203  11.418  0.0398 -0.2043  0.1493
14744W        W31591   2.051  12.199  15.954 -0.1052 -0.2054  0.2041
14745W        W31592   8.866  17.585  15.443  0.0201 -0.0756  0.3334
14746W        W31593  14.431  11.465   1.429  0.0730 -0.0165 -0.0447
14747W        W31594  12.931  11.064  15.875  0.1063 -0.1778  0.0654
14748W        W31595  17.383   0.656  12.636  0.0123  0.4066  0.2442
14749W        W31596  18.005   7.048   1.775 -0.2537  0.1207 -0.2315
14750W        W31597  16.283   0.574   0.684 -0.0472 -0.1298 -0.1370
14751W        W31598   6.918   3.400   2.344 -0.2822 -0.1517  0.1590
14752W        W31599  11.128   6.842  14.242  0.0294 -0.1952 -0.5669
14753W        W31600   6.793  16.430  15.539 -0.0431 -0.0886 -0.2458
14754W        W31601   6.721   8.098   3.105  0.2200  0.2232  0.1270
14755W        W31602   7.565  16.769   0.858  0.2729 -0.2624 -0.5366
14756W        W31603   2.065  11.667   4.924 -0.1419 -0.1818 -0.1434
14757W        W31604  16.989   1.782   4.609 -0.0568  0.1525 -0.2001
14758W        W31605   8.454  11.457  11.902 -0.0240 -0.2922 -0.0254
14759W        W31606  16.606   1.950  11.391  0.1891  0.0551 -0.0924
14760W        W31607   1.044   1.144   4.807 -0.1250  0.2325  0.3141
14761W        W31608  11.415   7.861   1.804 -0.0891 -0.1150 -0.2187
14762W        W31609   0.543   6.003   4.954  0.2038 -0.3127 -0.1568
14763W        W31610   6.931  17.311   4.056 -0.1206 -0.3342  0.1720
14764W        W31611  10.991   7.298   3.107 -0.1947  0.1905  0.1079
14765W        W31612  11.557  10.500  14.071  0.1490 -0.0589 -0.2938
14766W        W31613   3.459   4.626   0.985 -0.0066  0.1336  0.2313
14767W        W31614   6.975   8.221  12.399 -0.1286  0.2482 -0.3726
14768W        W31615   1.447   6.804  14.933  0.2712  0.0931 -0.0778
14769W        W31616  12.287  16.097   3.639 -0.4743  0.0276  0.0272
14770W        W31617   2.055   6.253   6.081  0.0045  0.0618  0.3491
14771W        W31618   2.782  16.749   3.617  0.0923  0.0688  0.0218
14772W        W31619   5.380  12.427   4.774 -0.0697  0.1118 -0.0331
14773W        W31620   9.208   5.632  12.576 -0.1298 -0.1213 -0.0565
14774W        W31621   0.784   2.352   5.234  0.0323  0.0494 -0.3347
14775W        W31622   9.534   4.902  12.135 -0.1607 -0.1823  0.1611
14776W        W31623   0.226  10.411  16.525 -0.1674  0.0284 -0.0986
14777W        W31624   6.155   5.754   3.333  0.0270  0.2973  0.0529
14778W        W31625  16.539  16.062   3.275 -0.0296 -0.1784  0.0908
14779W        W31626  12.283   4.711   2.691 -0.1267 -0.1060 -0.1075
14780W        W31627   6.664   7.711  16.668  0.0697 -0.0581 -0.1068
14781W        W31628  14.210   3.557  14.943  0.1913 -0.0243  0.1915
14782W        W31629   3.335  10.937   0.398 -0.2093  0.3428 -0.0205
14783W        W31630   5.830   2.491   2.738  0.1860 -0.3766  0.2104
14784W        W31631  14.031   3.043  11.885  0.2582 -0.0021  0.0294
14785W        W31632   9.661   9.533  13.361  0.0041  0.2212  0.0145
14786W        W31633  12.441   4.504  15.934 -0.1403 -0.0256 -0.0910
14787W        W31634  12.352  11.400   1.961  0.2917  0.0112 -0.0338
14788W        W31635  17.645   0.021  16.030 -0.1207  0.2927 -0.1737
14789W        W31636  11.078   0.440   5.283 -0.0416 -0.1750 -0.2470
14790W        W31637   7.231   8.939  14.193  0.5139  0.0843  0.0256
14791W        W31638   5.942  12.862  13.220  0.0569 -0.3249  0.1721
14792W        W31639  14.174  15.501   4.170  0.0098  0.1271 -0.1791
14793W        W31640   0.211  12.782   4.558  0.1467 -0.0771 -0.0197
14794W        W31641  15.599   4.777  13.658 -0.0352 -0.2482 -0.0278
14795W        W31642   3.075  10.612  13.633  0.2104  0.1212  0.2367
14796W        W31643   9.686  12.217   2.095  0.1800 -0.0723  0.1795
14797W        W31644   6.694  14.208  16.218 -0.1462  0.3187  0.0966
14798W        W31645   6.423   7.003   0.371 -0.0727 -0.1671 -0.0145
14799W        W31646   3.000   8.118   1.786  0.1490  0.0875 -0.3827
14800W        W31647   5.137  16.255   0.346  0.2769  0.0282  0.1875
14801W        W31648  12.626  13.594  12.229  0.1464 -0.2334  0.3604
14802W        W31649   0.751   0.550   3.588  0.0018 -0.1547  0.0021
14803W        W31650  13.234  17.624   0.557 -0.2227  0.0685  0.1170
14804W        W31651   9.652  15.748   4.346  0.0971 -0.0713 -0.2759
14805W        W31652   1.871  13.456  13.483 -0.0426 -0.0734 -0.1354
14806W        W31653  17.493   0.847   4.216 -0.0426 -0.1246  0.1188
14807W        W31654   1.837   8.894   2.080  0.3688  0.0742 -0.3992
14808W        W31655   2.626   6.282   1.694  0.2918  0.0179 -0.0412
14809W        W31656  17.649   4.682   0.961  0.0208 -0.3678 -0.1348
14810W        W31657   7.589   7.397   0.528  0.0525 -0.2329  0.1119
14811W        W31658  12.675   6.305  14.123  0.0411 -0.3258 -0.0841
14812W        W31659   3.294  10.304  16.676 -0.1456 -0.1174 -0.2553
14813W        W31660  11.326  11.106   4.273  0.2408  0.0442  0.1253
14814W        W31661   8.798   3.766   6.016 -0.2957  0.0749  0.3060
14815W        W31662   4.116  11.588   4.116  0.0380 -0.0599  0.1094
14816W        W31663  15.310  10.861   2.389 -0.3570 -0.3804  0.0178
14817W        W31664  17.440  15.370   1.751 -0.0791 -0.0099 -0.2946
14818W        W31665   7.995  11.882  14.078  0.2404 -0.2199  0.0157
14819W        W31666  14.649   0.857   2.958  0.1478  0.0556  0.0871
14820W        W31667  10.369   2.813   5.522  0.0899  0.0987 -0.3148
14821W        W31668  15.606   2.089  13.981  0.1700 -0.0519  0.0557
14822W        W31669  15.551  15.194  13.209 -0.1211  0.1283  0.1524
14823W        W31670  17.405   1.506  11.903  0.1298 -0.2323 -0.1309
14824W        W31671  16.989   2.525   0.231  0.0349  0.0278 -0.2846
14825W        W31672  15.817   1.074   3.034  0.1126 -0.0406 -0.1539
14826W        W31673   2.987   1.275   2.073 -0.1159  0.0714  0.0507
14827W        W31674   4.615   0.398   3.647 -0.4291  0.1287  0.1053
14828W        W31675   7.995   1.147  12.308  0.0403 -0.0437 -0.2931
14829W        W31676   6.522  10.747   2.928 -0.0225  0.0782  0.0257
14830W        W31677   0.628  14.518  14.040  0.3021  0.1285 -0.0024
14831W        W31678  10.622  11.541   4.809  0.0010  0.2311 -0.1683
14832W        W31679  13.392   3.970   0.433  0.1423  0.0925  0.1999
14833W        W31680  13.738  18.009   3.441 -0.2709 -0.0043 -0.1468
14834W        W31681   4.509   7.605  16.132  0.0626 -0.0419  0.1004
14835W        W31682   8.444  17.084   3.357  0.0945  0.0276  0.0748
14836W        W31683   4.308   1.709   5.171 -0.3446  0.1952  0.2491
14837W        W31684   6.432  16.644   0.149 -0.1282  0.0472  0.0706
14838W        W31685   5.601  10.263   0.545  0.0863  0.0734 -0.1522
14839W        W31686  16.078   1.386   3.948  0.0808  0.0620 -0.0425
14840W        W31687  10.972   9.816  16.116 -0.1520 -0.1459 -0.0618
14841W        W31688  13.435   2.949   3.211  0.1652  0.0526 -0.1553
14842W        W31689   9.534  17.929   2.822 -0.1528 -0.1381  0.0787
14843W        W31690  17.819   8.870   0.021 -0.0155 -0.3100 -0.0349
14844W        W31691   7.191   3.746   2.006  0.0937 -0.1934  0.0423
14845W        W31692  12.436  13.621  11.720 -0.2684  0.1746  0.0122
14846W        W31693  11.542   5.268  16.040 -0.0178 -0.0317 -0.0816
14847W        W31694  12.176  14.470  11.184 -0.1458  0.0154  0.6168
14848W        W31695   1.577   9.248   5.794  0.0331  0.0709 -0.0856
14849W        W31696  10.794  13.274  12.175 -0.1463 -0.0332  0.0855
14850W        W31697   7.356   3.230   2.132 -0.0321  0.1127 -0.0311
14851W        W31698   7.913   9.564   2.139 -0.3434  0.2591 -0.0032
14852W        W31699   9.424   6.629   0.952 -0.0961  0.1294  0.0933
14853W        W31700  11.936   5.099   5.100 -0.1065  0.2729 -0.0880
14854W        W31701   9.227  15.533   1.048  0.0948  0.2820 -0.4351
14855W        W31702   5.129  15.277   0.468  0.0079 -0.0445  0.1354
14856W        W31703   3.458  15.666  14.795  0.1204  0.1774  0.4124
14857W        W31704  16.896  13.295  15.954 -0.0319 -0.0741  0.0143
14858W        W31705   6.705  12.629   0.732 -0.0298  0.1844  0.2137
14859W        W31706   0.693  17.815   5.072  0.2141  0.0174 -0.3950
14860W        W31707  10.751   3.754   4.760 -0.3166  0.2511  0.4430
14861W        W31708   3.829   1.291   2.398  0.0276  0.1568 -0.1072
14862W        W31709  12.947  16.953   5.227 -0.3916  0.0253  0.0794
14863W        W31710   2.263   0.676  14.095 -0.2483  0.1084  0.2640
14864W        W31711   2.936  14.306   1.196  0.1904 -0.0481  0.0098
14865W        W31712   4.575  14.764  14.096  0.0107 -0.1918  0.0977
14866W        W31713   8.906   7.392  10.722  0.4205  0.0770  0.3755
14867W        W31714   0.663   0.299  15.531  0.0907  0.2251  0.0466
14868W        W31715   5.533  15.054  12.385  0.2443  0.3776  0.0626
14869W        W31716   7.753   3.574  15.313 -0.3252  0.0081  0.1458
14870W        W31717   3.583  14.291  14.143  0.4337  0.4285  0.0796
14871W        W31718   2.647   2.510  14.410  0.2234  0.0277  0.1643
14872W        W31719  16.617  11.148  14.470  0.0276  0.3910 -0.0043
14873W        W31720   3.600  12.816  15.061 -0.0168  0.5111  0.1317
14874W        W31721  10.350  15.174   0.404 -0.2233  0.1019  0.0400
14875W        W31722   9.986  13.432  14.176 -0.1964 -0.0824 -0.0119
14876W        W31723  13.768  12.283  14.756 -0.0166  0.1260 -0.0716
14877W        W31724   5.556  13.867   1.544  0.1317 -0.1724 -0.0883
14878W        W31725   4.651   0.183  14.826  0.2461 -0.0444  0.2786
14879W        W31726   8.660   9.017  12.923 -0.0813 -0.0425 -0.0253
14880W        W31727  11.697   8.992  13.672  0.2672  0.0124  0.1141
14881W        W31728  13.724  17.755   2.970  0.1348 -0.0277  0.0917
14882W        W31729   2.062   3.732  14.186  0.0003 -0.0823  0.1683
14883W        W31730   5.223  12.365  12.800 -0.2201 -0.1479 -0.0998
14884W        W31731  16.928   8.795   2.180  0.3798 -0.2605  0.1555
14885W        W31732   6.754   6.921   0.731  0.0804 -0.0610  0.0593
14886W        W31733  11.837  15.764  14.351 -0.2352  0.1257 -0.4361
14887W        W31734  10.915   8.293   3.421  0.0378  0.1366 -0.2509
14888W        W31735  14.126   5.783  16.096  0.0455 -0.3460  0.3350
14889W        W31736   7.710   6.467   2.336 -0.0488  0.0658 -0.0603
14890W        W31737   9.107   4.143   2.236  0.4128  0.0220  0.2386
14891W        W31738  14.905   0.208  12.296  0.2300 -0.1829 -0.2993
14892W        W31739   0.532  14.090   3.916 -0.1099 -0.0451  0.0578
14893W        W31740  10.890  16.987  12.801  0.2402  0.2958  0.2117
14894W        W31741  12.367  17.094   5.402 -0.0685 -0.1733  0.2545
14895W        W31742   0.824   7.143  11.680  0.1113  0.4695  0.0471
14896W        W31743   2.523   6.745  12.061  0.2581 -0.0815 -0.0870
14897W        W31744   2.447  12.840  16.453  0.0099  0.0394 -0.1703
14898W        W31745  11.184   9.302  12.279  0.3246  0.2210 -0.1001
14899W        W31746  16.408   3.179  15.036  0.3650  0.0137  0.1575
14900W        W31747  15.185   3.670  15.032  0.2292 -0.1235 -0.2282
14901W        W31748  13.340   4.402   1.996 -0.2205  0.4689  0.0285
14902W        W31749   2.952   6.333  12.176 -0.1002  0.0202  0.0607
14903W        W31750  15.774  11.716   4.631 -0.2026 -0.2116  0.0644
14904W        W31751  17.637  12.093  11.826  0.4167 -0.0316  0.0576
14905W        W31752  15.724  11.364   4.171 -0.0610 -0.0565  0.2145
14906W        W31753   5.242   2.617   3.428 -0.2444  0.1751 -0.1413
14907W        W31754   4.471  13.929   5.477 -0.0986  0.3102 -0.3086
14908W        W31755   0.889   1.357   3.001  0.1231 -0.0577 -0.1415
14909W        W31756   5.855   6.722  12.022  0.0442  0.1046 -0.1991
14910W        W31757   1.934  15.071  12.299 -0.2418  0.1071  0.2141
14911W        W31758  15.399   5.166  13.419 -0.0724 -0.0826  0.1627
14912W        W31759   9.767   7.695  12.309  0.0058  0.1201 -0.0687
14913W        W31760   0.647  12.139  16.590 -0.1911 -0.2073  0.0402
14914W        W31761   6.029  13.825  16.489 -0.2927 -0.1105  0.1234
14915W        W31762   2.348  12.864   3.194 -0.0009 -0.0025 -0.1258
14916W        W31763   3.736  11.392  12.540  0.1366 -0.1972 -0.0246
14917W        W31764  11.528   8.717   2.945 -0.1482 -0.1196 -0.1335
14918W        W31765   2.617   0.187  11.925  0.1958 -0.0880  0.1190
14919W        W31766  17.347   3.279  12.617 -0.0468 -0.1067  0.2726
14920W        W31767   2.990   1.441  15.983  0.0720  0.2552  0.0363
14921W        W31768   9.889  12.700   2.341 -0.0583 -0.0695  0.2849
14922W        W31769   6.884   4.873   0.543  0.0983  0.1934  0.0047
14923W        W31770  15.670  12.728   6.128  0.0194  0.1270 -0.3983
14924W        W31771  15.595   1.218  15.852  0.2473 -0.1124  0.0474
14925W        W31772   5.426   2.717  11.980  0.1845  0.2927 -0.2481
14926W        W31773  16.119  16.930   1.153 -0.2685  0.0460 -0.2654
14927W        W31774   7.329  15.372  15.548  0.0169  0.2199 -0.0670
14928W        W31775  12.268   3.473   0.643 -0.1868  0.1014  0.1514
14929W        W31776   7.634   2.930  12.826 -0.2089 -0.1697 -0.0870
14930W        W31777  10.107  16.401  12.691  0.0247 -0.1985  0.1431
14931W        W31778  17.861   8.695   4.984 -0.1388 -0.1409 -0.1593
14932W        W31779  13.384  15.541  13.399 -0.1152  0.1768 -0.3313
14933W        W31780   1.695   7.696   0.442  0.0436  0.0911  0.1683
14934W        W31781  10.380   6.474   5.975  0.3024  0.1468 -0.1630
14935W        W31782   5.571   6.923  13.520  0.3098  0.2077 -0.3389
14936W        W31783  11.131  11.542   3.466 -0.0681 -0.0516  0.2048
14937W        W31784   5.482  13.124   3.377 -0.0570 -0.0822  0.0090
14938W        W31785   4.952   0.819   4.359 -0.0419  0.0387  0.0504
14939W        W31786  12.363  16.679   0.650 -0.1690  0.0357  0.3732
14940W        W31787   5.719  11.872   4.894  0.3033  0.2960 -0.2980
14941W        W31788   6.458  14.501   2.010  0.1437  0.0588  0.1609
14942W        W31789   1.071  10.057   0.384  0.0955 -0.0657 -0.0627
14943W        W31790   6.403   4.521   2.372  0.4699  0.1387 -0.0248
14944W        W31791   2.851   2.476   2.997  0.1333 -0.0690 -0.2036
14945W        W31792   4.199  11.852  15.105 -0.0079  0.0355 -0.0138
14946W        W31793   5.853   1.457  12.404 -0.1828 -0.2520 -0.0373
14947W        W31794   5.190   6.016   4.879  0.0892 -0.2579  0.2167
14948W        W31795   8.945  10.364   5.303  0.0441 -0.0343 -0.0162
14949W        W31796  15.817   5.937   3.279  0.0423 -0.1100  0.1576
14950W        W31797   6.589  10.573  12.910  0.1638 -0.0897 -0.1660
14951W        W31798  15.756  15.456  14.468 -0.3152  0.1485  0.2558
14952W        W31799  13.781   0.236  11.072  0.2122 -0.0405 -0.2252
14953W        W31800   3.162   5.765   3.558 -0.0845 -0.0738 -0.1067
14954W        W31801   9.249   3.676   5.090 -0.2727  0.1139  0.1951
14955W        W31802   6.555  11.048   4.149  0.1745 -0.0824  0.2499
14956W        W31803  15.085   7.960  13.956 -0.0529 -0.1508  0.0635
14957W        W31804  13.500   2.129  12.247  0.0905 -0.0522  0.2529
14958W        W31805  14.559   0.538  15.946 -0.1183 -0.1309 -0.3083
14959W        W31806   4.331   4.293   0.092 -0.1653  0.0846  0.2771
14960W        W31807  10.860  11.791  15.319  0.2955 -0.0198 -0.0266
14961W        W31808  10.039  13.434   2.556 -0.1591 -0.1140  0.0607
14962W        W31809   9.429   9.943   1.737  0.1548 -0.2055  0.0861
14963W        W31810   9.297  17.435  14.209  0.0530  0.2073  0.0309
14964W        W31811  12.947  12.631  13.859 -0.0694  0.0232 -0.3266
14965W        W31812   7.517  12.789  13.305 -0.0953 -0.1590 -0.0047
14966W        W31813   8.356   0.650   2.936 -0.1534 -0.3088  0.0652
14967W        W31814   9.687   9.055   0.574 -0.1553  0.2612 -0.0364
14968W        W31815   5.173   8.583  12.387 -0.0906 -0.0646 -0.1194
14969W        W31816   8.501   2.125  14.876  0.1092  0.0212 -0.0025
14970W        W31817  10.884  14.317  15.582 -0.0560 -0.1448 -0.1430
14971W        W31818  15.245  14.621  11.600 -0.0339 -0.2189 -0.0322
14972W        W31819   4.213   2.153  12.601  0.1097 -0.2126 -0.2904
14973W        W31820  11.742  13.175   3.871  0.4665 -0.2591  0.0731
14974W        W31821   5.757   5.649   3.611 -0.2749 -0.1320 -0.1657
14975W        W31822   1.569   1.258  11.625  0.0258  0.0603 -0.0598
14976W        W31823   8.376   4.047  16.415 -0.0286 -0.2145 -0.2513
14977W        W31824   9.303   7.869  12.428 -0.0523  0.4229 -0.1887
14978W        W31825  17.459  11.625  14.653  0.1306  0.0302 -0.0342
14979W        W31826   1.248  16.814   1.261 -0.2541 -0.0979  0.1988
14980W        W31827  10.510  13.932  15.849  0.0590 -0.1415 -0.1498
14981W        W31828  17.603   6.725  12.342 -0.0990 -0.1438 -0.5737
14982W        W31829  11.439   6.310  16.164  0.1842 -0.2515 -0.4521
14983W        W31830  12.231   2.456  13.300 -0.0700  0.0846 -0.0709
14984W        W31831   9.913   3.954  15.030  0.1456  0.2056 -0.3821
14985W        W31832   1.994   2.207   2.388 -0.2181  0.2004  0.1152
14986W        W31833   9.060   3.099   2.925 -0.3319 -0.2444  0.1599
14987W        W31834   4.123  11.460  12.914  0.0962 -0.2023  0.0308
14988W        W31835   0.492  16.130   4.751  0.2141 -0.0245 -0.2227
14989W        W31836   3.364   1.710   0.003  0.0285 -0.2553 -0.0695
14990W        W31837  10.682   5.915   4.099  0.2267  0.1465  0.1862
14991W        W31838   7.526   4.460  12.702  0.2685 -0.2042  0.0454
14992W        W31839   2.855   3.992   2.436 -0.0429 -0.0622 -0.1781
14993W        W31840  14.991   9.470  12.476 -0.0267 -0.2582  0.2431
14994W        W31841  12.278  10.067   1.131  0.2507 -0.1980 -0.0831
14995W        W31842  13.865  12.428  12.604 -0.2298 -0.2168 -0.1193
14996W        W31843   4.191   6.057  15.275  0.4433  0.0415  0.1451
14997W        W31844   5.336   7.259  13.871  0.0710 -0.1971 -0.0492
14998W        W31845   7.504  14.548  12.906  0.0154  0.2242  0.1152
14999W        W31846  15.623  13.095   3.591 -0.0520  0.0522  0.3418
15000W        W31847   1.433   8.532  13.274 -0.0220 -0.0218  0.1375
15001W        W31848   3.916  11.577   1.188  0.0538  0.3802 -0.0482
15002W        W31849  11.691   3.346  16.092  0.1452 -0.0415  0.3236
15003W        W31850  13.730   7.687  15.478  0.0984 -0.0555  0.1928
15004W        W31851   2.072  11.938   2.212  0.1084 -0.0421  0.0111
15005W        W31852   3.068   9.077   2.923 -0.0530  0.0181 -0.0264
15006W        W31853  10.202   1.339  11.557  0.0319 -0.3974  0.0241
15007W        W31854   3.488  13.933   5.078 -0.1000 -0.1338  0.0097
15008W        W31855   0.140  15.852  13.640  0.2380  0.1303 -0.0895
15009W        W31856  11.473  12.306   2.585 -0.0944  0.1260  0.2414
15010W        W31857   2.952  16.094  13.019 -0.0052 -0.1910  0.1014
15011W        W31858   1.055   2.888   4.100  0.0675 -0.1800  0.1421
15012W        W31859  10.554  11.219  12.210 -0.1271 -0.1520 -0.0622
15013W        W31860  11.246   9.051  15.092  0.1667 -0.2347  0.0381
15014W        W31861   6.462   1.322   4.783 -0.1125 -0.1062  0.1206
15015W        W31862   8.754  12.912   0.175  0.2645 -0.1133  0.1666
15016W        W31863  14.763   3.748   5.237 -0.2693 -0.1128  0.1389
15017W        W31864  10.491  16.742  11.350  0.1479  0.1470 -0.1364
15018W        W31865   1.720  15.981   1.559  0.0137 -0.3340  0.0601
15019W        W31866   9.503   8.191   3.245 -0.2320 -0.0590 -0.1408
15020W        W31867  11.781  14.800   0.181  0.0996 -0.2903 -0.2218
15021W        W31868  17.404   3.505   1.543  0.0923  0.2300  0.0189
15022W        W31869   5.578  13.065   0.534 -0.0652  0.2830 -0.1503
15023W        W31870   6.234  18.047   2.784 -0.3251 -0.0847  0.5151
15024W        W31871   4.355  15.807  16.508  0.1015 -0.3330 -0.0102
15025W        W31872   3.397  15.990   3.414 -0.0926 -0.0467  0.1069
15026W        W31873   4.963  15.678   5.066  0.0393  0.0605 -0.1371
15027W        W31874  13.466  16.667  11.844 -0.2199 -0.1502 -0.0703
15028W        W31875  10.684  15.111  14.797  0.1105 -0.2285  0.0503
15029W        W31876   2.281   1.434  15.391 -0.1277  0.0256  0.1460
15030W        W31877   6.604  12.802  15.044  0.0053 -0.0092  0.2535
15031W        W31878   5.433  16.827  12.554  0.0997  0.0753  0.0140
15032W        W31879   1.735  16.177   4.972 -0.0176  0.0873 -0.4519
15033W        W31880   3.873   5.563  16.169  0.0276 -0.0817 -0.1309
15034W        W31881  12.263   7.031  15.105 -0.1081 -0.0022 -0.0256
15035W        W31882  11.703   7.991   0.562 -0.0873  0.0579 -0.1749
15036W        W31883  16.887   7.776  14.450  0.0457 -0.0746 -0.2811
15037W        W31884  14.186  16.913  12.290  0.0012 -0.2020  0.2734
15038W        W31885  10.944   6.946  14.846  0.2305 -0.3808  0.0174
15039W        W31886  17.733   3.806  16.438 -0.0023  0.3786 -0.0990
15040W        W31887   7.129  17.591  11.308  0.2912 -0.2720 -0.1640
15041W        W31888   2.632  15.314  12.808 -0.0615  0.0251 -0.1991
15042W        W31889  13.709  14.925  15.606  0.1896 -0.1068  0.0901
15043W        W31890  15.191   9.188   0.644  0.0988 -0.3107 -0.0123
15044W        W31891   4.635  17.577   2.408  0.3600  0.3869  0.1050
15045W        W31892   4.505  11.829  11.757 -0.2768  0.0705 -0.2928
15046W        W31893  13.156   1.326   1.167  0.1731 -0.0623  0.0528
15047W        W31894  10.783   8.989   3.037  0.2374 -0.0483 -0.1564
15048W        W31895   0.508   4.982  15.560  0.1954 -0.0561 -0.2163
15049W        W31896  15.089   1.511   3.845  0.2503 -0.0442  0.1959
15050W        W31897   1.356   0.539   6.052 -0.2634 -0.0537 -0.0584
15051W        W31898   1.700  13.143   2.244  0.4396  0.2656  0.1994
15052W        W31899  11.238   4.561  13.655  0.2821  0.2064 -0.0829
15053W        W31900   9.975  14.252   1.959  0.0679  0.0181  0.0078
15054W        W31901   6.345  13.030  14.634  0.1428 -0.0488 -0.0540
15055W        W31902   8.176   7.235   2.600  0.1829 -0.0716  0.2686
15056W        W31903  15.076   5.008   0.844  0.1196 -0.1136 -0.0742
15057W        W31904  14.628   1.566   2.784 -0.1089 -0.1629  0.1313
15058W        W31905   0.064   7.379  16.373  0.3990 -0.2114 -0.3566
15059W        W31906   5.234   1.143  11.745  0.0274  0.1724  0.1244
15060W        W31907   3.425  15.247   2.257 -0.2587  0.1449  0.1139
15061W        W31908   4.147  15.476  12.702 -0.0238 -0.0238  0.0801
15062W        W31909  14.594   6.590   1.336  0.0490 -0.0941  0.1920
15063W        W31910   6.057   4.328  14.153 -0.0450  0.4594 -0.3654
15064W        W31911   9.183   2.777  14.871 -0.1426 -0.0611  0.2288
15065W        W31912   2.553   8.782   2.498  0.1833 -0.1781 -0.2673
15066W        W31913  15.950   1.811  13.283 -0.0066 -0.0393 -0.3494
15067W        W31914   8.700  17.863  11.610 -0.1911 -0.0205 -0.0081
15068W        W31915  12.637  13.904   4.659 -0.0015 -0.0274  0.0884
15069W        W31916  10.908   2.006   3.197  0.0048  0.1731 -0.2507
15070W        W31917   0.575   4.109   0.589  0.0362 -0.1671 -0.2535
15071W        W31918  11.773   8.699  12.266  0.1945  0.3725 -0.2556
15072W        W31919   1.094  14.644  14.181 -0.2072 -0.0077 -0.1196
15073W        W31920  13.570   8.149  14.790 -0.1782 -0.1898 -0.0650
15074W        W31921   7.364  17.277  16.341  0.1105  0.1289  0.0781
15075W        W31922   1.108   0.488   4.159  0.0286  0.0842  0.1114
15076W        W31923   8.580   4.418   3.680  0.0155  0.2051  0.0204
15077W        W31924   7.084  11.270  15.281 -0.1861  0.2423  0.0534
15078W        W31925  13.648   2.807   0.330 -0.1127  0.0073 -0.0910
15079W        W31926   1.443  13.459  13.211 -0.1517  0.1946  0.0392
15080W        W31927   9.021   5.333  16.623 -0.2077 -0.0699 -0.1489
15081W        W31928  15.438   7.354   3.725  0.0049  0.3256  0.1331
15082W        W31929  15.788  18.054   2.297 -0.0099 -0.2876 -0.0807
15083W        W31930  10.298   2.179  14.050 -0.2101  0.2851 -0.2214
15084W        W31931  17.725  15.045   2.125  0.0897  0.2915  0.1013
15085W        W31932  17.010  14.872  12.034 -0.2352  0.0664 -0.1290
15086W        W31933  15.997   6.725  14.254 -0.1352 -0.1576 -0.2109
15087W        W31934  12.212   9.073   2.860 -0.0454  0.0532 -0.4229
15088W        W31935   8.703   5.950   6.050  0.2743 -0.0277  0.1389
15089W        W31936  14.443   6.909   2.564  0.2829 -0.0421  0.2408
15090W        W31937   3.206  18.039   1.366  0.0016 -0.1465  0.0344
15091W        W31938   8.397  17.000  14.208  0.0102  0.0257 -0.0578
15092W        W31939   3.884  17.490   0.575 -0.7773 -0.2682  0.2845
15093W        W31940   8.354   9.269  14.486 -0.5478 -0.0532 -0.3630
15094W        W31941   9.995   8.418  13.882 -0.0547  0.0169  0.1203
15095W        W31942   4.786   6.151   4.497 -0.3759  0.0466  0.2278
15096W        W31943  17.375  14.475  10.377  0.3660 -0.4788  0.1140
15097W        W31944  16.683  14.174   4.882 -0.0752  0.1173  0.0900
15098W        W31945  10.590   5.328  16.589 -0.1697 -0.1105  0.2379
15099W        W31946   4.464  11.518  14.190 -0.0658 -0.0997  0.0178
15100W        W31947  11.955   2.859  14.754 -0.0269  0.1750  0.1490
15101W        W31948   7.564   1.949  14.881 -0.6139 -0.2047  0.1400
15102W        W31949  16.475  12.170   5.142  0.0807  0.0798 -0.1005
15103W        W31950  11.518   7.955   4.976  0.1160 -0.1482 -0.0905
15104W        W31951  16.855  16.671   4.424 -0.2433  0.0275  0.3693
15105W        W31952   2.321   4.234  16.521 -0.0645  0.1761 -0.0795
15106W        W31953   1.718  16.932  12.546  0.0035  0.0006 -0.3383
15107W        W31954  12.918  11.333   5.838 -0.0482 -0.1937 -0.0936
15108W        W31955  15.350  17.800  12.534  0.1317 -0.4416  0.3138
15109W        W31956   2.123  16.334  11.734  0.1024 -0.0832 -0.1986
15110W        W31957   4.017  14.454   4.688  0.0819 -0.2286  0.1242
15111W        W31958   6.323   1.916  11.663 -0.2139 -0.3672 -0.3646
15112W        W31959   1.984  17.438  14.413 -0.1973  0.0334 -0.1991
15113W        W31960   3.439   4.363   4.762  0.1980 -0.1103 -0.3089
15114W        W31961  16.746  12.885   4.652 -0.1612 -0.0305  0.3455
15115W        W31962  12.110   9.542  11.995  0.1056  0.0097 -0.0834
15116W        W31963   4.218  15.367   2.992 -0.0012  0.1268  0.0605
15117W        W31964   8.397  13.649  14.484  0.1775 -0.1300  0.1327
15118W        W31965   2.473  10.539  11.759 -0.1605 -0.3967  0.1588
15119W        W31966   2.669  15.758  13.732 -0.0737 -0.0189 -0.2413
15120W        W31967   9.294   8.832  12.534 -0.0887  0.2009 -0.0537
15121W        W31968  11.002  14.726   5.285 -0.1498 -0.0841  0.0595
15122W        W31969  12.927   0.188   4.876 -0.0144 -0.0072 -0.1036
15123W        W31970  13.799  11.423  13.011 -0.0183  0.1311  0.1161
15124W        W31971  12.407   6.874   6.298 -0.1255  0.0006 -0.2270
15125W        W31972  11.589   0.239  11.495 -0.1479  0.0909 -0.0238
15126W        W31973  14.362   6.257   1.977  0.0158 -0.2853  0.0375
15127W        W31974   0.914  12.863   2.072 -0.0704  0.1631 -0.0615
15128W        W31975   4.389   1.968  11.101 -0.0236  0.0637  0.0383
15129W        W31976   8.099   1.075   1.879 -0.1126  0.2105 -0.1839
15130W        W31977  16.746   4.959   5.086  0.1820 -0.0358 -0.0329
15131W        W31978   9.838   2.520   1.405 -0.1085  0.2011 -0.1920
15132W        W31979  11.916  17.654  15.414  0.0757 -0.2068 -0.0264
15133W        W31980   3.778   4.843  14.826 -0.4071 -0.0757  0.0971
15134W        W31981   7.672  10.756   3.480 -0.2582  0.3024  0.0494
15135W        W31982   1.816   7.405   5.802  0.0110  0.0022 -0.0094
15136W        W31983  10.361   7.962  14.898  0.1264 -0.0919  0.0920
15137W        W31984   4.691   9.988   4.417  0.0209  0.0838 -0.1160
15138W        W31985  10.543  13.759   0.487  0.0709 -0.0082  0.0217
15139W        W31986   7.287  10.327  16.649 -0.1219  0.2790 -0.1090
15140W        W31987   2.675   7.864  16.486  0.1368 -0.2556 -0.0433
15141W        W31988   1.222  15.526   2.256 -0.2024 -0.0210  0.2382
15142W        W31989   5.743   8.333   4.569  0.1779 -0.3538 -0.0294
15143W        W31990  12.028   0.334   2.202  0.0715  0.0878 -0.1755
15144W        W31991   8.753  17.764   4.589 -0.0472  0.0685  0.1445
15145W        W31992   6.840  17.328   1.439 -0.0921 -0.0362 -0.0996
15146W        W31993  14.912  13.893  12.641  0.7150  0.0312  0.2373
15147W        W31994   6.725   8.805  14.340 -0.2612 -0.0260  0.0057
15148W        W31995  16.867  16.175   4.187 -0.0706  0.0618 -0.3674
15149W        W31996   3.550   1.422  14.004  0.1338 -0.2754 -0.0022
15150W        W31997   5.019   9.586   0.130 -0.1021 -0.2385 -0.1095
15151W        W31998  12.717   0.124  13.832 -0.3178 -0.2546 -0.2060
15152W        W31999   5.399   0.782   2.050 -0.0406  0.2171 -0.0489
15153W        W32000   4.333  12.246   1.780 -0.2808 -0.0982  0.0351
15154W        W32001   2.306   2.070  14.288 -0.2122 -0.0210  0.2471
15155W        W32002  15.540   0.727   3.364 -0.2006 -0.1153  0.2251
15156W        W32003   7.381   6.968   0.450  0.2129 -0.1121  0.2512
15157W        W32004  12.427   7.855   0.023 -0.3800 -0.1266 -0.1967
15158W        W32005   0.464  15.520   2.562  0.0871  0.0025  0.0712
15159W        W32006  12.274  14.109  13.169 -0.1189  0.0289  0.3299
15160W        W32007  12.973   4.577  12.777 -0.1170 -0.4041 -0.2766
15161W        W32008  10.323   0.776   4.335 -0.0615  0.0320  0.0660
15162W        W32009   5.954   9.240   5.431 -0.2319 -0.0160  0.3819
15163W        W32010   1.408  10.919  14.040 -0.0466 -0.1000 -0.0067
15164W        W32011   7.646  15.219   2.296 -0.1301  0.0311 -0.1321
15165W        W32012   9.047  17.585   0.279  0.2490  0.0835 -0.2393
15166W        W32013   1.296   8.716  15.637 -0.2700  0.1287  0.0754
15167W        W32014  14.370   1.053  13.969  0.0292 -0.3713 -0.3201
15168W        W32015  14.496   9.852   2.228  0.1436 -0.2390  0.1431
15169W        W32016   3.166   0.898   4.797  0.0765  0.1549 -0.0974
15170W        W32017   2.555  16.474  15.026 -0.2439  0.1475  0.1568
15171W        W32018  13.162   6.335   4.884  0.3427 -0.1255 -0.0636
15172W        W32019  11.010  12.632  14.672  0.1321 -0.1644 -0.2081
15173W        W32020   2.510  13.175   2.826 -0.2097  0.0487  0.1080
15174W        W32021  14.892  11.422  15.232  0.0717  0.0962  0.1660
15175W        W32022   9.466  17.896  14.227 -0.2593  0.1492 -0.2071
15176W        W32023  12.914   5.510  11.756  0.1100 -0.1710  0.2934
15177W        W32024  11.253  10.080  15.294  0.1634  0.0408  0.3053
15178W        W32025   8.536  15.237  16.144  0.1087 -0.0288  0.1208
15179W        W32026   6.507   7.931   2.634  0.3075  0.1656 -0.1430
15180W        W32027   4.529  17.576  12.025 -0.1341 -0.0786  0.1002
15181W        W32028   2.369   6.805  13.642 -0.0379  0.0228  0.3321
15182W        W32029  14.521   6.718  12.309 -0.1801 -0.0314 -0.1946
15183W        W32030   5.262  13.036   1.375  0.2827  0.2389  0.0921
15184W        W32031  17.879  15.369   0.855 -0.1683 -0.1272  0.0495
15185W        W32032  16.671   9.764  15.698  0.0865 -0.2758  0.0919
15186W        W32033   1.455  10.645  12.414  0.1199  0.0504 -0.0836
15187W        W32034   1.393  14.078   2.601 -0.0088 -0.0140  0.0919
15188W        W32035  11.617   0.707  13.033  0.1465  0.1791  0.2442
15189W        W32036  11.824  12.576  14.039 -0.1831  0.0237 -0.0603
15190W        W32037  16.062  16.083  12.202  0.0740 -0.0616 -0.0902
15191W        W32038  12.816  10.164   4.617 -0.0166  0.2462  0.0708
15192W        W32039  10.740  11.121   3.462  0.1030 -0.1086  0.1887
15193W        W32040  10.034  11.368  15.699  0.2562 -0.2525  0.2095
15194W        W32041  12.846   3.320  15.393  0.3036  0.1980  0.1922
15195W        W32042  16.171   6.084  12.462 -0.1072 -0.4223 -0.2315
15196W        W32043   7.775   4.608   5.652  0.1427 -0.0946 -0.1343
15197W        W32044  12.930   3.369  14.895 -0.1111 -0.0578 -0.1672
15198W        W32045   4.216   0.708  13.973 -0.1492 -0.1219  0.0615
15199W        W32046  14.603  15.376  16.569  0.2231  0.3239  0.2847
15200W        W32047   0.889  10.715  13.967  0.0760  0.1394 -0.1222
15201W        W32048  17.329   9.364  12.845  0.2686  0.0353  0.0064
15202W        W32049   3.100   2.115  13.359 -0.0482 -0.1226 -0.0062
15203W        W32050  14.065   1.755  13.256 -0.2378  0.2339 -0.3123
15204W        W32051   9.298   2.120   3.844  0.2880 -0.0666 -0.2152
15205W        W32052  13.014   3.849   3.152  0.1639 -0.0816 -0.1682
15206W        W32053   4.633   9.915   2.404  0.0400  0.0751  0.0205
15207W        W32054   6.498  13.317   1.255  0.1801  0.1042 -0.2218
15208W        W32055   4.202  10.588   2.743  0.2243  0.2903 -0.4077
15209W        W32056   7.790   2.947   1.201 -0.0247 -0.1790 -0.1508
15210W        W32057  17.107  13.361   5.343  0.1675  0.2251 -0.1663
15211W        W32058   4.667  14.338  14.296 -0.5348  0.1450  0.0837
15212W        W32059   7.503   4.058   0.641  0.0673 -0.3689 -0.3917
15213W        W32060  16.805  16.065   4.669 -0.1069 -0.2264 -0.1310
15214W        W32061  12.684   2.753  12.619 -0.2196 -0.2504  0.4554
15215W        W32062   5.233  11.972   2.059  0.0029  0.1532 -0.0355
15216W        W32063  11.533   0.921  11.692  0.0891  0.2961 -0.1768
15217W        W32064   3.295  11.934  13.249  0.0885  0.1478  0.1856
15218W        W32065  15.472  11.882  12.740  0.3704  0.1231  0.1201
15219W        W32066  11.835  12.133   4.325  0.1372  0.0091  0.1878
15220W        W32067   7.010  12.969   4.997 -0.1170 -0.0453 -0.1323
15221W        W32068   6.820   3.184  11.214 -0.1704 -0.3138 -0.1112
15222W        W32069   9.139  15.736   2.181 -0.4032  0.0224  0.0499
15223W        W32070  11.919   1.765  14.292 -0.2138  0.0771  0.1219
15224W        W32071   7.562   9.091  14.571  0.2125 -0.0714  0.0756
15225W        W32072   9.136   3.079  14.070  0.0043 -0.3798 -0.0904
15226W        W32073   5.021  13.924   4.483  0.2228  0.0277  0.2280
15227W        W32074   7.201  11.843   0.384 -0.0441 -0.0576  0.2721
15228W        W32075  14.259  14.776  11.852  0.3208 -0.1121 -0.1334
15229W        W32076   3.180  16.481   0.159  0.1326 -0.2983 -0.3067
15230W        W32077   3.696  16.526   3.418 -0.0067 -0.0310 -0.2009
15231W        W32078  10.818   3.047   3.758 -0.2076  0.3203  0.1741
15232W        W32079   2.315   4.767   0.821 -0.3809 -0.1254  0.0389
15233W        W32080  15.982   8.176   2.703  0.2654 -0.2172 -0.2450
15234W        W32081  15.688  14.521  11.391 -0.0636  0.2999 -0.0267
15235W        W32082  17.898   1.491   1.065 -0.0057  0.1733  0.2778
15236W        W32083  17.699   7.795   5.097 -0.0842 -0.2794 -0.0250
15237W        W32084   8.677  16.781   1.747  0.0762  0.0574 -0.0229
15238W        W32085   4.952   0.774   2.965  0.1646 -0.1009 -0.2897
15239W        W32086   1.916  13.189  13.887 -0.1725 -0.3264 -0.2371
15240W        W32087   8.993   6.705   2.855 -0.0846  0.1312  0.1458
15241W        W32088   4.549   3.875   1.800 -0.0934 -0.1706 -0.1045
15242W        W32089   5.639   9.206  11.920  0.1399 -0.0151 -0.1064
15243W        W32090   0.024   0.125  13.622  0.0699  0.3556 -0.2345
15244W        W32091  16.475  17.485   3.769  0.1878  0.0123 -0.0535
15245W        W32092   9.774   5.063  15.418 -0.0129 -0.1352  0.1609
15246W        W32093  16.762  17.501  13.408 -0.3208  0.1103 -0.1148
15247W        W32094  12.202  15.868  15.125  0.2463  0.3099  0.1033
15248W        W32095  11.539   7.391  11.947 -0.2004  0.1907 -0.0232
15249W        W32096  13.494   8.264  12.767  0.0559  0.1072 -0.3509
15250W        W32097   5.119  13.552  16.632 -0.0769 -0.0777 -0.0419
15251W        W32098   7.614  16.551  13.586  0.3303 -0.0897 -0.2541
15252W        W32099  14.753  17.169   1.545  0.0225 -0.1156  0.1850
15253W        W32100  10.712  16.343  14.928 -0.0427 -0.0533 -0.2171
15254W        W32101  13.704  10.916   1.150  0.0985 -0.0847 -0.1339
15255W        W32102   0.371  11.713  14.534  0.0234 -0.1894  0.0343
15256W        W32103   5.075   3.531   4.967 -0.1246  0.1671 -0.0898
15257W        W32104   4.600   5.034  13.021 -0.3244  0.1843  0.3124
15258W        W32105  14.174  18.074  11.187 -0.0893  0.0839  0.2894
15259W        W32106  14.116  15.810   0.836 -0.1123  0.1579  0.3496
15260W        W32107   5.871  11.574   0.216  0.1897 -0.0657  0.1493
15261W        W32108  15.843   2.331   3.626  0.1185 -0.0434 -0.0917
15262W        W32109  12.468   2.215   4.304  0.2566 -0.0005  0.1162
15263W        W32110   4.882  10.656   3.545  0.0735 -0.0320 -0.0995
15264W        W32111  12.926  12.011  15.670 -0.1039  0.1679  0.0873
15265W        W32112  10.510  15.963   4.088  0.2423 -0.3549  0.1381
15266W        W32113   6.539   6.653  11.739 -0.0069 -0.3771 -0.0210
15267W        W32114  16.618   7.024  14.385 -0.1285 -0.0076  0.0629
15268W        W32115   1.123   2.463   1.687 -0.0454 -0.1146  0.1535
15269W        W32116   3.351   9.404   2.384  0.0535 -0.0243 -0.0420
15270W        W32117  16.156  16.333  13.929  0.3808  0.1790 -0.1576
15271W        W32118  13.154  18.074  14.351 -0.1014  0.0088 -0.0484
15272W        W32119   0.026   4.934  12.103 -0.1606 -0.0884 -0.2006
15273W        W32120   5.118   5.756  11.672 -0.1679 -0.2547 -0.0226
15274W        W32121  17.420   4.725   3.421 -0.0933  0.1423 -0.0552
15275W        W32122   7.178   9.507  16.317  0.0839 -0.0715  0.0013
15276W        W32123  15.608  16.021   2.896  0.0600  0.4415 -0.1488
15277W        W32124   6.777  11.191  16.532  0.1720  0.2770 -0.2310
15278W        W32125  16.466   6.327  16.689  0.1613  0.0737  0.2434
15279W        W32126  11.540   8.563   5.866 -0.0414  0.0931 -0.0502
15280W        W32127   7.796  11.678   1.064  0.0294 -0.3613 -0.2105
15281W        W32128   5.825   6.965   4.323 -0.1426 -0.0767  0.2143
15282W        W32129   8.965  14.744  12.631  0.0803  0.1596 -0.1876
15283W        W32130   4.345  12.407  16.554  0.1939 -0.1105 -0.0527
15284W        W32131  15.659   0.117   4.897 -0.0683  0.2409  0.2016
15285W        W32132   6.204  10.886  12.794  0.0345 -0.0780  0.3506
15286W        W32133  15.119  14.033  15.249  0.1228 -0.0088  0.1045
15287W        W32134   0.212   6.221  13.959  0.0158  0.2686 -0.0609
15288W        W32135   3.239   3.934   3.545 -0.1186  0.0498 -0.0736
15289W        W32136   4.634   6.706   2.333 -0.0071 -0.0399 -0.0629
15290W        W32137  10.552   6.488  16.108  0.1517  0.1189  0.1782
15291W        W32138  16.240   0.841   2.112  0.1890 -0.2172 -0.0579
15292W        W32139  11.824   0.548   0.905 -0.0175 -0.2567  0.1767
15293W        W32140   8.486   6.471   3.489  0.1873 -0.0548 -0.0089
15294W        W32141   2.004   9.739  13.316 -0.3987 -0.1998 -0.1765
15295W        W32142   4.028   0.361  14.256 -0.0415  0.1393  0.1008
15296W        W32143   5.720   6.461   4.110 -0.1403  0.1935  0.1946
15297W        W32144   7.758  13.737   4.485 -0.4671  0.0343 -0.0445
15298W        W32145  10.476  17.146   5.264 -0.1589 -0.1152 -0.3773
15299W        W32146   8.098   2.224  15.601 -0.0740  0.5900  0.1009
15300W        W32147  12.538   7.758   4.772 -0.0004  0.1141  0.0455
15301W        W32148   5.716  11.798  12.104 -0.1531  0.2363 -0.0041
15302W        W32149  17.719   5.609   1.555  0.1303  0.1154 -0.1168
15303W        W32150   3.120   3.257  12.035 -0.4305  0.1382 -0.0123
15304W        W32151   9.748   8.177   5.809 -0.0047 -0.0561  0.3420
15305W        W32152  12.418   8.949  11.827 -0.0630 -0.0236 -0.1659
15306W        W32153  13.584   2.637  14.544 -0.1087  0.0203 -0.1241
15307W        W32154   6.920   3.360   4.884 -0.0542  0.4086 -0.1518
15308W        W32155   3.924  13.708  15.172  0.3869  0.2403  0.1194
15309W        W32156  10.145  17.152   4.275 -0.1504  0.0608 -0.2690
15310W        W32157  12.591  13.413   1.492  0.3026  0.1625 -0.3427
15311W        W32158   0.852  10.362   0.970 -0.0682 -0.0246 -0.0663
15312W        W32159   9.652   0.166   4.050  0.0068 -0.0769  0.0891
15313W        W32160  15.001  12.396   0.805 -0.1800 -0.0245  0.0085
15314W        W32161  10.016   3.840   4.059  0.0145 -0.0693  0.2948
15315W        W32162   5.983  10.030   3.858 -0.2744  0.1837  0.1137
15316W        W32163   3.294   7.761   2.002  0.0836  0.0273  0.2843
15317W        W32164   8.860   2.759   1.574  0.2683  0.0633 -0.0603
15318W        W32165   8.472   3.420   5.696 -0.0426 -0.0551 -0.0594
15319W        W32166  16.295  17.997  14.905 -0.1900 -0.0115 -0.0483
15320W        W32167  16.228  17.938   2.430 -0.0217 -0.0914  0.0554
15321W        W32168   9.277  13.805   1.140 -0.1918 -0.2296 -0.0572
15322W        W32169   0.776  10.606   4.481 -0.1458 -0.1822 -0.1151
15323W        W32170   8.792   4.780  13.325  0.1226  0.1255 -0.0807
15324W        W32171   7.838  10.720  14.940 -0.2949  0.1311  0.0903
15325W        W32172  12.625  17.656  12.431 -0.0328  0.1353  0.1178
15326W        W32173   5.844   5.238  14.480  0.2474  0.1238  0.0410
15327W        W32174   0.996   2.085  11.859 -0.3474  0.1211  0.3068
15328W        W32175   9.233  12.148   4.495 -0.0841 -0.0563 -0.1301
15329W        W32176  12.673  10.239   5.563  0.0512 -0.1411  0.0531
15330W        W32177  11.301   2.874  14.797 -0.3046  0.4015 -0.3766
15331W        W32178   2.104   8.642   1.477 -0.1072 -0.1046 -0.1688
15332W        W32179  11.140  10.292   5.630 -0.4678  0.1061 -0.0440
15333W        W32180  11.910   7.463  13.451 -0.0171 -0.1642  0.0285
15334W        W32181   9.160   6.946   3.616  0.0969  0.1372 -0.1324
15335W        W32182  15.855  11.051   0.650 -0.0985  0.2549 -0.0466
15336W        W32183   8.570  16.896  16.687 -0.1436  0.0927 -0.0885
15337W        W32184   4.416   3.217   4.797 -0.0976 -0.1834  0.1276
15338W        W32185  15.254  17.496  13.672 -0.0975  0.2317 -0.1645
15339W        W32186  16.094   8.743  13.011 -0.0902 -0.1826 -0.0096
15340W        W32187   3.283  13.260   1.930 -0.1792  0.1907  0.2715
15341W        W32188   4.611  14.518  13.104  0.0065 -0.2179  0.0052
15342W        W32189   6.255  14.845   0.133 -0.0052  0.0915  0.0383
15343W        W32190  14.368   1.613  12.053  0.0153  0.0811 -0.0012
15344W        W32191  10.431  14.802  15.992 -0.3156 -0.1302  0.4361
15345W        W32192  13.005   5.458  14.108  0.1065  0.2836 -0.3527
15346W        W32193   4.887   2.745   0.325 -0.1611 -0.2071  0.0632
15347W        W32194   8.395  11.181   3.134  0.1979  0.3079  0.1598
15348W        W32195   7.716  17.263   5.425 -0.2910 -0.0974 -0.0656
15349W        W32196  10.440   4.109   2.773 -0.0356 -0.1020 -0.0861
15350W        W32197   4.554   7.261   1.778 -0.0049  0.1151  0.1922
15351W        W32198   4.994  11.385   0.788 -0.4539  0.0833 -0.0475
15352W        W32199  12.472  10.981   4.285  0.1416  0.0266 -0.1276
15353W        W32200  12.510   0.532   2.492 -0.0977  0.0312  0.0102
15354W        W32201  10.804  14.497   2.518  0.2356 -0.0042  0.1571
15355W        W32202   9.331   2.848  12.844  0.1811  0.3269  0.1723
15356W        W32203  11.736   2.063   5.091  0.0426 -0.0625 -0.0301
15357W        W32204  17.380   8.539   4.964  0.0744  0.0616 -0.1147
15358W        W32205   6.689   0.363   2.522 -0.1964 -0.2874 -0.1357
15359W        W32206   2.337   6.936   2.379  0.1705 -0.0318  0.2624
15360W        W32207   1.670   6.887   5.021  0.2873 -0.1170  0.0351
15361W        W32208  15.274  12.858   4.735  0.0551 -0.1781  0.1446
15362W        W32209  13.998   3.357   4.458  0.0913  0.0664  0.1303
15363W        W32210   9.625   0.323   5.929  0.0205  0.3426 -0.2828
15364W        W32211   8.995  14.882   2.997  0.0469  0.0591 -0.2135
15365W        W32212   4.165   3.628   0.568  0.0211  0.2550 -0.1792
15366W        W32213   9.460   6.890  16.038  0.2809 -0.0588 -0.2059
15367W        W32214  10.355   9.845   1.493 -0.0108 -0.0733 -0.0617
15368W        W32215   3.719  16.990   4.155 -0.0600  0.0792  0.0383
15369W        W32216   7.868  14.427   3.453 -0.2059 -0.0192 -0.0077
15370W        W32217  10.850   8.767   5.509 -0.1444 -0.1259  0.2311
15371W        W32218   8.654  12.831  13.530 -0.0150 -0.1014  0.0253
15372W        W32219   0.686   1.783   1.895  0.1327  0.4305 -0.2300
15373W        W32220   9.864   9.004  11.719  0.3146 -0.0839 -0.0975
15374W        W32221   5.393   0.186  14.789  0.2895 -0.0120 -0.0140
15375W        W32222   6.595   3.615  13.536 -0.1535 -0.2515 -0.0565
15376W        W32223   5.589   9.937   4.956  0.0441 -0.1640 -0.0784
15377W        W32224  17.289   1.084   1.640 -0.1333 -0.2821 -0.1653
15378W        W32225   0.904  12.579  15.240 -0.3540 -0.1782  0.1105
15379W        W32226  17.586   9.535   4.210  0.2693 -0.2088 -0.0688
15380W        W32227   7.187  15.041   2.518 -0.1693 -0.0163  0.2872
15381W        W32228  17.757  17.213  15.001  0.0295 -0.2643 -0.2457
15382W        W32229   4.190  10.880   0.526  0.1032  0.3452 -0.0985
15383W        W32230   4.372  13.337  15.158  0.1157 -0.0416  0.1147
15384W        W32231   1.662   2.164   2.791  0.1534 -0.0518 -0.1812
15385W        W32232  16.492   5.940  12.925 -0.1262  0.0490 -0.1999
15386W        W32233   4.884   8.691   2.633 -0.1075  0.0902 -0.0291
15387W        W32234   4.609   4.868  12.535 -0.2407  0.1365 -0.0535
15388W        W32235  14.117  14.289   1.826  0.1311  0.0779 -0.3129
15389W        W32236   4.077  11.855   2.645  0.3768  0.0234 -0.0185
15390W        W32237   0.459  11.681   5.844 -0.2730 -0.1958  0.0284
15391W        W32238   6.378  12.943   2.287 -0.1245  0.0190 -0.0309
15392W        W32239  15.382  10.072  14.041  0.2445 -0.1039 -0.2154
15393W        W32240  12.862   1.053  15.868  0.2176 -0.0637  0.2634
15394W        W32241   2.546   7.288  12.033  0.2125  0.1063  0.3189
15395W        W32242   5.481   7.669   1.918 -0.1172 -0.0854  0.1677
15396W        W32243  14.132   4.365   1.820  0.1122  0.2668  0.2116
15397W        W32244  13.251  12.743   1.935 -0.1012 -0.0573 -0.1363
15398W        W32245   7.232   5.032   4.014  0.0892  0.0710 -0.0136
15399W        W32246  11.402   7.326   1.130  0.0329 -0.2938  0.1059
15400W        W32247   3.616   1.604   4.688 -0.1915 -0.0195  0.0744
15401W        W32248   6.319   7.967  11.911  0.1444  0.2087  0.3227
15402W        W32249   3.895  11.996   0.471 -0.1504  0.1640  0.0186
15403W        W32250  15.314  11.353   3.198  0.1398 -0.1846  0.0615
15404W        W32251  12.705   3.575   5.553 -0.1213  0.0249  0.1223
15405W        W32252  14.739   7.357  12.658 -0.1599 -0.0218  0.2216
15406W        W32253   1.210  14.123  12.410 -0.2241 -0.0491  0.1456
15407W        W32254   2.589  11.168  13.844  0.1724  0.1890 -0.0182
15408W        W32255  11.981  16.973   0.544  0.0558  0.1686  0.1409
15409W        W32256  14.393  16.824   3.685  0.4514  0.0434 -0.0274
15410W        W32257   3.523   4.356  11.923 -0.0484 -0.1817 -0.1069
15411W        W32258   8.524  10.300  12.958 -0.0973 -0.1559 -0.0722
15412W        W32259  17.694   6.127  16.515  0.0392 -0.2302  0.1419
15413W        W32260  14.413  14.598  14.233 -0.0468 -0.2887 -0.0113
15414W        W32261   2.761   9.938   4.142 -0.0015  0.0651 -0.0395
15415W        W32262   4.851   6.202  15.965  0.3511  0.3851 -0.1797
15416W        W32263   9.714   2.041  15.035  0.0136  0.2041 -0.0852
15417W        W32264  12.254  14.866   1.616 -0.0445  0.1014  0.0564
15418W        W32265  12.562   9.125  14.850  0.1426  0.0439  0.2555
15419W        W32266  13.187  14.459   2.032  0.1890 -0.2528  0.2129
15420W        W32267  14.318  18.000  14.878 -0.1669  0.0559  0.1549
15421W        W32268   6.297  16.334  15.683  0.0932 -0.1787  0.2596
15422W        W32269   2.368  11.974  14.109 -0.0529 -0.2129  0.0524
15423W        W32270  17.995   2.481   3.224  0.2179  0.1226  0.1502
15424W        W32271  10.887   1.916   4.843 -0.2661  0.1454 -0.1046
15425W        W32272   5.617   4.206  16.411  0.0099 -0.1115 -0.3206
15426W        W32273   4.305   2.114  15.899 -0.1960  0.1391 -0.1911
15427W        W32274  12.448   3.675  14.925 -0.3304 -0.0675 -0.1709
15428W        W32275  10.227   8.539   1.099  0.0411  0.0474  0.0132
15429W        W32276   0.139  12.422   0.918  0.2640 -0.2470 -0.0718
15430W        W32277  10.576   5.463  16.033 -0.1670 -0.3898  0.0415
15431W        W32278   2.993  16.861  11.609 -0.0801  0.0394  0.2297
15432W        W32279   5.354   5.479   3.097  0.1009  0.2487  0.0040
15433W        W32280  14.428   4.830   1.840 -0.0568 -0.2985 -0.3628
15434W        W32281  10.816   6.445   0.955  0.0524  0.1058  0.2301
15435W        W32282  13.132  11.815   1.560 -0.0852  0.1418  0.0724
15436W        W32283   6.740  12.223   4.819 -0.0801  0.2631  0.1758
15437W        W32284  16.155  10.586   0.228  0.0984  0.1701  0.1241
15438W        W32285   8.694   5.365  13.571 -0.3008  0.0424  0.0189
15439W        W32286   2.542   6.414   5.170  0.2381  0.0781 -0.2501
15440W        W32287   7.217   3.898  16.410  0.0382  0.1180 -0.2016
15441W        W32288   3.175  13.162  14.365  0.4641  0.2525 -0.1348
15442W        W32289   2.631   8.152  15.319 -0.1421 -0.0911 -0.0483
15443W        W32290  11.453  13.408  14.890 -0.0878 -0.1043 -0.4818
15444W        W32291   1.080  14.207  16.140 -0.2050 -0.0900 -0.1340
15445W        W32292   8.305   9.238   1.022  0.1598  0.1687 -0.0885
15446W        W32293   3.454   0.551   5.155 -0.0054  0.0343  0.0932
15447W        W32294   4.405   4.225  11.591  0.0076 -0.2400  0.2127
15448W        W32295   8.625   6.571  11.759  0.2701 -0.0081 -0.2578
15449W        W32296  10.775  11.324  14.250 -0.0568 -0.3239  0.0921
15450W        W32297   9.903   9.773  16.605 -0.0944  0.1868  0.2702
15451W        W32298   2.454   2.145  16.678  0.1152 -0.3133 -0.1927
15452W        W32299  12.830  16.457   3.311 -0.0563  0.4392  0.1957
15453W        W32300   0.353   4.558  15.734 -0.0683 -0.2613 -0.1749
15454W        W32301   5.748   6.600  12.861  0.0337 -0.4170  0.1888
15455W        W32302  10.199   1.692   0.838 -0.0597  0.0192 -0.1956
15456W        W32303   3.700   9.821   3.653 -0.2092  0.2785 -0.1720
15457W        W32304   2.125  15.768   2.831 -0.2149 -0.1469 -0.3312
15458W        W32305  17.349  14.678  14.003  0.3051  0.0592 -0.0165
15459W        W32306  10.613  12.126   2.468 -0.2304 -0.2375  0.0849
15460W        W32307  12.372   1.700   3.374  0.0110 -0.0875  0.1184
15461W        W32308  11.513   1.818   0.198  0.0074 -0.2997  0.4220
15462W        W32309  13.297  17.277   4.644  0.1920 -0.1140 -0.1188
15463W        W32310   1.189   4.068   5.430 -0.3662  0.0423 -0.0630
15464W        W32311   2.064  12.846   2.061  0.2487 -0.3597 -0.0060
15465W        W32312   2.030   4.547  13.057  0.3251 -0.1407  0.0996
15466W        W32313   1.213   7.500   1.561  0.4013  0.2058  0.1109
15467W        W32314   0.032  14.278   0.993 -0.0791 -0.0785  0.0854
15468W        W32315  10.595  15.437  15.230  0.0012  0.0266 -0.0380
15469W        W32316   8.608   6.546   0.339  0.0477  0.1773  0.2347
15470W        W32317  16.379   2.937  15.516  0.4068 -0.1599  0.1490
15471W        W32318   9.177  15.581  15.995 -0.0477 -0.2458 -0.1162
15472W        W32319  16.069  13.570   1.505 -0.2249  0.3104 -0.0847
15473W        W32320   1.039  13.346   3.452  0.0683 -0.0934  0.1599
15474W        W32321  13.139   1.261  12.213  0.1333 -0.1014 -0.1055
15475W        W32322   3.601  17.738  15.522 -0.3658 -0.1449  0.0068
15476W        W32323  16.573   2.537   4.568  0.3953 -0.4103 -0.0437
15477W        W32324  16.264   2.822   3.484 -0.2272 -0.2449 -0.1011
15478W        W32325   2.294   3.507   3.922 -0.0646  0.1309  0.0039
15479W        W32326   8.456   6.711  15.398  0.1567 -0.4188  0.2324
15480W        W32327   7.533   8.241  15.192 -0.2598 -0.2363  0.0535
15481W        W32328  17.386   8.437   3.634 -0.3451  0.0211  0.0859
15482W        W32329   1.905  11.762  14.045  0.2209  0.3341 -0.0839
15483W        W32330   1.818  15.209  14.228 -0.4457  0.1927  0.2658
15484W        W32331  12.163   8.809  13.382  0.0673 -0.0296  0.0257
15485W        W32332  16.944  11.799   0.529  0.0005  0.2893 -0.2219
15486W        W32333  13.574   9.373  12.987 -0.1848 -0.0600  0.0154
15487W        W32334   6.039  17.870   5.470 -0.1750 -0.0787 -0.0384
15488W        W32335   2.824  15.290  13.988 -0.1724  0.0921 -0.0577
15489W        W32336   7.550   6.971   1.515  0.1817  0.0791 -0.0017
15490W        W32337   2.413   5.841  15.442  0.1282 -0.0129  0.0871
15491W        W32338   1.931  15.540   1.723  0.1024  0.0469  0.0367
15492W        W32339  13.576   0.752   1.787 -0.1835  0.0895 -0.0653
15493W        W32340  14.767  14.094   3.895 -0.0068 -0.1088  0.0270
15494W        W32341  13.993  12.648   2.034 -0.2720  0.1559  0.1496
15495W        W32342   9.008   7.410   3.397 -0.0572 -0.1548  0.2092
15496W        W32343   9.147   8.933   5.314 -0.0378  0.3529  0.1455
15497W        W32344  14.203   9.268   3.013  0.3042 -0.0879 -0.0466
15498W        W32345   9.038  14.210  11.803  0.1120  0.0920 -0.0100
15499W        W32346   2.279   4.308   3.599 -0.0449 -0.0790 -0.3274
15500W        W32347  11.939  12.270  14.653  0.1919 -0.1549 -0.0340
15501W        W32348   2.807   1.482   5.163  0.2348 -0.2744  0.0343
15502W        W32349  12.085   3.393  14.662 -0.0926  0.4607  0.0166
15503W        W32350   8.269   3.459  15.069  0.0030  0.4356 -0.0139
15504W        W32351   5.770   1.142  14.878  0.4863 -0.0228 -0.1250
15505W        W32352  11.772  12.569  16.664 -0.0064 -0.1025 -0.1171
15506W        W32353   7.548   8.354  12.304  0.3136 -0.1877  0.2732
15507W        W32354   7.297  10.325   4.065  0.0130 -0.1029  0.1077
15508W        W32355  16.184   2.471  12.710 -0.0710 -0.1743 -0.0671
15509W        W32356   2.461   1.428  13.475  0.0881  0.0306  0.3229
15510W        W32357  12.026   7.109  13.980  0.0020 -0.1775  0.3157
15511W        W32358  14.437   3.534  12.875 -0.3216  0.3365 -0.1785
15512W        W32359   9.961   3.059  14.600 -0.2034  0.0624  0.1592
15513W        W32360  13.398  17.569  10.725 -0.0933 -0.2570 -0.1509
15514W        W32361   9.180   8.994  15.085 -0.1388  0.0715  0.2733
15515W        W32362   3.989   5.879  14.063 -0.1315  0.2005  0.2355
15516W        W32363   7.419  14.706  13.392 -0.0268 -0.1178  0.0181
15517W        W32364  18.063   7.025  12.423 -0.1220  0.0739 -0.0648
15518W        W32365  12.757   0.564   3.428 -0.3246 -0.3602 -0.3851
15519W        W32366  15.756  12.695  13.733 -0.1184 -0.0642  0.1954
15520W        W32367   3.826  14.427   2.895  0.1506 -0.0001  0.2764
15521W        W32368  12.967  10.429   1.756 -0.1760 -0.1188 -0.1029
15522W        W32369   0.771   7.375  16.086 -0.0220 -0.1023  0.0544
15523W        W32370   3.202   8.405  12.118  0.0987  0.2656  0.0084
15524W        W32371   9.088  10.404  11.883  0.0589 -0.1294  0.1596
15525W        W32372  11.480  16.947  15.097  0.0778  0.2376  0.0749
15526W        W32373  15.954   0.785   1.166  0.1454  0.0904 -0.0948
15527W        W32374  12.470  17.550  13.402  0.0509  0.1335 -0.0171
15528W        W32375   8.153   3.328  13.569 -0.1029  0.1329 -0.1480
15529W        W32376  11.366   4.100  13.886  0.0089  0.1929  0.0756
15530W        W32377   0.523  16.261   0.239 -0.4681 -0.2260 -0.2324
15531W        W32378   4.555   0.526   1.519 -0.0754  0.3953 -0.2320
15532W        W32379  11.871  17.328   5.560 -0.2157  0.1462  0.4472
15533W        W32380  16.658   6.327  15.310  0.1143 -0.2048  0.1411
15534W        W32381  16.603   4.442  15.772 -0.3161  0.0642  0.0010
15535W        W32382   9.305  15.018   0.948 -0.2226 -0.1204  0.1679
15536W        W32383   3.941   2.296   3.963 -0.3957 -0.0314  0.2207
15537W        W32384   2.548   2.748  12.613 -0.0065 -0.1884  0.1868
15538W        W32385   9.883  16.627  15.385  0.2369 -0.0523  0.1605
15539W        W32386   9.138  10.383   4.003  0.4464 -0.2687  0.1849
15540W        W32387   5.148   8.468  14.558  0.0831  0.1335  0.0680
15541W        W32388   5.322  12.401   3.975 -0.0856 -0.1184  0.1285
15542W        W32389   4.604   3.268  12.929 -0.0866  0.1203  0.0280
15543W        W32390  16.986  13.093  14.688  0.0656  0.0368  0.2180
15544W        W32391  17.141   7.322   5.017 -0.0613 -0.0244  0.3119
15545W        W32392  16.446  15.962  14.219  0.0239  0.2361 -0.1940
15546W        W32393  12.559   3.263   1.064 -0.1002 -0.1999  0.3739
15547W        W32394  13.758   7.655  13.799  0.0530 -0.0315 -0.2322
15548W        W32395  12.639  17.245   1.725 -0.1740 -0.2337  0.1248
15549W        W32396   2.365   3.701  12.336  0.0734 -0.4346 -0.2799
15550W        W32397  13.431   9.200  11.554  0.0751 -0.1208  0.0488
15551W        W32398   2.283  13.204  14.226  0.0194  0.0838  0.1613
15552W        W32399   2.483   4.560   4.093 -0.0604  0.3091  0.2187
15553W        W32400   0.616   8.120  11.924  0.2543  0.0570 -0.1475
15554W        W32401   0.961   7.659   3.265 -0.2559  0.1816 -0.0315
15555W        W32402   2.606  12.243  12.764 -0.0011  0.0834  0.0767
15556W        W32403   4.466  16.938  13.938  0.1326 -0.2159  0.1329
15557W        W32404  16.007  14.198  14.163  0.3088 -0.5041  0.1068
15558W        W32405   6.087   3.129   3.812 -0.0561  0.0658 -0.2784
15559W        W32406   7.654   8.025   4.126  0.1494  0.0030  0.0512
15560W        W32407   0.966   5.398   1.744  0.0675 -0.1032  0.1568
15561W        W32408   8.772  15.439  14.585 -0.1460 -0.1516  0.1989
15562W        W32409   0.290   7.805  16.564 -0.0653  0.2893  0.1971
15563W        W32410  12.315   3.002   1.535 -0.1793  0.1165  0.1670
15564W        W32411  10.941  12.750   1.234 -0.1517  0.0808  0.2053
15565W        W32412  11.737   7.299   5.048  0.1802  0.2687 -0.2449
15566W        W32413  15.870   5.481   1.982 -0.0434  0.0523  0.3747
15567W        W32414  14.071   8.041   0.966 -0.1478 -0.0606  0.0549
15568W        W32415   4.231   1.321  12.241  0.0801 -0.4406 -0.0429
15569W        W32416   2.592  10.617  14.269 -0.2349 -0.0959  0.0170
15570W        W32417  10.420   9.684   0.117  0.5230  0.1274 -0.2190
15571W        W32418   4.001   3.947   1.876 -0.0464 -0.1728  0.4625
15572W        W32419  12.418  11.862   2.528  0.1069 -0.0956  0.2826
15573W        W32420   6.465   1.991  15.855 -0.0721  0.1156 -0.1561
15574W        W32421  11.861  11.958   1.089  0.0287 -0.1923 -0.0501
15575W        W32422   8.667   1.467  13.428  0.0600  0.2001 -0.1686
15576W        W32423   5.390   2.837   0.275  0.1130 -0.1680 -0.2844
15577W        W32424  10.924  15.228   6.285 -0.0691  0.1989 -0.1988
15578W        W32425   7.322   7.863   5.005  0.1372  0.0482  0.1029
15579W        W32426   5.910   5.468   4.542  0.0479  0.1415 -0.0244
15580W        W32427   8.438   2.419  13.872 -0.2897  0.0723 -0.2411
15581W        W32428  17.445  13.286  14.383 -0.0623 -0.0340 -0.1409
15582W        W32429   2.377   5.805  11.679 -0.1846  0.2419 -0.0320
15583W        W32430  17.769   3.010  15.876 -0.1795 -0.0777 -0.3085
15584W        W32431   4.762   3.966   4.984 -0.1949 -0.0601 -0.2818
15585W        W32432  17.390  16.450  16.380  0.2349 -0.3252 -0.0138
15586W        W32433   6.808  16.242  12.972 -0.1930  0.2425  0.0084
15587W        W32434  14.027  13.018  12.491  0.1070 -0.0917 -0.0337
15588W        W32435  10.693  12.505   0.836  0.3073  0.1929 -0.1533
15589W        W32436   0.297   3.495  14.428 -0.0810  0.1206  0.2437
15590W        W32437  13.475   9.584  16.645 -0.2450  0.0904 -0.1820
15591W        W32438  17.881  13.515   0.395 -0.3135  0.0765 -0.1256
15592W        W32439   0.857   0.062   3.633  0.0430 -0.0206  0.0475
15593W        W32440   8.082   2.292  13.556 -0.0061 -0.0605 -0.0854
15594W        W32441   5.935  17.880   0.044 -0.1504 -0.1909 -0.0544
15595W        W32442  14.071   9.491  12.099  0.2071 -0.0356 -0.0437
15596W        W32443  17.737  14.189  13.963 -0.2055 -0.0694  0.1153
15597W        W32444  10.894   3.893   1.564  0.1832 -0.4227 -0.2494
15598W        W32445   3.140   4.703  15.868  0.1190 -0.0032  0.0119
15599W        W32446   4.200   2.435   2.745 -0.1756  0.0848  0.2232
15600W        W32447   4.242  10.600  11.870  0.1471  0.2213 -0.5241
15601W        W32448  11.784  13.405   0.190 -0.4180  0.2932 -0.0660
15602W        W32449  14.280  17.472   2.568  0.0965 -0.1113  0.0155
15603W        W32450   4.120   3.048  11.991 -0.0756  0.3087 -0.2988
15604W        W32451   3.802   3.060  11.554  0.0011  0.0749 -0.1179
15605W        W32452   5.359   6.934  12.923 -0.0310 -0.2308 -0.0622
15606W        W32453   6.578   9.788  13.591  0.0697 -0.2738 -0.0016
15607W        W32454   5.608  13.781   2.007  0.1289 -0.2240  0.1316
15608W        W32455   9.275   3.975  14.603 -0.0786  0.2194 -0.0642
15609W        W32456   6.974   3.199  14.259  0.3699  0.3026 -0.0507
15610W        W32457   6.216  14.996  11.575 -0.1456 -0.1558 -0.0596
15611W        W32458  12.761   7.758   5.563 -0.0792  0.0189  0.0293
15612W        W32459  15.478   1.534   4.876  0.0241 -0.1417 -0.3145
15613W        W32460   1.378  13.036  12.967  0.1421 -0.1432 -0.0651
15614W        W32461  13.796   7.244   3.218 -0.2329  0.2735  0.1194
15615W        W32462  10.118   5.169   3.472 -0.1969 -0.0876 -0.4429
15616W        W32463   9.548   5.692   4.349  0.0396 -0.2185 -0.2094
15617W        W32464  13.995  11.613   5.301 -0.1343 -0.1685 -0.0500
15618W        W32465   0.528   7.844   3.598 -0.0638 -0.0620  0.0402
15619W        W32466  14.883  18.024  14.892  0.1053  0.1951  0.0260
15620W        W32467  11.924   8.685  14.409 -0.1135  0.1316  0.2577
15621W        W32468  14.812   8.647  12.833 -0.0992 -0.0305  0.5058
15622W        W32469  14.746  16.738   4.233 -0.1285  0.3937 -0.2544
15623W        W32470   2.689   3.333  13.895 -0.2447 -0.2376 -0.0227
15624W        W32471   8.444  16.649   3.043 -0.2155  0.0678  0.0232
15625W        W32472  10.101   0.333   0.663  0.0714  0.1157  0.0269
15626W        W32473  13.056   4.032   2.313 -0.2185 -0.2753 -0.0587
15627W        W32474  13.218   2.233   5.106  0.3235 -0.0728 -0.2158
15628W        W32475  11.813   1.825  11.892  0.1674  0.0476 -0.1355
15629W        W32476   7.266  15.057  11.757  0.1478 -0.4450 -0.0578
15630W        W32477   8.275   6.924  14.412  0.0245  0.0837 -0.0857
15631W        W32478   6.757  17.152  15.263  0.2463 -0.2078 -0.2241
15632W        W32479  13.944   9.908  15.008  0.0415  0.3140 -0.2363
15633W        W32480  10.877   0.682   1.139  0.0571  0.0309  0.1117
15634W        W32481   6.198   0.363   0.879  0.0551  0.2443  0.2535
15635W        W32482  11.312   8.007   3.550 -0.0310  0.2762  0.0582
15636W        W32483   0.621   9.317  13.883 -0.0900 -0.0929  0.0216
15637W        W32484   2.837   5.741   0.668 -0.0309 -0.3797 -0.1543
15638W        W32485   8.386   7.926  14.541 -0.2241 -0.3565  0.0102
15639W        W32486  11.855  15.093  12.959  0.1206 -0.2686  0.3142
15640W        W32487  13.576   2.622   5.073  0.2024  0.2467 -0.1359
15641W        W32488   3.450   1.467   2.126 -0.0130  0.1078  0.0146
15642W        W32489  11.205  12.151  14.169  0.2524 -0.2146  0.1347
15643W        W32490   6.319   0.977  15.204  0.0788 -0.0532  0.1071
15644W        W32491   1.679  17.691  14.832 -0.1322  0.0333 -0.3306
15645W        W32492  13.297   3.913  13.517 -0.3954  0.0545 -0.0890
15646W        W32493  13.092  15.075  14.718  0.0509 -0.1588  0.0812
15647W        W32494  12.526   7.189  12.119  0.2015  0.0347 -0.0137
15648W        W32495   3.023   4.939   0.793  0.0887  0.3159 -0.3873
15649W        W32496   2.445  17.056  12.780  0.0237  0.0081  0.1494
15650W        W32497   2.688  15.624  12.342  0.2695  0.0281  0.0230
15651W        W32498  14.042   3.718  16.045 -0.0548 -0.2244 -0.1431
15652W        W32499  14.309   6.757   4.278 -0.2467 -0.2881 -0.3685
15653W        W32500   9.737   3.401   0.864  0.0682  0.3829 -0.0773
15654W        W32501   1.297   2.078   5.962  0.2241 -0.2514 -0.5161
15655W        W32502   8.180   3.383  11.338  0.0064  0.2688 -0.3008
15656W        W32503   1.762  15.912  13.455 -0.0898  0.1179 -0.1060
15657W        W32504  14.083   8.538  14.670  0.2506 -0.0913  0.2033
15658W        W32505   2.211   8.516   0.967  0.3684  0.1716 -0.0638
15659W        W32506   8.953   0.944   1.618  0.1608  0.2089 -0.0593
15660W        W32507   3.847  15.729   3.070  0.0111 -0.1600  0.0776
15661W        W32508  15.325   6.338  15.773 -0.2517  0.0150  0.0908
15662W        W32509  11.054   4.876   1.143  0.1832  0.0143  0.0038
15663W        W32510   1.010  12.241   4.311 -0.2805 -0.0370 -0.0211
15664W        W32511   0.011   7.419   3.647 -0.1497 -0.2537  0.1286
15665W        W32512   4.573  14.569   0.346 -0.1649  0.1006 -0.2918
15666W        W32513   5.963   5.390  11.595 -0.0534 -0.0404 -0.0391
15667W        W32514  16.454   1.057  12.624  0.0141  0.0277 -0.0705
15668W        W32515   3.944  17.587  15.057  0.0232  0.0170 -0.0395
15669W        W32516   9.488  11.729   2.544  0.0719  0.1234  0.1639
15670W        W32517  12.473   0.901  16.511  0.1698  0.1123  0.0210
15671W        W32518   6.872   0.940   3.347 -0.1160 -0.0177 -0.2804
15672W        W32519  13.389   6.504   4.430  0.0801  0.3064  0.0218
15673W        W32520   8.068   6.533   3.225 -0.1065 -0.0804  0.0450
15674W        W32521  16.511   9.476  12.410  0.2763  0.1271 -0.2351
15675W        W32522   2.796   8.981   4.758  0.0248 -0.3002 -0.1995
15676W        W32523  16.243   7.770   3.941  0.1198 -0.3515  0.0501
15677W        W32524  10.584  13.482  13.113  0.0305 -0.1829  0.0510
15678W        W32525   5.836   8.719  14.971 -0.2647 -0.4602 -0.2799
15679W        W32526  14.030   1.063   1.758  0.4903  0.0786  0.1411
15680W        W32527   2.921  16.529  13.907 -0.1021  0.1188  0.0750
15681W        W32528   8.202   9.829   3.130  0.0184  0.2045 -0.0157
15682W        W32529  12.846   0.433   2.909  0.0044  0.3304 -0.0855
15683W        W32530   6.148   0.601  16.376  0.0821  0.0508  0.1512
15684W        W32531  11.237   9.045   3.260 -0.0718  0.3203  0.0738
15685W        W32532  17.083  11.365  11.757  0.2102  0.1051 -0.1522
15686W        W32533   8.210   2.824   5.008  0.1081  0.3186 -0.0257
15687W        W32534  10.814   1.328  16.400  0.0629  0.2071 -0.0296
15688W        W32535   4.285  16.335   2.530 -0.2984 -0.0561  0.0044
15689W        W32536  12.727  16.551   3.786  0.5008  0.1512  0.2519
15690W        W32537  11.558   7.115   1.831  0.2992 -0.0987 -0.0601
15691W        W32538  16.759  15.584  15.483  0.2087  0.1768 -0.1038
15692W        W32539   7.071   5.060   3.547 -0.1182 -0.1034 -0.0235
15693W        W32540  10.503   3.824  15.408 -0.1660 -0.0240 -0.1660
15694W        W32541   4.836   6.818  14.965 -0.0489 -0.2207 -0.0335
15695W        W32542  15.837   1.814  16.137 -0.0857  0.4520 -0.1634
15696W        W32543  14.438  16.789   3.196  0.0742 -0.2041 -0.1564
15697W        W32544   7.501   7.327   2.344 -0.0665 -0.1304 -0.0348
15698W        W32545   3.206   1.767  15.155 -0.0705  0.0704  0.1004
15699W        W32546   3.345  12.391  15.093  0.2251 -0.0271  0.2019
15700W        W32547  15.160  12.960   3.389  0.2732 -0.3288  0.1120
15701W        W32548   9.063   2.528  14.139 -0.0288  0.0904  0.0143
15702W        W32549  14.677  13.445   2.903  0.2248  0.0913  0.0422
15703W        W32550  13.383   7.611  12.153  0.1172 -0.1989  0.1558
15704W        W32551   1.476   6.243  13.217 -0.1543  0.2716  0.1834
15705W        W32552  14.857  18.067   1.188  0.0356 -0.1616  0.0691
15706W        W32553  10.086  13.257  16.367  0.2015 -0.0849  0.2515
15707W        W32554  13.010   1.143   0.674  0.0962  0.2021 -0.0991
15708W        W32555   6.893   8.447  12.983  0.4705 -0.1768 -0.2882
15709W        W32556   3.214  17.384  15.250 -0.2368 -0.1519 -0.1884
15710W        W32557  11.692  10.857  13.167 -0.1641  0.1910 -0.4563
15711W        W32558   1.166   4.782  16.170 -0.1174 -0.1830  0.0432
15712W        W32559   7.924   1.187  16.366 -0.1414  0.0703 -0.0590
15713W        W32560   1.970   8.779  13.397  0.3028 -0.0567  0.2289
15714W        W32561   8.463   0.213  16.465  0.0795 -0.1813 -0.3796
15715W        W32562   7.006  14.798  14.302  0.4760 -0.0080  0.0999
15716W        W32563   0.808  13.223  15.995  0.2619  0.1637  0.2373
15717W        W32564   0.295   9.124   5.250  0.0048 -0.1297 -0.0949
15718W        W32565   9.098   6.485  16.152  0.1933  0.5001  0.1087
15719W        W32566  15.887  17.468   2.244 -0.0429  0.0003 -0.0345
15720W        W32567   8.895   8.055   3.533  0.0788 -0.1575  0.0116
15721W        W32568  14.234  15.082  14.940 -0.4184 -0.1812  0.2488
15722W        W32569  10.642  11.473   4.327 -0.0730  0.1133  0.1588
15723W        W32570  17.226   3.792  11.685  0.0304 -0.3425  0.3334
15724W        W32571   4.754   6.872   1.868 -0.2339  0.1097 -0.1134
15725W        W32572   5.297  10.865   2.190 -0.0531 -0.1178 -0.1573
15726W        W32573   7.986   5.196   1.713 -0.0465 -0.1785 -0.2610
15727W        W32574   9.971  11.849  14.229 -0.1440  0.0723  0.0149
15728W        W32575  17.594   1.659   6.325 -0.1858  0.3470 -0.1994
15729W        W32576   4.620   0.993  13.120  0.1460 -0.0045  0.0886
15730W        W32577   7.522  17.936   1.945 -0.3772 -0.1706  0.0143
15731W        W32578  12.806   5.041   2.171 -0.2393  0.1908  0.0612
15732W        W32579  17.219  13.766  13.518  0.3718 -0.0388  0.2140
15733W        W32580  14.631   0.290  11.869 -0.0240  0.1717  0.0063
15734W        W32581   4.565  12.568   4.025  0.0767 -0.1468  0.0952
15735W        W32582  10.246   4.769  11.790 -0.0777  0.0019 -0.1341
15736W        W32583   9.596  11.397  11.657  0.2824  0.2232 -0.0632
15737W        W32584   6.245  12.675   2.680  0.0564 -0.0149 -0.0938
15738W        W32585   9.572  16.325   1.420  0.0618  0.0287 -0.0490
15739W        W32586  13.443   9.273   2.807 -0.0027 -0.0778  0.1456
15740W        W32587   1.292   1.733  11.454  0.3395  0.1924  0.0862
15741W        W32588   8.982  16.098  13.391 -0.4244  0.2238  0.3101
15742W        W32589   7.798  16.486  14.170  0.3000  0.2201  0.0514
15743W        W32590   4.156   7.454   4.873  0.1879 -0.0531 -0.3824
15744W        W32591   7.586  17.354   3.814  0.0242  0.0279 -0.2674
15745W        W32592  10.485   7.278  11.770 -0.1056  0.2603  0.0138
15746W        W32593   8.203  14.569  12.154 -0.0243 -0.0175  0.1811
15747W        W32594  13.299  11.785  16.613 -0.0846 -0.1532  0.1239
15748W        W32595  12.867   5.106  14.662 -0.0413 -0.2478  0.3182
15749W        W32596  13.369  17.476  11.255 -0.0200 -0.0725 -0.1141
15750W        W32597  11.058   9.849   4.022  0.1213  0.1985 -0.1052
15751W        W32598  17.349   3.762   4.652 -0.3638 -0.1364 -0.4067
15752W        W32599  17.682   1.512   2.932 -0.3359  0.2704  0.0274
15753W        W32600   3.809   1.356  14.938  0.1405  0.0381  0.0097
15754W        W32601  16.558  13.868   5.796  0.1909 -0.2363 -0.2956
15755W        W32602   8.061   8.423   3.308 -0.1037  0.0165  0.0657
15756W        W32603  16.576  17.028  13.282 -0.0043 -0.1894 -0.1504
15757W        W32604  13.015  13.159   0.355 -0.1971 -0.0687  0.2514
15758W        W32605   0.215   8.034   4.011  0.0110 -0.1675 -0.0124
15759W        W32606  17.969  13.109  13.165  0.1123  0.1147 -0.1218
15760W        W32607   8.836   7.453  13.910  0.0839  0.1098  0.0517
15761W        W32608   9.977   2.073   5.055  0.0445 -0.0555  0.0869
15762W        W32609  12.809   5.393  16.214 -0.0280  0.0409  0.0192
15763W        W32610   4.204   1.989   4.238  0.0671  0.0694 -0.0918
15764W        W32611  12.328   7.852   1.915 -0.0291  0.1726 -0.1719
15765W        W32612   6.983  11.452  12.953  0.1134  0.3031 -0.0856
15766W        W32613   5.916  10.428   1.211 -0.0250  0.0976  0.0277
15767W        W32614  16.359  10.098  11.401 -0.1732 -0.2571 -0.1052
15768W        W32615  12.029   3.520  12.839  0.2841 -0.0175 -0.1461
15769W        W32616  12.186  16.455   5.248  0.0283 -0.2673 -0.1503
15770W        W32617  11.605   6.640   3.110 -0.4888 -0.0927  0.1142
15771W        W32618  13.032  13.929   3.052 -0.2389 -0.4070  0.1875
15772W        W32619   7.430   5.428   3.839 -0.0494 -0.0793  0.3749
15773W        W32620   1.678  11.336   5.867  0.1143  0.2044 -0.3843
15774W        W32621  16.770  10.909  16.036  0.1309  0.1298 -0.2094
15775W        W32622  17.285  11.782   0.926  0.2559  0.0222 -0.1991
15776W        W32623   1.509  12.460   5.834 -0.0663 -0.2596 -0.1034
15777W        W32624   8.330  10.939  12.198 -0.0703  0.0366  0.1749
15778W        W32625   9.603   0.147   5.468 -0.0928 -0.0426 -0.0699
15779W        W32626  16.229   7.317  15.062  0.1412  0.4318 -0.0220
15780W        W32627  14.506   0.356   2.750  0.0318 -0.0579  0.0173
15781W        W32628   9.452   1.379   3.465  0.0709 -0.0858  0.1625
15782W        W32629  11.446   0.879  16.245  0.2393  0.1168 -0.2319
15783W        W32630   4.506   4.604  15.573  0.2190  0.2737 -0.0468
15784W        W32631  16.376   0.861  13.503  0.2924  0.0781  0.2063
15785W        W32632   5.937   8.405  14.124  0.0485  0.0768 -0.0105
15786W        W32633  18.010  11.080  14.052  0.0692 -0.0952 -0.2460
15787W        W32634   2.018  13.248   3.019 -0.0075  0.0475  0.0366
15788W        W32635   1.064  13.908  12.906 -0.1111  0.1827  0.2255
15789W        W32636  17.470   8.767   5.352 -0.0029  0.2924 -0.0650
15790W        W32637   8.596   3.533   4.231 -0.1477  0.0064  0.0568
15791W        W32638   5.453   1.085  15.272 -0.0810 -0.0556 -0.4329
15792W        W32639   6.336   4.488  15.021 -0.2200 -0.0921 -0.1718
15793W        W32640   0.305   5.421   1.014 -0.1724  0.0649  0.0630
15794W        W32641  18.049   3.660   5.266  0.0800 -0.1580  0.2469
15795W        W32642  16.678   1.799  16.362  0.1682  0.2135  0.2842
15796W        W32643  12.888  15.495   4.383 -0.1982 -0.3691  0.1015
15797W        W32644   1.788  14.857   1.577  0.0915 -0.1311 -0.2863
15798W        W32645   0.293  10.456   4.357  0.2018 -0.0562  0.1351
15799W        W32646  10.508   2.380   0.378 -0.1294 -0.0524 -0.1064
15800W        W32647  17.982   8.666  14.522 -0.1632 -0.3777  0.1564
15801W        W32648   3.354  12.079   1.989  0.3239  0.1369  0.3717
15802W        W32649   7.447  14.267   5.187 -0.1794  0.0729 -0.4857
15803W        W32650   2.085  17.560   2.654  0.1339 -0.0948  0.0880
15804W        W32651   0.898   8.656   2.134 -0.1110  0.1590 -0.3098
15805W        W32652   7.059  16.979   2.649  0.1254  0.0717  0.3986
15806W        W32653  16.508   0.101   3.215 -0.1917 -0.0454 -0.1281
15807W        W32654  13.382   0.985  11.867  0.3468  0.0106 -0.1480
15808W        W32655   8.444   8.871   2.188 -0.1452  0.0790  0.1296
15809W        W32656  17.486  14.178   3.745 -0.0028 -0.0724 -0.1306
15810W        W32657   5.464   0.657   1.095  0.1903  0.2638 -0.1642
15811W        W32658  17.547  12.373   1.658  0.0097 -0.0385  0.3494
15812W        W32659  15.373  15.519  14.758  0.0559 -0.0303  0.0880
15813W        W32660  11.581  12.197   1.610 -0.1044 -0.0951  0.0945
15814W        W32661  17.402   5.651  15.795 -0.0890  0.0993  0.0555
15815W        W32662   4.209   7.715  12.753 -0.2001  0.1958 -0.0088
15816W        W32663  13.657   3.173   4.832  0.1297  0.0030  0.0903
15817W        W32664   6.943  10.575   2.817  0.0258 -0.0656  0.0809
15818W        W32665   3.554   8.807   4.239  0.1257  0.0425  0.1918
15819W        W32666  12.064  12.136  14.200  0.2569  0.0198  0.1206
15820W        W32667  10.306   7.684  11.552  0.1024 -0.1717  0.2753
15821W        W32668  10.224  15.696  13.386 -0.0316  0.0354 -0.0025
15822W        W32669  15.047  10.685   5.609 -0.0080 -0.0377 -0.0231
15823W        W32670  10.732   2.701  13.385 -0.0332  0.2111  0.1205
15824W        W32671   1.494   8.591   5.244  0.1942  0.2326  0.0399
15825W        W32672   0.006   6.081  12.810 -0.1561 -0.0768  0.4737
15826W        W32673  11.142  14.344   3.774 -0.0745 -0.3371 -0.2446
15827W        W32674   0.467   9.985  14.493  0.0040 -0.0217 -0.1367
15828W        W32675   7.976   2.486   1.246  0.1825 -0.0598 -0.0899
15829W        W32676   8.839   1.435  14.314  0.0507  0.0302  0.2793
15830W        W32677   2.391   9.003  13.175  0.0135 -0.0325  0.0193
15831W        W32678   5.828  17.899  13.695  0.1805 -0.1058 -0.1839
15832W        W32679   3.226   2.706  16.512  0.1347 -0.3342  0.1199
15833W        W32680   0.003  13.178  15.042 -0.0773 -0.0234 -0.0488
15834W        W32681   2.023  15.714  15.559 -0.2316 -0.0638  0.0810
15835W        W32682   5.794   3.229  16.643  0.1032  0.2703  0.4791
15836W        W32683  11.014  12.183   0.752 -0.0616 -0.0867 -0.1104
15837W        W32684  17.338   1.587   2.608 -0.1486 -0.0314  0.1152
15838W        W32685   0.187   2.590   4.960  0.2019 -0.2440 -0.0259
15839W        W32686   8.477   4.298  12.523  0.3124 -0.2058 -0.0726
15840W        W32687   3.036   0.702   2.137 -0.0904  0.2270  0.0833
15841W        W32688   8.817   0.337  15.204 -0.1062 -0.2552 -0.1741
15842W        W32689  15.192   6.969  12.015 -0.3523  0.0097 -0.0512
15843W        W32690   1.817   4.911   3.566 -0.0408 -0.2458 -0.2703
15844W        W32691   7.070  11.124   4.048  0.1178 -0.0153 -0.1234
15845W        W32692  11.411   9.748  12.348  0.0813  0.2516  0.0191
15846W        W32693   0.488   7.239   4.408  0.2167  0.2078  0.6296
15847W        W32694   1.703   4.563  15.923  0.1216 -0.2428 -0.0879
15848W        W32695   7.543   0.535   0.180 -0.0265  0.2774  0.0283
15849W        W32696  11.917  15.884  11.548 -0.1060 -0.5084  0.0508
15850W        W32697   7.802   8.921   4.621 -0.1650 -0.2209 -0.0915
15851W        W32698   3.594   2.295   2.349  0.1808  0.2616  0.1878
15852W        W32699  10.301   1.374  15.543 -0.0699  0.0088 -0.0276
15853W        W32700  17.506   8.423  12.856  0.0432  0.1411 -0.0021
15854W        W32701   4.678   1.902  14.674  0.0088 -0.1070  0.0002
15855W        W32702   7.678  14.965   1.530  0.3917 -0.0413  0.0814
15856W        W32703  13.973   0.497   2.044 -0.1329 -0.1235 -0.1996
15857W        W32704  12.100   9.091   0.002 -0.0588  0.1781  0.2032
15858W        W32705  14.224   6.271   1.491  0.1497  0.1143 -0.1316
15859W        W32706   3.194   9.606  14.829 -0.2300 -0.0338  0.1211
15860W        W32707   2.277   3.188   5.705 -0.0256 -0.0833  0.1987
15861W        W32708   6.373   3.978  13.836  0.0269 -0.1010  0.3331
15862W        W32709  17.093   3.426  14.541 -0.1131 -0.0444 -0.1425
15863W        W32710  16.553  14.611  15.811 -0.1360 -0.2085  0.0446
15864W        W32711   6.671   2.823  14.516  0.1215  0.0382 -0.0716
15865W        W32712  16.020   8.000  15.466  0.0387  0.2551 -0.0783
15866W        W32713  15.914   5.100  10.607 -0.1395  0.1014  0.1481
15867W        W32714   4.198   4.611  16.416 -0.0377  0.1930 -0.0826
15868W        W32715   7.608   4.027   1.802 -0.0143 -0.4541  0.1267
15869W        W32716  14.928   5.736  12.870  0.1471 -0.2384  0.2931
15870W        W32717  12.994  17.622  15.404 -0.3224  0.2098 -0.0282
15871W        W32718   9.891  17.555   2.755  0.1575 -0.0388  0.0646
15872W        W32719   1.057   4.157  14.443 -0.1396 -0.2180  0.3599
15873W        W32720  13.950   8.167   5.943 -0.0073  0.0869 -0.0229
15874W        W32721   2.036   1.970   4.988 -0.0191  0.1829 -0.0123
15875W        W32722   7.241  12.544   4.939 -0.1160  0.2855  0.1186
15876W        W32723   8.285  16.270   4.550 -0.1609  0.0653  0.0184
15877W        W32724  18.047   9.370   0.446  0.1246  0.2143 -0.1858
15878W        W32725   7.068   5.133  12.315  0.2634 -0.0070  0.0456
15879W        W32726   0.199   1.948   3.367  0.1785  0.0643  0.1265
15880W        W32727  12.071  11.684  12.744 -0.0810 -0.1301  0.1875
15881W        W32728   7.368   4.490  13.669 -0.1383 -0.0744  0.2352
15882W        W32729   2.444   4.468   5.469 -0.1862 -0.0562  0.0870
15883W        W32730  13.034  17.100   1.476 -0.2728 -0.0291 -0.2795
15884W        W32731   3.213   6.743   2.176  0.0237  0.0314  0.0618
15885W        W32732   4.100  11.560   0.388  0.1321  0.1777  0.3924
15886W        W32733   8.971   9.642   4.417  0.4589 -0.1988 -0.0830
15887W        W32734  14.515   5.806   4.489  0.1515 -0.1254  0.0382
15888W        W32735   0.313  12.278   0.303 -0.0667  0.0361  0.1048
15889W        W32736   5.682  13.019  15.345 -0.0463  0.3565 -0.0894
15890W        W32737  17.710   8.857  13.567 -0.3699  0.3395 -0.0702
15891W        W32738   8.157   0.854   5.439  0.0872  0.0232  0.5172
15892W        W32739   2.213   6.470  14.221 -0.0836  0.1474  0.4479
15893W        W32740  10.030  12.074   4.815 -0.1304  0.1712 -0.1682
15894W        W32741   5.229   3.476  13.766 -0.0874  0.1994 -0.1069
15895W        W32742  15.112   9.686  14.293 -0.3763 -0.1058 -0.0813
15896W        W32743   5.863   2.779   1.124  0.2477 -0.0661  0.2196
15897W        W32744   9.728  17.821   2.357 -0.4181 -0.1247 -0.1042
15898W        W32745  17.346   1.208   0.797 -0.2519  0.2844 -0.1519
15899W        W32746   6.606  15.232  12.132 -0.0234  0.0014 -0.1244
15900W        W32747   4.622   0.854   3.405 -0.1722  0.0071 -0.1110
15901W        W32748   5.884   2.204  12.742  0.2761 -0.1057  0.4463
15902W        W32749  17.853   9.972  14.002 -0.0362  0.1597 -0.2235
15903W        W32750   1.450   6.047  12.084 -0.1184  0.1431  0.2072
15904W        W32751  15.899   5.051   1.659 -0.1406 -0.4027  0.0299
15905W        W32752  10.704   5.166  13.864  0.1225  0.2496  0.0315
15906W        W32753   6.903   6.269   4.584 -0.1065 -0.3380  0.3679
15907W        W32754  17.667   6.100  12.453 -0.0546  0.1326 -0.1031
15908W        W32755  10.943  11.813   4.597 -0.0792  0.0007  0.1018
15909W        W32756  10.999   9.481   4.373  0.2738 -0.0250  0.0609
15910W        W32757   9.528  17.700   5.395 -0.2451  0.1866 -0.0455
15911W        W32758  15.030   1.708  13.449 -0.2007 -0.2149 -0.1854
15912W        W32759   1.949   6.339   1.815 -0.0300  0.2070 -0.2112
15913W        W32760   1.275   1.041  11.251 -0.2459 -0.0828 -0.0313
15914W        W32761  15.114  11.678  12.985 -0.3123 -0.1828  0.2739
15915W        W32762   7.916  11.618   5.069 -0.2838 -0.2345 -0.1707
15916W        W32763  17.036   5.198   4.216  0.1822 -0.4301 -0.3093
15917W        W32764  10.281   4.509  16.376  0.0005 -0.1357 -0.0255
15918W        W32765  12.152  12.535  13.242  0.1995  0.1588  0.0519
15919W        W32766   3.910   3.619  14.191  0.0135  0.2599 -0.2379
15920W        W32767  10.468  13.556  16.680 -0.0890  0.1120 -0.5329
15921W        W32768  16.228  16.029   2.758  0.1225  0.1181 -0.0369
15922W        W32769  14.860   8.863   3.755 -0.0606  0.1009 -0.3539
15923W        W32770  11.305  12.649  14.300  0.0553 -0.0348  0.0230
15924W        W32771  14.803  12.509   2.801 -0.0246 -0.0053  0.1084
15925W        W32772   9.195   2.086   3.042 -0.0146 -0.0211 -0.1916
15926W        W32773   7.341   1.593   3.107 -0.0078 -0.0811  0.0282
15927W        W32774  10.125   7.988   5.489 -0.0781 -0.0924  0.0121
15928W        W32775   2.745   9.284   0.162 -0.4537  0.0133  0.1284
15929W        W32776   4.127   3.324  15.401 -0.2563 -0.1963  0.0272
15930W        W32777   8.001  14.673   0.827 -0.1229  0.1577  0.2267
15931W        W32778   0.444   6.733   0.061 -0.0557  0.0680  0.0668
15932W        W32779  10.822  10.384   0.075  0.3030  0.0587 -0.0101
15933W        W32780  10.467   1.918  13.374 -0.2563 -0.2382  0.3479
15934W        W32781   0.916  13.996   0.623  0.0717  0.0167 -0.1802
15935W        W32782   6.440  11.584   0.917  0.0131  0.0986 -0.2589
15936W        W32783   9.679   7.632  15.911  0.1401 -0.1938 -0.0667
15937W        W32784  17.463   6.694   2.149 -0.0852  0.1143  0.0845
15938W        W32785   5.110   8.494   0.471 -0.4078 -0.0948 -0.1021
15939W        W32786   7.178   1.150  11.670 -0.2323 -0.0281  0.1092
15940W        W32787  15.190   3.594   4.998 -0.1860  0.1458 -0.1114
15941W        W32788  13.279  17.948  11.667 -0.0159  0.1291 -0.0054
15942W        W32789   8.688   4.039   3.989  0.1407  0.0408 -0.1167
15943W        W32790   7.335   4.939   0.747  0.1125 -0.0472  0.2346
15944W        W32791   7.082   1.778  14.842 -0.0013 -0.2228  0.0819
15945W        W32792   6.845   5.964   2.306 -0.1356  0.0067  0.1295
15946W        W32793   4.543   2.070  14.261 -0.2215 -0.0146 -0.1512
15947W        W32794   3.736  15.025  13.225 -0.0796  0.3585 -0.0751
15948W        W32795  13.193   0.162  16.453  0.1362  0.3196  0.0519
15949W        W32796   2.394   1.487   0.526 -0.0534  0.0456 -0.0538
15950W        W32797   0.034  17.757   2.903  0.4029  0.0260  0.1296
15951W        W32798   5.952   9.121   3.270  0.0813 -0.0041  0.0690
15952W        W32799  10.441   1.824  15.334  0.1856 -0.5143 -0.2030
15953W        W32800   7.361   3.380   2.735  0.1708 -0.1734 -0.0787
15954W        W32801  13.328   6.968  11.706 -0.0457 -0.0331 -0.0921
15955W        W32802   5.968   1.827  16.433 -0.2349 -0.1625 -0.2373
15956W        W32803  15.071  12.791  12.165 -0.3160  0.0274 -0.2325
15957W        W32804   6.910  12.694   6.553 -0.0744  0.1066 -0.2911
15958W        W32805  15.647   5.225  15.224 -0.0456  0.0660  0.0203
15959W        W32806  15.475  12.200   3.254 -0.0978 -0.2840  0.1530
15960W        W32807   6.983   9.950  12.811  0.0538  0.1311 -0.0458
15961W        W32808  15.738   9.018  11.945 -0.0532  0.0877  0.3036
15962W        W32809  10.107   0.298   3.197  0.2928  0.0515  0.1922
15963W        W32810  13.617   3.180   2.386  0.1370  0.0652  0.2421
15964W        W32811   5.495   0.277   5.183  0.4303  0.0403  0.1450
15965W        W32812  17.257   3.334   4.224  0.1237 -0.2287  0.0189
15966W        W32813  10.557   9.926  13.619  0.1362  0.0576  0.2553
15967W        W32814  15.857   6.491   5.792  0.0635 -0.0333  0.0461
15968W        W32815  15.123   8.442   4.383  0.2818  0.1715  0.3576
15969W        W32816  16.960   2.823  15.642  0.1278  0.1402  0.0426
15970W        W32817   3.356   5.919  13.998  0.0352 -0.0455  0.3181
15971W        W32818   9.026  10.943   0.074  0.2108  0.0359  0.1809
15972W        W32819  16.788  15.034  15.624 -0.0779  0.1658  0.3223
15973W        W32820   5.414   1.346   5.359 -0.1936 -0.2978  0.3980
15974W        W32821   9.901  11.432   1.523 -0.0209  0.0221  0.0949
15975W        W32822  17.888   3.190   0.794 -0.2389 -0.1386 -0.3513
15976W        W32823   4.149  10.409   0.840  0.0062 -0.0491 -0.0992
15977W        W32824   9.833  14.688   4.407 -0.2809 -0.1606 -0.3558
15978W        W32825  14.131   0.735  13.645 -0.2213 -0.1647  0.1098
15979W        W32826   0.038   1.947   1.010  0.3908 -0.3360 -0.0455
15980W        W32827   7.793   2.514   5.064  0.2626  0.0798  0.0138
15981W        W32828   3.567   4.553  15.688  0.0758  0.1241 -0.1590
15982W        W32829  17.888   9.726  13.472 -0.0720 -0.1070  0.1466
15983W        W32830   0.739  16.790  13.457 -0.1692 -0.1611 -0.0826
15984W        W32831  17.874  12.278   3.719  0.1608 -0.2047  0.0945
15985W        W32832   3.979   8.707   5.938 -0.1463 -0.0292 -0.1313
15986W        W32833   0.268  10.837  13.066  0.1418  0.0520  0.2532
15987W        W32834  15.728  17.309  16.686  0.3497 -0.4947 -0.0438
15988W        W32835   8.183   3.596   5.341 -0.0732 -0.0130  0.0349
15989W        W32836   1.863   0.211  14.914  0.2290 -0.0418  0.1745
15990W        W32837   1.868   2.453  12.085 -0.0205  0.2400 -0.0897
15991W        W32838  17.157   8.412  15.082  0.1533  0.0986 -0.1410
15992W        W32839   3.056   5.315   0.401 -0.0919 -0.0653 -0.1313
15993W        W32840   5.863  14.426  12.892  0.1703 -0.0144 -0.0307
15994W        W32841   0.065   0.730   1.185 -0.1510 -0.1004 -0.0495
15995W        W32842   1.964   6.342   0.046  0.0291 -0.0556  0.4121
15996W        W32843   8.926  11.168   5.407 -0.3413 -0.0539  0.1063
15997W        W32844   4.954   8.486   3.565 -0.1912 -0.0207 -0.0887
15998W        W32845  16.055  10.943   5.665 -0.1607 -0.3424 -0.1315
15999W        W32846   9.323  16.384   5.356 -0.1651 -0.3948 -0.0164
16000W        W32847   3.838   7.187   5.214 -0.0114  0.0016 -0.2035
16001W        W32848   0.360   8.046   0.318 -0.1331 -0.3763 -0.1686
16002W        W32849   4.255   5.037  15.529 -0.1379 -0.0601  0.1518
16003W        W32850   4.611   3.593   3.826  0.1539 -0.3141  0.0081
16004W        W32851   1.334   0.042  14.790  0.3869  0.1288 -0.2158
16005W        W32852  15.685   1.171  14.725  0.2247  0.2712  0.2321
16006W        W32853   2.559  17.898  15.132 -0.2290 -0.1565  0.0287
16007W        W32854   9.232   8.242   4.419 -0.1964 -0.0707 -0.0077
16008W        W32855  16.678  17.746  15.971 -0.0956  0.0716  0.0044
16009W        W32856  14.485   3.412  11.852 -0.4422  0.0876 -0.0994
16010W        W32857  14.016   7.182   6.070  0.3242 -0.3816  0.0586
16011W        W32858  10.375  10.233   2.776  0.0606  0.0114 -0.0559
16012W        W32859   1.355  10.421   0.694  0.1201 -0.3763 -0.0209
16013W        W32860   3.186   0.943  16.435  0.0955 -0.0197 -0.0366
16014W        W32861   5.353   0.585   2.515  0.0721 -0.3991  0.0200
16015W        W32862   4.082  10.856   1.003 -0.2156  0.1254 -0.1469
16016W        W32863   4.460   5.458  13.259 -0.1963  0.1771 -0.0439
16017W        W32864   7.194  13.811   5.275  0.1593  0.2065  0.2020
16018W        W32865   3.491  12.072  12.425 -0.3445 -0.0175  0.1926
16019W        W32866  12.174  16.956  11.623  0.0189 -0.2069  0.0091
16020W        W32867  15.325   4.388  11.952  0.3558  0.0751  0.1749
16021W        W32868  11.045   3.166   0.174 -0.2516 -0.3806 -0.4511
16022W        W32869  10.346  10.730  11.650 -0.0009 -0.1378  0.3392
16023W        W32870   5.208   3.389   1.988  0.0679 -0.0172 -0.2097
16024W        W32871  14.940   0.568   1.053 -0.1355 -0.0856  0.3636
16025W        W32872   0.782  16.048  14.139  0.0073 -0.0719 -0.3201
16026W        W32873  11.529   6.323   5.297 -0.1824 -0.3489  0.0153
16027W        W32874  16.931   6.218   0.563 -0.2361 -0.0068  0.0385
16028W        W32875   6.670   0.616  16.486 -0.2354  0.1788 -0.3454
16029W        W32876   6.379   9.285   0.770  0.0929  0.2609 -0.1103
16030W        W32877   1.820  11.935   0.606  0.2709 -0.0926  0.0716
16031W        W32878   2.895   8.733  14.499 -0.1880 -0.1471 -0.1680
16032W        W32879   7.539   8.126  11.609 -0.0423  0.2962  0.3850
16033W        W32880   0.451   2.830   0.029  0.0809 -0.1956  0.0922
16034W        W32881  14.950  11.904   5.364  0.2104 -0.1025 -0.1385
16035W        W32882   4.281  10.211  12.289  0.0369 -0.1116  0.3600
16036W        W32883  17.210  12.600   4.008 -0.1870  0.3711 -0.1895
16037W        W32884  10.204  12.694   4.654 -0.1911  0.1616  0.3021
16038W        W32885  16.523   6.682  11.650  0.0270  0.0686  0.0760
16039W        W32886  14.849   7.434   1.886  0.0704 -0.1702  0.3753
16040W        W32887  13.197  16.780  13.554 -0.0125  0.0389  0.2498
16041W        W32888   4.198  17.590   2.088 -0.0923 -0.1995  0.2457
16042W        W32889   9.886  15.691   5.446  0.2585 -0.2408 -0.0585
16043W        W32890   8.006   6.233   3.655 -0.1045  0.0367  0.0303
16044W        W32891   4.162   8.111   3.620 -0.0045  0.0059 -0.0651
16045W        W32892  15.478  10.334   2.462  0.1022 -0.3007 -0.1375
16046W        W32893  16.388  10.823  15.661  0.2046  0.0758  0.0096
16047W        W32894   1.960  10.908  15.685  0.6252  0.0342 -0.3881
16048W        W32895   9.397  15.161   3.216 -0.0487  0.1002 -0.0365
16049W        W32896   2.641  15.384  14.489 -0.1998  0.0186 -0.1588
16050W        W32897   8.085  17.362  15.437 -0.0081  0.1630 -0.0631
16051W        W32898  10.766  10.375   0.757  0.0969  0.1948 -0.1000
16052W        W32899  12.400   9.636   4.010 -0.1635  0.2897  0.0659
16053W        W32900   3.922  12.426  13.389  0.1302  0.0085  0.1219
16054W        W32901   1.796  14.241  14.881  0.2260  0.0785  0.2552
16055W        W32902   4.778   9.144   2.227 -0.1010 -0.1299 -0.1149
16056W        W32903  15.787  17.678  15.889  0.0618  0.0846  0.3508
16057W        W32904   8.014  16.769   3.417  0.1264  0.0418  0.0001
16058W        W32905   1.317   6.289  14.544 -0.1241 -0.1496 -0.2627
16059W        W32906  12.832  16.887   2.669  0.0740 -0.1549  0.2075
16060W        W32907  13.392   3.343  12.790 -0.0021  0.0712  0.0070
16061W        W32908  16.056   8.438   0.702 -0.2084 -0.1673 -0.0896
16062W        W32909   5.355   0.358   3.677 -0.2845 -0.1975  0.0874
16063W        W32910   1.728  13.710   2.342  0.0554 -0.2050 -0.2211
16064W        W32911   7.579   0.400   3.436  0.1918 -0.0438 -0.2701
16065W        W32912   2.543   6.956   2.889  0.2973  0.2877  0.1466
16066W        W32913  13.192  10.817   3.084  0.3885 -0.1193 -0.0503
16067W        W32914   2.146   7.171   1.771  0.0830 -0.0572 -0.5019
16068W        W32915  17.859   7.201  14.238 -0.0217 -0.0198  0.1668
16069W        W32916  11.804   9.459   5.053  0.2084  0.2188 -0.0400
16070W        W32917  16.213   9.759  15.274 -0.1084 -0.0038 -0.1369
16071W        W32918  14.041   2.772  12.306 -0.4945  0.0811 -0.2028
16072W        W32919   9.449  14.332   5.718 -0.2952  0.1906  0.1170
16073W        W32920   3.710   6.305   3.569 -0.3615 -0.0111 -0.1209
16074W        W32921   4.562   3.264  11.697  0.0295  0.3548 -0.1358
16075W        W32922   9.273  13.784  11.948 -0.1097 -0.1042 -0.2357
16076W        W32923   3.451   2.969   2.813  0.1657  0.2432  0.1393
16077W        W32924  13.007   2.315   4.124 -0.3004  0.4013  0.3841
16078W        W32925   3.043   5.346  15.096 -0.3507  0.1662  0.0866
16079W        W32926   5.857   9.990   3.382 -0.1815 -0.1346  0.1751
16080W        W32927  12.448   4.869   5.039  0.0977 -0.0681 -0.1568
16081W        W32928  14.109  15.792  12.917  0.2835  0.0993  0.1603
16082W        W32929   3.975   9.420  14.749  0.2543 -0.1238  0.4579
16083W        W32930  16.016   6.781   4.314 -0.0005  0.0787 -0.1071
16084W        W32931   7.850  10.279  13.113 -0.0079  0.2098 -0.0133
16085W        W32932   8.277   4.845  13.346  0.2787  0.4169  0.1616
16086W        W32933   5.300  15.242   2.712 -0.1016 -0.1460  0.2543
16087W        W32934   5.563  13.388  15.669 -0.2824 -0.2653  0.0787
16088W        W32935  12.632  14.459   1.936  0.0201  0.1098 -0.0647
16089W        W32936   1.358   0.937   2.834 -0.1714 -0.2350  0.0390
16090W        W32937  17.734  15.317  12.595  0.2344  0.1820  0.1453
16091W        W32938   2.510  12.646   2.209  0.1720  0.2192 -0.1920
16092W        W32939   9.558  16.772   4.643  0.0356 -0.1745  0.0163
16093W        W32940  10.562  11.004   0.961  0.1139 -0.4008 -0.0523
16094W        W32941  18.034   0.120   0.691 -0.2144 -0.0283  0.0054
16095W        W32942   6.030  15.293  15.045  0.3656 -0.2298  0.3536
16096W        W32943   2.611  14.894   1.902 -0.3864 -0.0070  0.3545
16097W        W32944   0.120  11.644  16.107  0.0699 -0.0153 -0.1674
16098W        W32945  16.321  13.509   4.046  0.3392  0.0303  0.0080
16099W        W32946  11.443  13.515  15.733  0.4546  0.1820 -0.0241
16100W        W32947  12.177  17.487   1.761 -0.2457 -0.1634  0.2524
16101W        W32948   4.096  14.268  12.037 -0.0560 -0.0000 -0.1350
16102W        W32949  11.322  13.151  14.472  0.0146  0.0125 -0.2153
16103W        W32950   4.255  16.451   4.755  0.1879  0.2336  0.0870
16104W        W32951   4.383   2.559  13.217  0.1503 -0.0768 -0.3628
16105W        W32952  10.539  14.775   2.834 -0.1570 -0.4616  0.0252
16106W        W32953   9.776   7.543   3.080  0.1813 -0.2892  0.0697
16107W        W32954   6.002   8.863  12.152  0.2187  0.2401 -0.0857
16108W        W32955   7.883   5.277   3.874 -0.0743  0.0548  0.2142
16109W        W32956  17.001   7.849   4.331 -0.0631 -0.0032 -0.0004
16110W        W32957  15.573  16.378  15.284  0.0218 -0.0388  0.1604
16111W        W32958  10.499  13.578  12.640  0.0047  0.1536  0.1678
16112W        W32959  11.434   2.483   6.253 -0.4921  0.1534  0.1301
16113W        W32960   8.810   7.553   5.156 -0.2047  0.0041  0.1686
16114W        W32961   2.795  15.848   1.978  0.3541 -0.2023  0.1885
16115W        W32962   0.430  12.664   1.808  0.1569 -0.0417  0.1114
16116W        W32963  14.602  11.237   0.939  0.1530 -0.0755  0.4687
16117W        W32964   5.805   3.354   4.623 -0.0756 -0.1626 -0.0969
16118W        W32965  17.408  13.097   2.392 -0.2758 -0.0859 -0.0112
16119W        W32966   1.321   2.985  11.465 -0.0793  0.0740  0.0616
16120W        W32967   1.168  10.461   2.869 -0.0336 -0.0789  0.3273
16121W        W32968  10.618   0.531  13.337  0.1966  0.1687 -0.2062
16122W        W32969   5.471   5.031  15.005  0.1339 -0.2349  0.1336
16123W        W32970  11.847  17.455  14.627  0.1584 -0.1711 -0.1074
16124W        W32971  11.256  17.920  13.020  0.0775  0.0174 -0.2699
16125W        W32972   6.203   3.139   4.340  0.1442 -0.1399  0.2516
16126W        W32973  17.519  10.327  13.155 -0.2365  0.1642 -0.2780
16127W        W32974  12.821   8.991   2.255 -0.1263  0.0076 -0.1395
16128W        W32975   1.489   2.120   1.597  0.0668 -0.0263  0.0430
16129W        W32976   9.009   7.399  11.790  0.0084  0.0172 -0.0658
16130W        W32977   3.137  11.756  13.790 -0.1741 -0.0030  0.0390
16131W        W32978   2.715  11.754   5.184  0.1861  0.1828 -0.0263
16132W        W32979   1.295   3.295  15.235  0.1390 -0.0247  0.0604
16133W        W32980   7.166   2.813   1.790  0.2588  0.1324  0.0904
16134W        W32981  11.109   0.190  14.888  0.2497 -0.5945 -0.1304
16135W        W32982  12.778  17.783  14.210 -0.2498 -0.2162 -0.3303
16136W        W32983   0.147   3.349   3.342 -0.0536  0.0468 -0.0233
16137W        W32984   7.214  17.125  15.848  0.0596 -0.0937 -0.1114
16138W        W32985   3.067   8.717   6.270  0.1089  0.2283  0.1932
16139W        W32986  15.902   8.459   1.830 -0.2551  0.0551 -0.1346
16140W        W32987  13.283   2.197   0.907  0.0358  0.0682 -0.2292
16141W        W32988   5.376  15.199   4.106 -0.1987  0.0640  0.1941
16142W        W32989  17.243   4.537   1.246 -0.1212  0.1238  0.0665
16143W        W32990  11.377   4.664   0.845  0.1086  0.0223 -0.0443
16144W        W32991   7.413   3.141   0.402 -0.0061  0.1350 -0.0002
16145W        W32992   9.959   2.263  12.035 -0.2119 -0.0672 -0.1860
16146W        W32993  11.651  14.515   1.987 -0.0397  0.1376  0.1468
16147W        W32994   6.067   1.282   3.333 -0.3255  0.3093 -0.1996
16148W        W32995   1.650   6.262  11.685  0.0471  0.1308 -0.1891
16149W        W32996  15.989  12.816   0.799 -0.0436  0.0600 -0.0579
16150W        W32997  13.726   2.913   1.421 -0.1451 -0.0306  0.0441
16151W        W32998   0.162  14.584  11.874 -0.2686 -0.0992 -0.1650
16152W        W32999   0.637   8.599   3.406  0.2065 -0.0428  0.1621
16153W        W33000  15.096  15.897  10.615 -0.0727 -0.0074 -0.2244
16154W        W33001   8.236   5.099   4.243 -0.0200 -0.1546  0.1751
16155W        W33002  17.948   9.616  15.384  0.4029 -0.1775  0.0288
16156W        W33003  10.978  15.152  13.470 -0.0325  0.1407 -0.0573
16157W        W33004   1.632   4.064   5.121 -0.1641 -0.0227  0.0055
16158W        W33005   1.060   0.905  15.878 -0.0967  0.0861 -0.0304
16159W        W33006   2.204  10.562  16.392  0.2644  0.0349  0.0218
16160W        W33007   3.117   7.185  13.320 -0.0274  0.1212 -0.0720
16161W        W33008  16.794  13.128  14.225  0.0250  0.0454 -0.1395
16162W        W33009   8.883  13.425   3.417  0.3498  0.1082 -0.1741
16163W        W33010   3.765   7.449  15.430  0.0346  0.1597  0.2786
16164W        W33011  10.094   3.094   2.163 -0.1758  0.0483 -0.0804
16165W        W33012   3.325   2.030   4.658  0.2433  0.4100  0.0007
16166W        W33013  15.433   7.597  14.830  0.3058  0.0044 -0.0784
16167W        W33014   1.231   5.102   3.683  0.0277 -0.0295  0.0672
16168W        W33015   3.989   8.555   4.774 -0.1001  0.0517  0.3770
16169W        W33016   4.598  11.974   4.106  0.2178  0.0659  0.0300
16170W        W33017   3.840   6.783   3.379  0.2745  0.4146  0.0604
16171W        W33018   9.180   5.637  11.756  0.3070 -0.0114  0.0321
16172W        W33019  15.291   1.331   3.382 -0.0277  0.2261  0.2613
16173W        W33020  17.344   7.037  16.213 -0.0299  0.0759  0.3612
16174W        W33021   5.547   3.679   2.638 -0.1625  0.1971  0.2407
16175W        W33022  16.046   9.885   4.910 -0.1412 -0.0533  0.0447
16176W        W33023   1.043   3.929   1.889  0.0565  0.0670  0.1095
16177W        W33024  14.767   7.299  12.070  0.0450  0.3365 -0.0669
16178W        W33025   0.827  14.560   0.627 -0.0194  0.2400  0.0786
16179W        W33026   0.916   8.501   4.040  0.0789 -0.2297  0.0765
16180W        W33027  15.723   4.498   0.993  0.1304  0.1560 -0.0486
16181W        W33028   5.181  14.690  12.564 -0.0766  0.0271 -0.0177
16182W        W33029  12.007  14.554   4.523  0.3146 -0.0644 -0.1497
16183W        W33030  16.737   3.463   6.225 -0.0473 -0.1868  0.0684
16184W        W33031  13.704  17.683  12.699  0.3159  0.0054 -0.0377
16185W        W33032   6.747  13.415  13.873  0.0733 -0.1244 -0.0894
16186W        W33033  17.007  10.939  12.234 -0.0861 -0.5252  0.3480
16187W        W33034  15.641  14.900  15.519  0.0245 -0.2620 -0.2465
16188W        W33035  10.405   9.642   2.420 -0.2480  0.2020  0.1202
16189W        W33036   2.130   4.282  11.913 -0.3762 -0.0591  0.1043
16190W        W33037  15.351   8.073   2.345  0.1452  0.1229  0.1192
16191W        W33038  12.742   7.943   2.730 -0.0495  0.0344 -0.0826
16192W        W33039   1.647  11.522  12.803  0.0689 -0.2242 -0.3749
16193W        W33040   5.611   9.373   2.380 -0.1377  0.2105  0.0057
16194W        W33041  14.909   9.110   2.664  0.0044  0.1212 -0.2765
16195W        W33042   2.280  11.012  14.200  0.0585  0.0131  0.1438
16196W        W33043  14.602  10.985   1.756  0.2729 -0.0313  0.3026
16197W        W33044   0.028   0.242  11.208  0.0384  0.1227 -0.1621
16198W        W33045   7.453   5.705   5.201 -0.2624 -0.2867  0.2477
16199W        W33046   1.919   5.907  15.688  0.0218  0.1622 -0.1046
16200W        W33047  17.705  16.991  16.265  0.2259  0.0129  0.2158
16201W        W33048   7.638   5.900   2.977 -0.4564  0.0869 -0.0342
16202W        W33049   6.843   7.203  12.208 -0.0161  0.0819  0.1879
16203W        W33050   7.664  17.568  12.914  0.0269 -0.1924  0.3004
16204W        W33051  13.743  10.045   2.986  0.1505  0.1244 -0.1706
16205W        W33052  14.538   7.449   2.696  0.1477  0.0004  0.0311
16206W        W33053  17.880   5.904  13.968  0.2226  0.2784  0.1258
16207W        W33054   8.418  15.733  16.505 -0.1122  0.0657  0.1711
16208W        W33055  15.361   3.154  14.389  0.2207 -0.0120  0.2369
16209W        W33056  11.347  16.851  11.141 -0.1881  0.0802 -0.1497
16210W        W33057   8.356   5.152  11.568  0.2272  0.3404 -0.2680
16211W        W33058   1.453   3.400   1.209 -0.1105 -0.0189  0.1079
16212W        W33059   5.853  10.060  11.823 -0.1195  0.0225 -0.3707
16213W        W33060  13.467   4.425   2.499  0.1208  0.1059 -0.1345
16214W        W33061  12.912   2.843   0.852 -0.0979  0.2743 -0.0828
16215W        W33062  16.739   9.116  13.957 -0.1252  0.3349  0.0655
16216W        W33063  11.552  13.624  13.105  0.3168 -0.0481  0.1137
16217W        W33064   8.923   5.065  12.915  0.0265 -0.1879 -0.0216
16218W        W33065   7.898   1.183  12.829  0.0648 -0.0412  0.4244
16219W        W33066  16.329   7.195   1.237 -0.0711  0.1361  0.1287
16220W        W33067   9.729   0.643  12.056  0.0876  0.0542 -0.0363
16221W        W33068   6.385  15.596   2.490 -0.0961 -0.1486  0.2134
16222W        W33069  11.441  15.744  11.393  0.0163  0.2958 -0.0456
16223W        W33070  10.811  17.891  16.520  0.3289  0.2410 -0.3059
16224W        W33071   7.745   4.068   3.766 -0.0387 -0.1241 -0.1687
16225W        W33072  18.005  12.697   5.067  0.3442  0.0110 -0.2757
16226W        W33073   6.096  12.601   5.862  0.3235 -0.1353  0.1861
16227W        W33074  14.428  13.125  15.054 -0.0043  0.4055 -0.1419
16228W        W33075   6.093   5.770  13.218  0.3771  0.1874 -0.1463
16229W        W33076   6.389  15.317  13.896  0.2641  0.1311 -0.2242
16230W        W33077  17.425   3.332  11.492 -0.1205 -0.0654  0.1436
16231W        W33078   9.210  16.426   0.517  0.1231 -0.2965  0.1165
16232W        W33079  17.146  14.284  13.230  0.5700 -0.0170 -0.5649
16233W        W33080   0.990  14.764   2.215 -0.1900 -0.0290  0.0129
16234W        W33081  13.821  17.191   0.852 -0.0909  0.0449  0.1587
16235W        W33082   8.059   6.259  15.915  0.1102 -0.2800 -0.1662
16236W        W33083   6.212   6.710   0.825  0.0716 -0.2054  0.0829
16237W        W33084   7.557  17.102  12.251 -0.0657  0.0821  0.2803
16238W        W33085  12.648  10.502   0.920 -0.1013 -0.1179 -0.2351
16239W        W33086  17.341   8.898   0.180  0.1923 -0.2267  0.0262
16240W        W33087   1.930   8.232   0.437 -0.0215  0.0635  0.1216
16241W        W33088  17.123  10.409   1.924  0.2468 -0.2674 -0.1296
16242W        W33089   7.145  14.188   2.277 -0.0633 -0.3120 -0.0731
16243W        W33090   3.094  10.755   4.538 -0.3811  0.0530 -0.0500
16244W        W33091  10.128  12.973   3.725 -0.1313 -0.2102  0.2408
16245W        W33092  11.541  10.171   2.132 -0.2849  0.0918 -0.1306
16246W        W33093   5.897   0.625  14.814 -0.1756 -0.2207 -0.0721
16247W        W33094  16.831  12.638  14.598 -0.1049 -0.3908 -0.2134
16248W        W33095   5.460   3.318  11.369  0.0927 -0.1121  0.4426
16249W        W33096  16.744  17.441  12.358  0.0178  0.0155  0.2844
16250W        W33097  12.886  13.734  14.847  0.0711 -0.1543 -0.0449
16251W        W33098  17.590   0.824  13.413  0.2070 -0.3431 -0.1213
16252W        W33099  14.609  14.576   2.453  0.0864 -0.1910 -0.0642
16253W        W33100   0.314  15.017  13.061 -0.1788 -0.2797 -0.0099
16254W        W33101   3.396   7.044   3.257 -0.2443 -0.2031 -0.1375
16255W        W33102  13.183  11.450  15.390 -0.1484 -0.1728 -0.0833
16256W        W33103  13.547  12.804   2.745  0.1067  0.2557 -0.4239
16257W        W33104  10.463  13.500   5.657  0.1522  0.0538  0.1775
16258W        W33105  11.061   4.427  12.786  0.0260 -0.1458  0.1975
16259W        W33106   1.975   1.170  11.886 -0.1421  0.2519 -0.0223
16260W        W33107   9.705  12.549  12.975 -0.0185 -0.2703  0.0471
16261W        W33108   9.199   2.698  12.298  0.0385  0.3442 -0.0511
16262W        W33109   7.561  11.534   2.378 -0.1365  0.0528 -0.1501
16263W        W33110   7.700  14.816  12.075 -0.0954 -0.1094  0.2868
16264W        W33111   2.827  13.175   0.252  0.2193  0.3418  0.0379
16265W        W33112   9.220  17.022   4.259 -0.1123 -0.2576  0.0910
16266W        W33113   9.876  10.558  16.658  0.2385  0.3124 -0.1085
16267W        W33114   5.827  14.978   0.473 -0.1154  0.1653  0.0946
16268W        W33115   2.640  15.167   1.486 -0.1365  0.1891 -0.0154
16269W        W33116   7.284  13.993  16.482  0.0861 -0.0591 -0.0999
16270W        W33117   0.696   3.702   1.576 -0.2700 -0.2003  0.0067
16271W        W33118  11.641  17.763  12.772 -0.0806 -0.0618 -0.0072
16272W        W33119  12.711  15.178  15.015  0.1141  0.0804 -0.0805
16273W        W33120  16.632   3.208   1.792 -0.0183  0.1880  0.1716
16274W        W33121   6.328  14.252   0.858 -0.1106  0.0920 -0.0946
16275W        W33122   4.425   2.594  16.248 -0.1315 -0.0428 -0.0880
16276W        W33123   8.063  15.726  11.745  0.3005 -0.1201 -0.4622
16277W        W33124   6.618  15.212   2.341  0.4196  0.2639  0.0665
16278W        W33125  14.789   9.839   5.249  0.1611 -0.0703 -0.4228
16279W        W33126   6.772  13.794   5.672  0.3183  0.2614 -0.0487
16280W        W33127  17.852   2.561  16.030 -0.1890 -0.1596  0.1047
16281W        W33128   7.237   5.299  13.253 -0.2655  0.0538 -0.0967
16282W        W33129   8.834   6.867   3.282  0.0555  0.2318  0.1318
16283W        W33130  14.306   9.089  12.216 -0.0381 -0.1192 -0.0273
16284W        W33131   5.775  11.277  13.510 -0.1428  0.3036  0.3602
16285W        W33132  10.127  12.757   4.194  0.0838  0.1106  0.1355
16286W        W33133   9.656   2.334   2.851  0.1555  0.2620 -0.3192
16287W        W33134  17.764   6.883  12.812  0.1106  0.1619  0.0322
16288W        W33135  16.170  10.808   1.942  0.0277 -0.3830 -0.0507
16289W        W33136   5.508   5.921  12.589 -0.0707  0.0480  0.1186
16290W        W33137   2.748  12.724   3.522 -0.1257  0.2078 -0.3471
16291W        W33138   6.714   4.644  12.774  0.1433 -0.1506 -0.0149
16292W        W33139   4.916   1.775   3.084 -0.0938  0.1022  0.2854
16293W        W33140   3.164  14.720  14.463 -0.2002  0.0002 -0.3799
16294W        W33141   2.708  10.921  13.375 -0.1053  0.3432 -0.2650
16295W        W33142   0.852  16.174   1.521  0.1116  0.4061  0.3704
16296W        W33143  13.786   5.605  11.901 -0.0925 -0.1589 -0.1073
16297W        W33144   9.234  12.211  14.791  0.0134 -0.2321 -0.1257
16298W        W33145  11.317   4.834  15.103  0.0262 -0.0749  0.0203
16299W        W33146  15.837  15.493  15.548  0.0792 -0.2105  0.2770
16300W        W33147  18.002   0.824  15.750 -0.2037 -0.1482 -0.0160
16301W        W33148  10.318   8.127  15.619 -0.1061 -0.1458  0.1457
16302W        W33149   0.779   4.625   4.132 -0.0404  0.0100  0.1270
16303W        W33150   5.087   3.006  13.908  0.0651  0.1426  0.5204
16304W        W33151  15.602   8.144  15.697  0.0261  0.2412 -0.4117
16305W        W33152   6.361   4.467   0.291  0.4184  0.3520 -0.0961
16306W        W33153   4.570   3.697  15.566  0.3601  0.0347  0.0745
16307W        W33154   3.617  12.272   3.241 -0.1531  0.0521 -0.2652
16308W        W33155  11.445   6.000  13.216 -0.0611  0.4263  0.2026
16309W        W33156   0.723  16.175   4.265 -0.2522 -0.0346  0.1164
16310W        W33157   8.920   1.370   5.159 -0.3537 -0.0418  0.5548
16311W        W33158   9.170   6.036  14.787  0.3296 -0.0226 -0.0279
16312W        W33159   8.990   2.128  15.635  0.1049 -0.0598 -0.0050
16313W        W33160   2.372   0.081  15.894 -0.1975  0.0455 -0.3180
16314W        W33161   4.243  14.951   5.371 -0.1940 -0.1851 -0.0922
16315W        W33162   7.946   8.304   4.639  0.1016  0.0066  0.0123
16316W        W33163  12.380  14.471  13.548  0.2882 -0.1518 -0.0471
16317W        W33164   5.324   8.099  12.359  0.1773 -0.0294 -0.0868
16318W        W33165  11.306   7.420   2.112 -0.1742  0.2632  0.1924
16319W        W33166   4.975   2.158   2.232  0.1804  0.0210 -0.1569
16320W        W33167   7.455   9.559  14.384  0.0776 -0.0258 -0.0347
16321W        W33168  17.269  14.486  11.790 -0.0958  0.0266 -0.0943
16322W        W33169   7.260   6.969  12.066  0.1266 -0.1386  0.4429
16323W        W33170   8.209   4.212   3.343 -0.2832  0.1312 -0.2775
16324W        W33171   7.997  15.799   3.768 -0.2822  0.1779 -0.0767
16325W        W33172  18.056   6.337   4.411 -0.0871  0.1021 -0.2012
16326W        W33173  11.894  16.451  12.741  0.0254 -0.2420  0.0724
16327W        W33174   9.271  11.811  14.485  0.0237 -0.0604  0.0934
16328W        W33175   4.330   3.959   5.289  0.0004  0.0502 -0.2941
16329W        W33176   9.745   6.832   2.350  0.0486 -0.3146 -0.1136
16330W        W33177  11.880   4.876  11.462 -0.0708  0.1372 -0.1488
16331W        W33178   7.202  11.295   2.538  0.1475  0.1186  0.0519
16332W        W33179  11.113   9.264   3.781 -0.0232  0.2111 -0.0789
16333W        W33180  13.089  11.413  12.348  0.1148 -0.1654  0.0852
16334W        W33181  12.031   0.814   0.256  0.1010 -0.3666  0.1760
16335W        W33182   3.140  13.389  12.316  0.1518  0.1330 -0.0320
16336W        W33183   8.478   2.465  12.323  0.1216 -0.0279  0.2014
16337W        W33184   1.115   4.203   3.871  0.2141  0.0041  0.0421
16338W        W33185  15.060  10.062   2.409  0.1480  0.0170  0.3604
16339W        W33186  11.278  16.873   2.558 -0.1104 -0.0444 -0.4472
16340W        W33187   7.335   9.661  12.991  0.0058 -0.1631 -0.0013
16341W        W33188  10.011   0.128  12.820  0.0536 -0.1329  0.1319
16342W        W33189   8.298  17.604   4.677 -0.0413 -0.1069 -0.2595
16343W        W33190  11.082   1.077  14.420  0.1276 -0.0582  0.2351
16344W        W33191  14.366  12.819  13.839  0.1770  0.0550 -0.0756
16345W        W33192   3.242  12.515  12.197 -0.2411  0.4002 -0.2642
16346W        W33193   8.239  10.931  11.680 -0.1161 -0.0356  0.2245
16347W        W33194   6.414   2.427  11.873  0.0710  0.0587  0.3397
16348W        W33195  15.568   8.396   4.603  0.2441 -0.1315  0.1414
16349W        W33196   2.341   3.746  13.190  0.2196 -0.0861 -0.0584
16350W        W33197  16.489   2.922   3.941 -0.0564 -0.2583 -0.0254
16351W        W33198   7.146  10.167   2.517 -0.2314 -0.1444  0.2452
16352W        W33199  10.783   6.007  15.570 -0.0852  0.3831 -0.0581
16353W        W33200  12.588   6.285  13.610  0.1447 -0.0673  0.1296
16354W        W33201   8.119  15.909  12.301  0.0418 -0.2366 -0.0960
16355W        W33202  11.109   7.548   4.113 -0.0001 -0.3129 -0.1771
16356W        W33203   4.584  10.801   2.531 -0.1449 -0.0062 -0.0844
16357W        W33204   7.589   3.022  16.605  0.2218  0.0453 -0.0195
16358W        W33205  14.167  16.321   0.785 -0.2610  0.0466  0.2650
16359W        W33206  16.337   2.119   4.827 -0.1463 -0.1417 -0.1187
16360W        W33207   7.213   8.549  16.592  0.2707  0.1294 -0.2239
16361W        W33208  11.965   1.107   5.254 -0.0365 -0.0364 -0.1576
16362W        W33209  14.115  14.286   1.223  0.2416 -0.2811 -0.1387
16363W        W33210  17.865   0.354  11.667  0.0223 -0.1631 -0.2178
16364W        W33211   0.648   2.108  16.237  0.1572 -0.0835 -0.3041
16365W        W33212   3.174   9.669   6.330 -0.3247 -0.0170  0.1628
16366W        W33213  14.215  15.095   3.025 -0.2624 -0.2069  0.1248
16367W        W33214   4.206   6.146   4.341 -0.0082 -0.2669 -0.3041
16368W        W33215  14.162   8.675  15.881 -0.0729 -0.1854 -0.0645
16369W        W33216  15.243  16.664   2.086 -0.2147 -0.2966 -0.1133
16370W        W33217  14.380   9.270   0.393 -0.1766 -0.3223  0.0508
16371W        W33218  15.689   8.583  15.256  0.0961  0.2026 -0.2443
16372W        W33219   0.294  14.692  16.140 -0.1663  0.1993  0.2633
16373W        W33220   1.942   7.135  16.272 -0.0998  0.1246  0.0147
16374W        W33221   4.464   1.457   1.751 -0.0198 -0.2796  0.0861
16375W        W33222   5.584  16.988   5.645 -0.0578  0.0241  0.1271
16376W        W33223   0.016  17.300   0.662 -0.0817  0.0495  0.1582
16377W        W33224  14.556  15.021  14.486  0.2485 -0.1292  0.1664
16378W        W33225  10.361   6.084  13.408 -0.1698 -0.6182  0.1888
16379W        W33226   9.880   0.813   4.675  0.0744  0.4490 -0.4586
16380W        W33227  11.758   8.829   1.329 -0.4474  0.3890 -0.1010
16381W        W33228   8.434   7.406  13.661 -0.1030  0.2207  0.2210
16382W        W33229   2.306  13.502  11.901  0.4777  0.0942 -0.2095
16383W        W33230   8.263  12.899  13.142  0.0189  0.0644 -0.0498
16384W        W33231  17.633   8.793  14.971 -0.1431  0.0212  0.0180
16385W        W33232  14.187   1.651   4.840 -0.3530  0.1571 -0.1452
16386W        W33233   5.358   2.922   2.061  0.3034 -0.1038  0.3359
16387W        W33234   1.700  12.095  12.123 -0.0706  0.3362 -0.2776
16388W        W33235  13.309  12.085  14.685 -0.1887 -0.2260 -0.0788
16389W        W33236   4.594  17.967   0.700  0.0274  0.6090 -0.0705
16390W        W33237  16.416   7.792  15.169 -0.1493 -0.1753  0.2196
16391W        W33238  11.148   9.422  14.114  0.2599  0.1253  0.0285
16392W        W33239   7.527   9.474  15.924  0.1563 -0.4061 -0.4136
16393W        W33240   4.274  10.251  12.922  0.3306  0.4824 -0.1137
16394W        W33241   9.911   5.037   6.154  0.2007  0.2198  0.1272
16395W        W33242   6.447  14.353   3.545 -0.2607 -0.2202 -0.2214
16396W        W33243   0.864   3.832   3.602  0.0504  0.1340  0.2730
16397W        W33244  17.697   4.980  14.826  0.1905  0.1548 -0.0166
16398W        W33245  14.051  13.781   3.543 -0.1554 -0.2956 -0.0190
16399W        W33246  17.740   1.641   5.786 -0.0476 -0.0031 -0.2664
16400W        W33247   4.312   5.467  16.417 -0.1077 -0.2009 -0.0764
16401W        W33248  14.525   8.876  16.195 -0.1176 -0.2646  0.2651
16402W        W33249   7.300   9.424  15.444  0.1125 -0.0361 -0.0330
16403W        W33250  11.271  13.339   0.118 -0.2915 -0.1739  0.0230
16404W        W33251   0.979   2.333  10.878  0.0949  0.1576  0.1591
16405W        W33252   1.840   3.042  11.415  0.1723  0.3017  0.3143
16406W        W33253   4.766   7.094   5.500  0.1259  0.2065 -0.0259
16407W        W33254  11.055   3.815  12.178 -0.0747  0.2836  0.0019
16408W        W33255  14.340  12.559   2.957 -0.1254 -0.0690  0.1078
16409W        W33256  15.052   7.865  11.710 -0.0241 -0.1932  0.0515
16410W        W33257  16.829  12.738  13.879 -0.2056 -0.1077 -0.1246
16411W        W33258  11.057   5.155   1.659 -0.4050  0.1147  0.0977
16412W        W33259   5.373  14.738   2.801 -0.2211 -0.1364  0.1241
16413W        W33260   4.677  14.496   3.901 -0.0071 -0.0973 -0.0151
16414W        W33261  14.875  12.554  12.586  0.2350  0.0727  0.0378
16415W        W33262   2.395   9.664   2.397  0.1502 -0.1533  0.1435
16416W        W33263  12.074   9.202   5.536 -0.0948  0.1557 -0.1195
16417W        W33264  15.695   1.793  14.923  0.0459 -0.2999 -0.0265
16418W        W33265   9.049   2.689  13.637 -0.2527  0.0561 -0.2534
16419W        W33266  15.840  16.254  12.682 -0.1886  0.0120 -0.2129
16420W        W33267  14.199  16.261  14.838 -0.1893  0.4350 -0.0068
16421W        W33268   0.765   8.161   1.151  0.2046 -0.2292  0.0859
16422W        W33269   9.275   8.002   1.157  0.0567 -0.2992 -0.0021
16423W        W33270   0.308   1.487  13.548 -0.2089 -0.1202 -0.1910
16424W        W33271  13.391  14.752  11.983  0.1936  0.2268  0.1915
16425W        W33272  13.681  16.342   5.199  0.5716  0.0639 -0.1803
16426W        W33273  17.301   8.684  13.242  0.1405 -0.0766 -0.1473
16427W        W33274  15.985   5.212  11.089 -0.2561  0.0221  0.3376
16428W        W33275   0.096  10.672  16.064  0.1673  0.0377  0.0119
16429W        W33276   2.238  15.329   4.638  0.2520  0.0108  0.0215
16430W        W33277   8.489   4.760  14.696  0.3667 -0.2418 -0.5436
16431W        W33278   6.882   2.793   4.915  0.4943 -0.1140  0.0978
16432W        W33279  17.882  16.281   5.095  0.0816  0.1685 -0.2766
16433W        W33280   0.058   6.475  15.340 -0.0678  0.2112  0.0403
16434W        W33281   9.066  17.223  11.043 -0.1357  0.2535  0.1847
16435W        W33282   1.148  10.075  14.852 -0.2007 -0.1181 -0.0355
16436W        W33283   8.739   9.661   1.112  0.2469  0.0936 -0.0607
16437W        W33284  13.706  15.759  10.982 -0.0335 -0.0240 -0.3427
16438W        W33285  14.853   3.952   2.844  0.2755 -0.0684  0.1102
16439W        W33286   3.053  17.866   5.430  0.3353  0.0504 -0.1040
16440W        W33287  10.068   8.996   0.887  0.1100  0.0832 -0.1983
16441W        W33288  14.060  10.046   1.016 -0.1032  0.2205  0.1720
16442W        W33289  16.733  13.719  16.210 -0.2865  0.1830  0.0390
16443W        W33290   0.863  13.317  11.936 -0.1455 -0.2020 -0.0915
16444W        W33291   9.290  12.429  16.263  0.0763  0.1172 -0.1240
16445W        W33292   0.966   1.691   4.592 -0.0573 -0.0991 -0.2958
16446W        W33293  10.986   3.894  15.072 -0.0381 -0.0153  0.2011
16447W        W33294  13.809   5.788  13.764  0.0280 -0.1053 -0.0235
16448W        W33295   9.992   0.980   1.277  0.2204 -0.2218  0.2369
16449W        W33296   1.497   3.718   2.165 -0.3205 -0.1838  0.4081
16450W        W33297   9.149  16.042  14.197  0.1159  0.0799  0.2571
16451W        W33298  15.942   5.617  15.290 -0.0377 -0.2457  0.2664
16452W        W33299  10.487  11.731  14.401  0.2779 -0.2103  0.1038
16453W        W33300   8.851   4.829   4.882  0.1064  0.0215 -0.4975
16454W        W33301  14.167  14.384   0.386 -0.5076  0.0335  0.3602
16455W        W33302  17.622  11.123  14.433 -0.1346 -0.0996 -0.2222
16456W        W33303   6.196  17.446   1.616 -0.0773  0.0796 -0.2595
16457W        W33304  14.949   8.190  16.352 -0.0655  0.0740  0.0730
16458W        W33305  11.189  13.620   1.950 -0.1184  0.1226  0.3402
16459W        W33306  16.911   5.084  12.661  0.2531 -0.2519 -0.2072
16460W        W33307   4.290  10.029   0.567 -0.0282 -0.2563 -0.1555
16461W        W33308   4.794   7.331  12.018  0.0574  0.0232 -0.1571
16462W        W33309   0.143   9.804  14.976  0.0052 -0.2321 -0.2905
16463W        W33310  13.935   5.965   2.124 -0.0292  0.0718 -0.0652
16464W        W33311   0.242   7.773   6.251  0.2287 -0.1675 -0.0762
16465W        W33312   8.051   5.598   5.706 -0.1117 -0.1173  0.1120
16466W        W33313   6.142   6.785  14.152 -0.0472 -0.1912  0.0019
16467W        W33314  17.842  14.235   4.620 -0.0795 -0.3364 -0.2137
16468W        W33315  15.492  17.862  14.318 -0.0236  0.0990 -0.1567
16469W        W33316   7.684  11.698   1.911  0.4919  0.1357  0.0731
16470W        W33317  15.842  11.520  13.235  0.3822 -0.2941  0.0853
16471W        W33318   5.230   4.109   3.492 -0.1857 -0.1666  0.1064
16472W        W33319  10.145  16.344  11.452  0.0498 -0.2952  0.0702
16473W        W33320   1.951  16.359  14.196 -0.1687 -0.1228 -0.1250
16474W        W33321   6.634   5.140  14.479  0.2228 -0.0603 -0.0984
16475W        W33322  15.800  11.632  15.253  0.0072 -0.1065 -0.0096
16476W        W33323   3.519  17.033   1.508  0.0281  0.0918 -0.1986
16477W        W33324  15.232   5.770   5.652 -0.1086  0.3108  0.0979
16478W        W33325  17.942   8.542  15.438  0.1643  0.2658 -0.1250
16479W        W33326   5.315  17.603  11.295 -0.0035  0.2794 -0.0794
16480W        W33327  11.331  13.231   6.255 -0.0053 -0.1175  0.1136
16481W        W33328   1.746  18.030   1.238 -0.0631  0.0456  0.1974
16482W        W33329  15.032  15.742   1.230  0.2174  0.0557 -0.1915
16483W        W33330   6.794   3.054   4.467 -0.1402 -0.0959  0.0337
16484W        W33331   8.198   3.843   3.743  0.0851 -0.0728 -0.0360
16485W        W33332   7.919   7.180   1.955 -0.0129  0.3353  0.2837
16486W        W33333   0.650   3.161  16.304  0.0340  0.1270  0.0048
16487W        W33334   8.326  14.604  14.613 -0.2885  0.0047 -0.0209
16488W        W33335  14.786  13.217   1.137  0.2573 -0.1615 -0.0138
16489W        W33336   2.413   5.455   1.172 -0.2179  0.0520  0.0617
16490W        W33337   4.934  10.282   1.180 -0.2757  0.0759 -0.4321
16491W        W33338   9.104   1.037   3.210 -0.0801  0.0505 -0.0069
16492W        W33339   2.819  15.251   3.623  0.1777 -0.0857 -0.3030
16493W        W33340   7.623   4.487   0.949 -0.0558 -0.2234  0.0366
16494W        W33341  12.624  12.019  13.220  0.2930 -0.1878 -0.1890
16495W        W33342   2.569  12.334   4.940  0.1391  0.0312  0.2859
16496W        W33343   3.990  14.853   2.110 -0.3484  0.0969 -0.0082
16497W        W33344  14.598   7.076  13.217 -0.3845 -0.0004  0.0894
16498W        W33345  11.444   7.636   0.298 -0.4682  0.2273 -0.1578
16499W        W33346  13.912  12.418   4.552 -0.1592 -0.2258 -0.1514
16500W        W33347   1.288   2.755   2.147  0.0551 -0.0632  0.2451
16501W        W33348   4.589   9.620   2.918  0.0676 -0.0257  0.3045
16502W        W33349   6.726   7.968  12.853 -0.0351  0.2578  0.1083
16503W        W33350   2.099  11.964  14.497  0.1219  0.1430  0.1051
16504W        W33351  16.861   8.599  14.691  0.0323  0.0038 -0.0249
16505W        W33352  13.651  15.065  13.520  0.3330 -0.4177 -0.0677
16506W        W33353  11.319  10.662  15.999  0.0888 -0.0309 -0.2444
16507W        W33354  15.034   4.921   5.905  0.0610 -0.4023 -0.0460
16508W        W33355   0.335  18.057   1.004  0.1253 -0.2475  0.1929
16509W        W33356   1.758   5.385   4.475 -0.0355 -0.0487  0.0593
16510W        W33357  13.517   9.292  13.578  0.1079 -0.3517  0.0184
16511W        W33358  13.420  16.931   4.987 -0.1426  0.0797  0.0478
16512W        W33359   4.924   1.614   1.645 -0.1036  0.0864  0.1094
16513W        W33360   0.127  12.708   2.290  0.0190  0.1217  0.0923
16514W        W33361   8.022   4.368  12.686 -0.2283  0.2492  0.1607
16515W        W33362  13.910   1.861  12.113  0.2602  0.0676 -0.2163
16516W        W33363   6.551   6.611  15.650 -0.0562 -0.1395 -0.1387
16517W        W33364  15.059  11.203  16.310  0.0460 -0.0975 -0.2992
16518W        W33365   8.513  15.349   4.984  0.0839  0.1743 -0.1234
16519W        W33366   6.936  10.725  12.158 -0.0449  0.0666 -0.2383
16520W        W33367  12.908   6.337  12.329 -0.3208 -0.1420  0.1992
16521W        W33368   9.189   0.300  13.052 -0.1740  0.1332 -0.2021
16522W        W33369   1.935  17.646  15.690  0.2940 -0.0550 -0.1230
16523W        W33370  13.238  15.414   3.909  0.1041  0.2867 -0.0186
16524W        W33371   4.865  16.632  11.784  0.0922  0.1389  0.1268
16525W        W33372  15.376  16.171  16.670 -0.0332 -0.2004 -0.0931
16526W        W33373   6.654  11.703   1.871  0.0541  0.0815  0.0362
16527W        W33374   8.131   2.091  12.476  0.1252  0.0118 -0.1853
16528W        W33375   8.557   9.850  13.678 -0.2012 -0.0209  0.1447
16529W        W33376   6.830  16.302   5.091 -0.3432 -0.2472 -0.1994
16530W        W33377  15.489  16.857  13.038  0.2442  0.1777 -0.2076
16531W        W33378   9.375  14.245  14.612  0.0132 -0.1160  0.1780
16532W        W33379   4.105   1.808   1.602 -0.0461 -0.2186  0.0578
16533W        W33380   1.469   6.041   4.910  0.1299 -0.0619 -0.0952
16534W        W33381   0.754   9.631   3.092  0.0624  0.3546  0.1949
16535W        W33382   0.182   6.290   1.920 -0.1620 -0.0527 -0.2309
16536W        W33383   3.083  12.743   1.532  0.2237 -0.1221  0.1558
16537W        W33384   5.528  10.533  13.448  0.0733  0.0239 -0.1049
16538W        W33385   7.117  14.091   4.869  0.0845 -0.0167  0.0104
16539W        W33386  14.362  15.838  15.732  0.2372  0.3108  0.1385
16540W        W33387   9.880   1.181  13.347 -0.3100 -0.0552  0.0648
16541W        W33388   0.791  12.159  12.698 -0.2347  0.0753  0.2277
16542W        W33389   9.054   1.551  12.712 -0.4005  0.2563  0.0857
16543W        W33390  13.875  11.553  12.017  0.2881  0.1233 -0.0309
16544W        W33391   5.140  13.470  14.400 -0.1728  0.0088 -0.2004
16545W        W33392   8.095  13.822   0.291 -0.2055 -0.3618 -0.1316
16546W        W33393  11.965  13.547   5.185  0.1049 -0.0082 -0.0974
16547W        W33394   1.867  13.093   4.034  0.1132 -0.0657 -0.0750
16548W        W33395   3.332   8.743  15.839  0.0901  0.0391  0.0887
16549W        W33396   0.002   9.583   2.226 -0.1197  0.0263 -0.0826
16550W        W33397   2.711   1.510   2.721 -0.3339 -0.1820 -0.3704
16551W        W33398   8.245   1.541  12.590 -0.2396 -0.2440  0.0628
16552W        W33399  14.161  17.512   4.115  0.0999  0.0329  0.0916
16553W        W33400   9.169   8.729  13.614 -0.1983  0.0901 -0.3053
16554W        W33401  15.198   2.814  11.854  0.0621  0.1491 -0.2741
16555W        W33402   3.631   1.932  14.809  0.3205  0.2105  0.0549
16556W        W33403   0.763   4.778  12.858  0.1635  0.1683  0.3230
16557W        W33404   1.681   7.465   1.532 -0.0853 -0.0100 -0.4163
16558W        W33405   0.431   8.151  14.200 -0.0042  0.3028 -0.1998
16559W        W33406   0.515  16.693   2.017  0.2485 -0.2861  0.1333
16560W        W33407  12.621  15.630   3.333 -0.0866  0.1002  0.0583
16561W        W33408  14.274  11.653   0.976  0.0004  0.1451  0.1693
16562W        W33409  17.366  10.638   3.503  0.0635 -0.3122 -0.3299
16563W        W33410   9.680  17.090   3.619  0.1090 -0.0703 -0.0484
16564W        W33411   0.645  14.136  13.608  0.4214  0.2734 -0.1154
16565W        W33412   4.867   3.324  15.826 -0.2467 -0.1156  0.5582
16566W        W33413   4.075  10.116   3.675  0.0841 -0.0820  0.1532
16567W        W33414  11.379   3.470   0.365  0.0973  0.0646 -0.0247
16568W        W33415   3.425  12.637   5.898  0.1511 -0.1450 -0.0170
16569W        W33416  13.580   0.967  14.580 -0.2866 -0.1561 -0.0173
16570W        W33417  12.805  10.298  16.473  0.3794  0.0903  0.0937
16571W        W33418  14.341  10.467   1.720 -0.2106  0.4004 -0.1541
16572W        W33419  17.692  13.358   3.073 -0.2099 -0.0325  0.0569
16573W        W33420  13.597   8.172  16.452 -0.1704 -0.1265  0.2197
16574W        W33421   5.604  10.299   3.694  0.0335 -0.0798 -0.0122
16575W        W33422   0.836  14.774   0.160 -0.1985 -0.0980  0.1929
16576W        W33423   4.240   3.590   2.097 -0.0934  0.0530  0.2890
16577W        W33424   1.286  14.513  15.797 -0.1326 -0.0730  0.1713
16578W        W33425   0.060   9.616  14.499  0.0702 -0.1275  0.2330
16579W        W33426   8.538   5.340   2.527 -0.0126  0.0634 -0.0082
16580W        W33427   9.311   1.134  15.444 -0.1296  0.1805 -0.0005
16581W        W33428   4.293   2.037  13.833 -0.1089  0.0454 -0.0186
16582W        W33429   3.529  14.181  12.653 -0.2017  0.0847  0.2123
16583W        W33430   7.529   3.388   1.243  0.0248  0.0264 -0.0710
16584W        W33431   6.649   3.352  11.737  0.2180 -0.0701  0.0535
16585W        W33432   9.202  15.917   0.303  0.2325 -0.4133  0.0868
16586W        W33433  12.265   3.189  12.141  0.2566  0.0650  0.0837
16587W        W33434   1.179  15.474  14.711  0.3153  0.2240  0.0921
16588W        W33435   1.882   4.972  16.674  0.1862  0.0342  0.1551
16589W        W33436  12.372   1.807   2.832  0.0422  0.1904 -0.2769
16590W        W33437  15.042  11.613   3.594  0.0252 -0.0859  0.2057
16591W        W33438   3.290   9.318   1.866  0.1299 -0.2132 -0.0568
16592W        W33439  10.932   6.436  15.702 -0.1025 -0.0135 -0.1240
16593W        W33440  11.189  13.343  15.255  0.0309  0.2532  0.0711
16594W        W33441   3.580   9.805  14.649 -0.2266  0.1460 -0.2534
16595W        W33442   5.307  16.089  13.199 -0.1128 -0.3996 -0.1779
16596W        W33443   6.652   1.984  12.979 -0.3705  0.0302  0.3028
16597W        W33444   8.527   6.121  11.992 -0.1274 -0.1333  0.0726
16598W        W33445  11.885   7.959   0.019 -0.0473 -0.1831  0.0505
16599W        W33446   4.857   5.051  14.405 -0.0491 -0.1073  0.0008
16600W        W33447   1.778   3.287   5.546 -0.3634 -0.1013 -0.0662
16601W        W33448   1.822   7.083   6.245  0.0886 -0.0846  0.2466
16602W        W33449  13.001  10.890  12.324  0.2480  0.0214 -0.2780
16603W        W33450   1.566   7.001   1.325  0.0031 -0.0096 -0.0489
16604W        W33451   4.956  15.568  12.306  0.0777 -0.0319  0.1101
16605W        W33452   9.300   8.139   2.682 -0.1669 -0.1847  0.0707
16606W        W33453  15.772  17.931   3.041  0.0769 -0.0903  0.1202
16607W        W33454   5.604   3.359   3.782 -0.1032 -0.1506 -0.0296
16608W        W33455  12.562   4.390  13.002 -0.0573 -0.0699 -0.0935
16609W        W33456  17.022   5.476  12.342  0.0585 -0.0293  0.1389
16610W        W33457  14.393  17.972   4.296  0.1274  0.2525  0.1092
16611W        W33458  16.806  14.433  12.588  0.0806 -0.0237  0.1322
16612W        W33459  10.184  12.378   0.861 -0.0913  0.0483  0.4761
16613W        W33460  11.024   2.664   2.142  0.0103  0.1122  0.1204
16614W        W33461  16.861   3.121   0.174 -0.1594  0.1493 -0.1422
16615W        W33462  17.808   4.924   3.010  0.0041 -0.0655  0.0622
16616W        W33463  14.068   1.004   2.251  0.0026 -0.0273 -0.0927
16617W        W33464   7.348  12.940  14.380 -0.0692  0.1115 -0.1049
16618W        W33465   9.115   6.995  13.021 -0.3109  0.0034  0.0597
16619W        W33466  15.559  17.470   1.271  0.0275  0.0693  0.1618
16620W        W33467  10.417  10.606  16.622  0.0099 -0.2466  0.0807
16621W        W33468   6.216   7.732   2.252  0.0800  0.0605  0.1405
16622W        W33469   8.480  15.026  14.250 -0.1322  0.0401  0.1527
16623W        W33470   6.578   7.374   3.293 -0.1447  0.1588 -0.0472
16624W        W33471  12.024  15.303   3.305 -0.4929 -0.2219  0.1529
16625W        W33472  13.324   8.500   2.548  0.1637 -0.0577 -0.0970
16626W        W33473   4.523   4.694  14.312  0.1934 -0.1741  0.0819
16627W        W33474  17.129  16.379  11.650  0.1054  0.0750 -0.2229
16628W        W33475   9.531  14.868  15.006  0.2372  0.5943  0.1466
16629W        W33476  16.708   8.150   2.865  0.0819 -0.2849  0.0067
16630W        W33477   8.794   4.147  10.593  0.0666 -0.1313 -0.1291
16631W        W33478   0.238  10.957   3.429 -0.0587  0.0614 -0.0573
16632W        W33479   8.064  16.371  12.747  0.3268 -0.0490  0.1255
16633W        W33480  15.085  17.446   2.972  0.0397 -0.3313 -0.2127
16634W        W33481   0.189   5.051   5.302 -0.1166 -0.1958 -0.0987
16635W        W33482  14.392   3.811   3.610 -0.0222  0.0381 -0.1275
16636W        W33483   4.214   4.106   2.646 -0.3831  0.2299  0.0090
16637W        W33484   9.406  15.875  16.369 -0.0223 -0.3453 -0.0767
16638W        W33485  11.276   5.530   4.492  0.0097  0.2864 -0.1112
16639W        W33486  16.748   2.023   0.764  0.1077 -0.1265 -0.1118
16640W        W33487  17.823  11.181  15.378 -0.4441  0.0018  0.2256
16641W        W33488  12.931   2.013   0.459  0.0127 -0.0442  0.0869
16642W        W33489  17.186  15.771   1.866 -0.0671 -0.0732 -0.0572
16643W        W33490   3.032   6.988  12.224  0.0964 -0.0165 -0.0539
16644W        W33491   7.526  14.018   3.504 -0.0161  0.0231 -0.0855
16645W        W33492   1.955  15.666  10.663  0.0167 -0.0534  0.0577
16646W        W33493   0.151   5.183  15.953  0.0115  0.1984 -0.2812
16647W        W33494   3.376  15.856   2.927  0.0946 -0.2132 -0.2713
16648W        W33495  17.592  13.314   0.052  0.0359  0.0234  0.0630
16649W        W33496  13.342   3.795  12.587 -0.0202 -0.2078 -0.3562
16650W        W33497  15.777  16.123   1.039 -0.1041  0.1623  0.0201
16651W        W33498   8.013   8.122   0.250  0.2372 -0.1852  0.0617
16652W        W33499  18.022  10.534   2.258 -0.2233  0.0421 -0.1788
16653W        W33500   6.532   0.129   1.711 -0.0316 -0.0432 -0.1830
16654W        W33501   1.559   3.236   2.052  0.0095 -0.1082  0.1839
16655W        W33502   7.430  13.009   3.564 -0.5382 -0.0883  0.1777
16656W        W33503  12.699   7.596  14.822  0.2379 -0.1570  0.2448
16657W        W33504  11.014   2.451   4.621 -0.2898  0.1126  0.1111
16658W        W33505   0.431  12.474  15.446 -0.0185 -0.1852  0.2186
16659W        W33506  13.687   0.771  11.182  0.1149 -0.1869 -0.1345
16660W        W33507   1.407  17.074   0.807  0.1200  0.0095 -0.0527
16661W        W33508   2.283   0.941   0.425  0.1944  0.1471  0.3865
16662W        W33509   7.306   1.441  13.985 -0.3576 -0.4439 -0.2150
16663W        W33510   8.618   0.177   1.332 -0.0490 -0.0898 -0.2337
16664W        W33511   4.760   3.390  14.214  0.4074 -0.1778  0.2798
16665W        W33512   9.130   5.954  16.161 -0.1418 -0.1481  0.0450
16666W        W33513   8.771  17.403  16.591 -0.0041 -0.1016 -0.0725
16667W        W33514   0.004  15.789   0.596  0.0469 -0.0485 -0.3576
16668W        W33515   4.920   2.819   2.289  0.0449 -0.0914 -0.0762
16669W        W33516   0.559  11.325  14.805  0.0526  0.0194 -0.2333
16670W        W33517   4.252  15.950   2.846  0.1253 -0.0407  0.1149
16671W        W33518   9.404   0.927  11.820  0.0140  0.3273 -0.0041
16672W        W33519   8.590  14.010   0.524  0.0341  0.2741 -0.1333
16673W        W33520   0.662  12.612  13.225  0.0522  0.2437  0.2108
16674W        W33521   9.625   6.453   5.162 -0.0506 -0.2381  0.2714
16675W        W33522   6.760  16.468  15.039 -0.1091  0.1426 -0.3472
16676W        W33523   9.805  13.774   6.358 -0.0401  0.0441  0.0851
16677W        W33524   2.934   7.242   1.373  0.0791 -0.0624 -0.2933
16678W        W33525  14.482  10.307  14.486  0.0704 -0.0316 -0.2668
16679W        W33526  10.627  14.422  15.151  0.1096  0.0203  0.2038
16680W        W33527  17.190   6.916   1.596  0.1727  0.2963 -0.2569
16681W        W33528  12.549  13.683  16.303  0.1557 -0.0561 -0.2735
16682W        W33529  11.583  15.112  16.446  0.0044  0.0499 -0.3167
16683W        W33530   1.201   2.702   5.066  0.0532 -0.1623  0.0904
16684W        W33531  17.721   3.058  15.003  0.4714  0.0546 -0.0868
16685W        W33532  12.876   7.804  13.330  0.0693 -0.1874 -0.2768
16686W        W33533   8.891  10.386   1.677 -0.0831  0.0939 -0.1682
16687W        W33534   9.711  17.552  14.546  0.1881 -0.0033  0.0623
16688W        W33535   0.006  12.264  13.739  0.4008  0.0873  0.0187
16689W        W33536   7.575   4.869   1.240 -0.1385 -0.0656  0.1618
16690W        W33537  14.959   4.456  14.086  0.0418  0.0277  0.3392
16691W        W33538   2.081   5.937  13.577  0.2928  0.1736  0.0259
16692W        W33539   3.943   6.030   5.687 -0.2331 -0.1468  0.1894
16693W        W33540   8.846  15.260   4.569  0.3775  0.2776  0.0740
16694W        W33541   8.751   2.452   3.895 -0.2476 -0.1037 -0.0701
16695W        W33542  10.574  12.791   0.133 -0.3948  0.1653  0.0524
16696W        W33543   9.885  12.932   0.848 -0.1365 -0.2108  0.0335
16697W        W33544  15.990   7.573  13.709 -0.0265 -0.1505  0.0097
16698W        W33545   4.664  16.668   4.675  0.0783 -0.1023 -0.0979
16699W        W33546  17.932   6.832   4.931 -0.1369 -0.2019 -0.3554
16700W        W33547  12.602   8.023  12.851  0.1123 -0.0334 -0.5337
16701W        W33548  15.716  12.772   1.212 -0.0414 -0.0865 -0.0400
16702W        W33549  11.052   0.172   1.906 -0.4369 -0.1354 -0.0093
16703W        W33550  16.432   8.334  12.952 -0.2392 -0.2425  0.0903
16704W        W33551   4.157  12.851  13.211 -0.1239  0.0282  0.3931
16705W        W33552   5.045   5.365   2.600  0.1858  0.1590  0.0649
16706W        W33553   5.410   5.016  11.457 -0.3082  0.2108 -0.2059
16707W        W33554   6.595   0.185   1.199  0.3148  0.1580  0.2054
16708W        W33555   5.317   4.748   5.161  0.1886 -0.0508  0.0721
16709W        W33556  13.869   9.602  13.392 -0.0353 -0.0520  0.1786
16710W        W33557  15.092  17.305  12.410 -0.0520 -0.1143  0.2179
16711W        W33558  17.407   7.124  13.207  0.0070 -0.3217 -0.0220
16712W        W33559  16.035  12.807   3.045  0.0635 -0.0091 -0.2807
16713W        W33560  17.358  15.368   5.153 -0.0768  0.1249  0.0084
16714W        W33561  12.734   1.527   0.468 -0.4041 -0.2396  0.0818
16715W        W33562   5.666   3.762   1.205 -0.1173 -0.0850  0.1391
16716W        W33563   3.845  15.968  13.724  0.2322 -0.3066  0.0129
16717W        W33564  17.496  13.292  12.840 -0.4138 -0.3094  0.3577
16718W        W33565   6.267  17.026  12.273 -0.1560  0.0320 -0.0336
16719W        W33566   8.252   3.184   4.567 -0.1364 -0.0845 -0.0103
16720W        W33567  14.749  13.039  15.953  0.3483  0.1914  0.2602
16721W        W33568   2.808  17.800   4.837 -0.1976  0.3047 -0.4616
16722W        W33569  12.104   5.438   3.278 -0.0864  0.1830 -0.0720
16723W        W33570   5.201   6.656  13.733 -0.0816  0.1787  0.3696
16724W        W33571  13.059   3.835   5.799 -0.1456  0.0797  0.2012
16725W        W33572  12.504   1.355  15.816 -0.2797  0.1053 -0.3414
16726W        W33573  15.368  15.993  13.554 -0.0239 -0.1272 -0.2065
16727W        W33574  12.797   3.994   5.388  0.3377 -0.1279 -0.1126
16728W        W33575   0.438  16.383  11.501 -0.3538  0.0203 -0.4807
16729W        W33576   6.010  11.304  15.531  0.1156 -0.3991  0.2689
16730W        W33577   5.411   0.214  14.249 -0.0777  0.2574  0.1078
16731W        W33578  17.563   8.239   3.143 -0.0115  0.0215 -0.2983
16732W        W33579   6.479   2.260   4.694 -0.0922  0.0446 -0.1977
16733W        W33580   4.264   5.426  15.881 -0.0534  0.1002  0.1809
16734W        W33581   3.401  16.402   2.637  0.1605 -0.1814  0.0269
16735W        W33582  11.421   1.546  14.228  0.4147  0.0032 -0.1550
16736W        W33583   5.415   9.635  13.274 -0.1100  0.3202  0.0297
16737W        W33584  17.314   5.509  14.309 -0.5689  0.0113 -0.1565
16738W        W33585   1.469  17.360   4.729  0.0396  0.2595  0.0090
16739W        W33586  15.680  15.303   3.792 -0.0517  0.1272 -0.1262
16740W        W33587  12.089   6.766   3.381  0.2000  0.2053 -0.0392
16741W        W33588  15.488   5.854   0.547  0.0015  0.1060  0.0510
16742W        W33589  12.457  11.745   4.805  0.2730 -0.3166 -0.3271
16743W        W33590   4.908   8.844  14.779 -0.1032  0.0180 -0.1648
16744W        W33591  11.531  11.456  11.842 -0.1965 -0.1375 -0.0392
16745W        W33592   9.768   4.850   3.125 -0.0447  0.2597  0.0328
16746W        W33593  14.037   8.819  16.368  0.1406  0.1318 -0.1344
16747W        W33594  12.635  12.870  14.199  0.1216  0.1061 -0.3697
16748W        W33595   4.558   0.978  14.344  0.1942  0.1090 -0.0376
16749W        W33596   9.285  11.104   5.691 -0.1739 -0.1351 -0.2770
16750W        W33597  15.862  11.648  14.423  0.2456  0.2485  0.1392
16751W        W33598  17.602   8.053  13.838  0.1370  0.0151  0.1768
16752W        W33599  15.422   2.961  15.456 -0.1852  0.1828 -0.1484
16753W        W33600   9.930  13.729  15.813  0.0118 -0.0025  0.1928
16754W        W33601  10.557  13.003  15.950 -0.1107  0.4862  0.0701
16755W        W33602   9.573  16.570   2.903 -0.1417 -0.0446 -0.0806
16756W        W33603  17.253   8.076   3.992 -0.0085 -0.0337  0.1379
16757W        W33604   3.335  17.803  12.408 -0.0323  0.0372 -0.1765
16758W        W33605   5.440   5.545   1.345 -0.0315  0.2139  0.2204
16759W        W33606   3.988  16.883   1.341  0.1275  0.0460 -0.0726
16760W        W33607   8.049  16.349  11.355  0.1887  0.1689 -0.0842
16761W        W33608   2.578   9.231  13.692 -0.1418  0.0933  0.0182
16762W        W33609   1.120  13.743   5.353 -0.1657  0.3074  0.0737
16763W        W33610   7.442   9.976  12.589 -0.0808 -0.0128 -0.2521
16764W        W33611   5.978  10.915   1.591  0.0529 -0.1795  0.0675
16765W        W33612   6.701  14.183  11.930  0.3934  0.3000  0.1204
16766W        W33613  17.411  17.792   4.777  0.2229 -0.2492  0.2086
16767W        W33614   0.505   1.860   5.581 -0.0946  0.4196  0.0167
16768W        W33615  15.572   1.661   1.114  0.0833 -0.2343  0.0968
16769W        W33616  10.667   7.439  15.964 -0.0539  0.0677  0.1002
16770W        W33617   7.618  11.559   0.274 -0.2610 -0.1779  0.1361
16771W        W33618   5.494   8.100  13.644  0.3190  0.1699 -0.0387
16772W        W33619   2.531  17.380   2.459  0.1616 -0.0072  0.0212
16773W        W33620  14.073  17.742   4.620  0.0563 -0.4078 -0.0234
16774W        W33621   9.215  17.842   4.910  0.3197 -0.1398 -0.0601
16775W        W33622   4.751   0.791  15.770 -0.0462 -0.1619  0.1156
16776W        W33623  15.978   9.501   4.048 -0.4606  0.2124  0.1621
16777W        W33624   9.867  14.623  12.827 -0.2171 -0.0115 -0.0260
16778W        W33625   0.993   9.976  15.369  0.3687  0.1093 -0.1903
16779W        W33626   1.794   8.319  15.717 -0.1205 -0.0962 -0.2113
16780W        W33627   9.635   0.469   0.441  0.0478  0.1328 -0.2696
16781W        W33628  15.867  11.441   0.311  0.4236 -0.2206 -0.3355
16782W        W33629   2.052  13.544  15.730 -0.0057  0.2587  0.0530
16783W        W33630   9.036  15.525  14.150 -0.1197 -0.2577  0.2629
16784W        W33631   8.861  10.707  14.761  0.1119  0.1059 -0.0527
16785W        W33632   3.066   9.504   1.132 -0.1468 -0.0482  0.1269
16786W        W33633  13.769  15.301  12.644 -0.0296  0.0088  0.0156
16787W        W33634   0.818  11.782   0.233  0.0165 -0.2236 -0.0792
16788W        W33635   9.809   9.241  12.976 -0.0052 -0.0161 -0.0813
16789W        W33636  12.409  10.918   2.433 -0.1391 -0.0781 -0.1307
16790W        W33637   8.526   2.382   1.674 -0.0596  0.0420  0.1034
16791W        W33638   1.557   2.330  16.269  0.1213  0.0323  0.2148
16792W        W33639   5.635   2.869  14.271  0.1165  0.0701  0.1710
16793W        W33640  16.276  15.909   0.219 -0.0519 -0.3027 -0.3365
16794W        W33641  13.081  10.402   3.763 -0.0806 -0.0599 -0.0700
16795W        W33642  15.765   1.465   0.660  0.1780 -0.3051 -0.0754
16796W        W33643  13.699   1.392  11.952  0.0052 -0.0628 -0.0135
16797W        W33644  16.100   1.821   4.319  0.3498  0.4307  0.5459
16798W        W33645  10.124   9.427  11.630 -0.0792 -0.0278  0.1096
16799W        W33646   9.481   4.803  14.567 -0.3005 -0.2421 -0.2177
16800W        W33647  17.334   0.084   0.197  0.1207  0.0651 -0.1794
16801W        W33648   2.890  13.763  14.140  0.2596  0.1772  0.1500
16802W        W33649   0.163   3.214  13.684  0.1485 -0.0027  0.2246
16803W        W33650  16.426   2.932   0.332  0.0970  0.1321 -0.0234
16804W        W33651   9.014   6.318   2.041  0.1534 -0.1119 -0.1672
16805W        W33652  17.897   5.106  12.518  0.0413 -0.1271  0.1628
16806W        W33653   3.408   5.447  14.654 -0.0794  0.0200  0.2195
16807W        W33654   8.756  17.371  14.144  0.0633 -0.0298  0.2293
16808W        W33655   1.580   7.515  12.114  0.0564  0.0341 -0.3049
16809W        W33656   4.311   7.164   1.261 -0.0094 -0.3488  0.0073
16810W        W33657   7.926  11.939  16.241 -0.1824 -0.0863 -0.2473
16811W        W33658  14.063   9.625  15.816 -0.1542 -0.0710  0.0404
16812W        W33659   8.368  16.694  13.088  0.0375  0.1385 -0.1689
16813W        W33660   1.153   3.687   2.570 -0.0269  0.1787 -0.2081
16814W        W33661   9.262   7.090   2.072  0.0225  0.0068  0.1661
16815W        W33662  15.438   7.009  16.572 -0.3369  0.0099  0.1900
16816W        W33663  14.424  10.164   0.702  0.0446  0.0950  0.3722
16817W        W33664   9.048   0.533  14.410 -0.0053 -0.0561 -0.0933
16818W        W33665   0.191   9.888   4.821 -0.1729  0.3551 -0.2793
16819W        W33666   4.311   9.547  14.373  0.2619 -0.0307  0.0708
16820W        W33667   3.404  10.363   0.456 -0.3854 -0.5772 -0.1923
16821W        W33668   6.412   9.012  12.486  0.2629 -0.0288 -0.0198
16822W        W33669  16.353   3.934  12.730  0.0923  0.0898  0.0756
16823W        W33670  15.059  14.521   0.067 -0.1163 -0.1289  0.0225
16824W        W33671   3.766  15.138  12.186 -0.2305 -0.1482  0.0429
16825W        W33672   9.659  15.576   2.476 -0.3929  0.1537 -0.1210
16826W        W33673  12.648   3.328   2.227  0.0130  0.1246  0.0634
16827W        W33674  13.523  12.931  12.563 -0.2825 -0.1509 -0.0403
16828W        W33675   8.870   3.959  14.258  0.2599 -0.2133 -0.0651
16829W        W33676   5.027  17.254   4.365 -0.1509 -0.0015  0.3644
16830W        W33677   0.162  17.780   0.417 -0.0013  0.0605 -0.1322
16831W        W33678   2.930   3.928  14.873  0.0507  0.0558 -0.1038
16832W        W33679   9.514   2.594   1.807 -0.0381 -0.0451 -0.0776
16833W        W33680  17.308   0.311   3.253 -0.2319  0.3894 -0.0337
16834W        W33681   6.282  17.567  12.881  0.2940 -0.0571 -0.2397
16835W        W33682   6.835  17.336  14.419 -0.0578  0.1748  0.1194
16836W        W33683  10.731  10.992   5.419 -0.0733 -0.0058  0.5023
16837W        W33684  17.736  14.089   4.170  0.3259  0.0359  0.0226
16838W        W33685  17.067   4.404   0.178 -0.2459 -0.0413  0.2618
16839W        W33686   0.303  15.059   2.737 -0.2536 -0.0064  0.1348
16840W        W33687  16.671   1.755   0.354  0.3224 -0.0166 -0.0653
16841W        W33688  12.522  16.848  14.158 -0.2123 -0.0785 -0.2078
16842W        W33689   5.131   7.977  15.514  0.1404  0.3296 -0.1544
16843W        W33690   6.539  13.311   3.238  0.3373  0.0520 -0.0776
16844W        W33691  16.737  16.697  11.872  0.2782  0.0251  0.1013
16845W        W33692  13.013   3.627  15.745  0.3360 -0.1743  0.2324
16846W        W33693   7.054  12.426  15.204  0.1913 -0.2901 -0.2253
16847W        W33694  11.657   1.638  12.886  0.1496  0.1381  0.2239
16848W        W33695  15.788  14.695   1.377 -0.1628 -0.2567  0.1904
16849W        W33696  12.983  17.453   0.092 -0.1527 -0.0090 -0.3072
16850W        W33697   7.716  10.296   3.642  0.0613  0.0359  0.1470
16851W        W33698  16.754   3.605  12.986  0.1393  0.0048 -0.0076
16852W        W33699  15.197   3.823   5.484  0.2346  0.0837 -0.0288
16853W        W33700  14.546   7.032  14.782  0.2943 -0.1731  0.0306
16854W        W33701   6.169  14.726   3.061 -0.1849 -0.0435  0.0882
16855W        W33702   7.582   2.682   0.683  0.0734 -0.1143  0.2231
16856W        W33703  11.612   5.394   3.537 -0.3099 -0.0472 -0.0180
16857W        W33704  11.800   1.074   2.597 -0.2012  0.1476 -0.1983
16858W        W33705  15.179  16.913   4.432 -0.2880  0.1415  0.0990
16859W        W33706   1.577  17.200   5.886  0.2821 -0.1646  0.2060
16860W        W33707  11.533  17.140  14.292  0.4209  0.2823 -0.0988
16861W        W33708   7.863   8.163  15.524 -0.2621  0.0588 -0.2224
16862W        W33709  14.271   4.195  10.718 -0.2523  0.1683 -0.3219
16863W        W33710   8.787   9.985  12.630 -0.0251 -0.0966 -0.1267
16864W        W33711   7.471   0.577  13.381  0.2475 -0.3844  0.1181
16865W        W33712  10.886   4.410   3.915 -0.1062 -0.1326 -0.3880
16866W        W33713  16.538   8.763   3.793  0.1920  0.1290 -0.0700
16867W        W33714   7.150  13.855  14.352 -0.1816  0.2048 -0.0639
16868W        W33715   6.761   2.123   1.081  0.0650  0.3147 -0.3246
16869W        W33716   8.472  11.233  13.073  0.1825  0.0592 -0.1296
16870W        W33717   7.916   7.164   4.739  0.1519 -0.1830 -0.1373
16871W        W33718  15.052  13.937   1.530  0.0281  0.0134  0.3440
16872W        W33719  13.717   8.041  14.191  0.0051 -0.0308 -0.4220
16873W        W33720   7.181  15.328   6.098  0.0775 -0.1563 -0.2572
16874W        W33721   0.215   9.072  13.811  0.1194 -0.0389 -0.2474
16875W        W33722  11.835   9.450   0.186  0.1559  0.2089 -0.0035
16876W        W33723   5.923  14.991   1.760  0.0562  0.2496  0.0802
16877W        W33724   8.121   1.046  15.535 -0.2550 -0.1094  0.0109
16878W        W33725   1.305   9.239   2.052  0.2656  0.1502  0.0245
16879W        W33726  12.894   7.319   4.122  0.2887  0.1580 -0.1265
16880W        W33727  16.625  14.306  15.044  0.1780 -0.0210  0.0527
16881W        W33728  11.413   4.087   0.894  0.2466 -0.0955  0.1402
16882W        W33729   4.810   1.281   4.541  0.0427 -0.0648 -0.1621
16883W        W33730  16.959   7.261  12.729 -0.0301 -0.0665 -0.2593
16884W        W33731   3.556  13.004   1.468  0.3544 -0.3423  0.1826
16885W        W33732  17.104  12.567  13.454 -0.0485 -0.0163  0.0227
16886W        W33733  12.372  14.226   4.340  0.1246  0.1049 -0.1061
16887W        W33734   3.543   7.312   5.646  0.1521 -0.2726  0.0956
16888W        W33735  12.355   7.708   1.265 -0.0233  0.0358 -0.0920
16889W        W33736   4.821   6.668   2.827 -0.0878  0.1191 -0.1691
16890W        W33737  14.741  11.231  11.390  0.2459 -0.0137 -0.2514
16891W        W33738  15.541   3.653   4.566  0.2257 -0.0577 -0.1816
16892W        W33739   3.370   8.497  14.040  0.3156 -0.2093  0.4930
16893W        W33740   2.203   3.092   4.239  0.0003 -0.2388  0.5370
16894W        W33741   3.769   8.471  14.362 -0.0941  0.2525  0.0425
16895W        W33742  12.153   5.446   6.011  0.0763 -0.1227 -0.0462
16896W        W33743   1.494   1.436   0.669  0.0569 -0.1360  0.2423
16897W        W33744   6.371  14.840  14.026 -0.0314 -0.1280 -0.3244
16898W        W33745  15.061   5.751  13.397 -0.1818 -0.1214  0.1022
16899W        W33746   7.865  11.688  15.826  0.0536  0.2481 -0.1556
16900W        W33747  10.463   2.914  13.737  0.2517 -0.3391 -0.1739
16901W        W33748  13.830  17.266  12.373 -0.0117 -0.0419  0.1382
16902W        W33749   1.061   9.312  14.356  0.3128  0.0088  0.0940
16903W        W33750  11.572  11.715   2.421 -0.0361 -0.1491 -0.2433
16904W        W33751   6.438  16.873  11.273  0.2236 -0.0458 -0.3365
16905W        W33752   0.810   3.620  16.579 -0.0055  0.1721  0.1107
16906W        W33753  13.543  17.264   3.051  0.0710  0.1233 -0.3463
16907W        W33754   0.708   8.667  15.910  0.1010 -0.1527  0.1774
16908W        W33755   3.289   6.026   5.160  0.0397  0.1777  0.0365
16909W        W33756   3.987   4.207  12.723  0.3667  0.2321 -0.0845
16910W        W33757   0.616   7.761  12.333  0.0139  0.0807  0.1239
16911W        W33758   7.709   1.640  12.685 -0.2323  0.0334  0.0337
16912W        W33759  16.438  17.183   0.554 -0.1339  0.1262  0.1413
16913W        W33760   6.932   6.096  12.312 -0.0573 -0.2096 -0.0830
16914W        W33761   7.246   1.572  15.311  0.0379 -0.0484 -0.1791
16915W        W33762  18.030  17.742   1.335 -0.0544  0.0132  0.2195
16916W        W33763  10.282  15.827  14.463 -0.1451 -0.1691  0.0700
16917W        W33764   2.057   6.143   3.189  0.2460  0.0369 -0.0992
16918W        W33765  17.111  12.877   5.024 -0.0412 -0.2006 -0.2058
16919W        W33766  11.091   5.322  15.142  0.0063  0.1312 -0.0771
16920W        W33767  14.290   7.608   0.992  0.2755  0.0651  0.0101
16921W        W33768   8.411  15.978   0.782  0.0537 -0.3007 -0.0291
16922W        W33769  12.981  16.127  13.971  0.1948 -0.0217  0.0093
16923W        W33770   0.156  17.791   3.678 -0.3479 -0.2014 -0.2657
16924W        W33771  11.809   4.612   0.115  0.1739 -0.2553 -0.1381
16925W        W33772   1.718  16.615  12.960  0.0576  0.0821 -0.1843
16926W        W33773   2.074  15.640  15.052  0.3592 -0.1920 -0.1639
16927W        W33774  12.046  16.668   2.992 -0.2232 -0.0799 -0.0971
16928W        W33775   6.360  15.135   5.101 -0.3208 -0.0127 -0.1958
16929W        W33776  13.610   8.733  11.763 -0.1125 -0.0426 -0.1146
16930W        W33777   6.864  15.560  13.674  0.1554  0.1729  0.3028
16931W        W33778   1.265   1.013   5.318 -0.0283  0.0440 -0.2080
16932W        W33779   7.982   9.517   1.562 -0.1189  0.1765  0.1303
16933W        W33780   6.056   3.977  16.231 -0.0625 -0.2158  0.4557
16934W        W33781  11.052  12.378  12.384  0.1140  0.0709  0.0575
16935W        W33782  14.894   3.984  14.215 -0.4223  0.2659  0.0940
16936W        W33783   8.367  12.053   0.785 -0.2100  0.3552  0.2072
16937W        W33784  11.510  14.062  12.091  0.0455 -0.0329  0.1094
16938W        W33785   3.952  13.365   2.201  0.0995  0.1309  0.0475
16939W        W33786   4.847   6.806   4.184  0.0626  0.2120  0.0137
16940W        W33787   1.567   0.046  12.464 -0.2285  0.1115 -0.0423
16941W        W33788   6.884  12.038   1.574  0.0261 -0.0302  0.2032
16942W        W33789   6.708   9.637   4.247  0.1380  0.0311  0.0001
16943W        W33790  13.381  11.569   0.613  0.0203  0.1518 -0.0209
16944W        W33791  13.241   2.232   4.592  0.0966 -0.1825 -0.2377
16945W        W33792  10.820  13.024  14.378 -0.1370 -0.1104  0.0446
16946W        W33793  16.204   5.721   2.803  0.1331  0.0850  0.2091
16947W        W33794   9.321   3.546   2.925 -0.0270 -0.1723  0.1269
16948W        W33795   4.945  12.095  16.157  0.0283  0.1296 -0.2262
16949W        W33796  12.155  16.063   0.061  0.1752  0.1261 -0.0527
16950W        W33797   9.596  13.214   3.446  0.0824 -0.0294 -0.1361
16951W        W33798   1.001   7.027  14.905 -0.2134 -0.1605  0.0870
16952W        W33799   5.679   6.308   1.457 -0.2096 -0.3064 -0.0115
16953W        W33800   6.508   8.798   4.194 -0.1279 -0.2183  0.2383
16954W        W33801  12.246   9.474  14.345  0.1131 -0.1141  0.2015
16955W        W33802   7.501  13.562  14.691  0.2713  0.0697  0.0393
16956W        W33803  17.095   7.619   3.885  0.0122 -0.3208 -0.2172
16957W        W33804  11.449   3.666   4.567  0.1471 -0.1223 -0.0426
16958W        W33805   0.026   5.874   2.976 -0.2168  0.1206  0.0921
16959W        W33806   6.412   4.923  15.790  0.1907  0.0638  0.1433
16960W        W33807  10.058  12.446   1.403 -0.0204  0.3031  0.1315
16961W        W33808   9.437  15.554  12.846  0.2010 -0.0135  0.0124
16962W        W33809  17.164  13.720   3.668  0.0778  0.0373 -0.1296
16963W        W33810   7.275  14.485  12.371 -0.2287  0.2534  0.0424
16964W        W33811   3.999   0.701  11.576 -0.1786 -0.1249 -0.1153
16965W        W33812  16.562   1.127  13.088  0.0727  0.1016  0.5595
16966W        W33813   1.628   9.815   4.643  0.2319  0.2361 -0.3150
16967W        W33814   5.098  10.216   3.530 -0.0725 -0.1022 -0.0057
16968W        W33815   4.905   1.520   2.622  0.0934 -0.1025 -0.3102
16969W        W33816  15.778   5.239   5.289  0.1279 -0.0473 -0.0642
16970W        W33817  16.552   3.704   1.984  0.0885 -0.2221 -0.0478
16971W        W33818  15.922   0.726  13.346  0.0728 -0.0440 -0.1554
16972W        W33819   7.460  11.684   3.730  0.1501  0.0141  0.2556
16973W        W33820  10.293  15.446  12.408  0.0609  0.1107  0.0639
16974W        W33821   0.264   9.088   4.342 -0.1795  0.1347  0.0836
16975W        W33822  12.315   8.729   0.293  0.3605 -0.1390  0.1492
16976W        W33823   2.021   0.651  12.817 -0.2585  0.0133  0.0184
16977W        W33824   3.919   9.465  12.278  0.0215  0.0743  0.0815
16978W        W33825   0.830   0.922   1.839  0.0534  0.0241 -0.1245
16979W        W33826   5.514   6.177  15.516 -0.1489 -0.2340  0.0171
16980W        W33827   1.797  12.432  15.291  0.2603 -0.0705 -0.1300
16981W        W33828  12.293  12.115   1.288 -0.2877 -0.1568 -0.1856
16982W        W33829   5.410  11.442  16.676  0.3116 -0.2074  0.1498
16983W        W33830  14.055  10.441  15.707 -0.1168 -0.1183  0.0482
16984W        W33831   9.811   8.717   5.244 -0.0344 -0.0157 -0.0886
16985W        W33832  15.994  15.241   0.689  0.1480 -0.3707 -0.3404
16986W        W33833  16.071  14.987  12.005 -0.2694 -0.2358 -0.4104
16987W        W33834  12.679  13.401   3.613  0.2739  0.1319  0.1328
16988W        W33835   1.897   7.859  12.307 -0.0222  0.2717 -0.0818
16989W        W33836  10.387   7.279  12.624  0.1396 -0.1303 -0.2280
16990W        W33837  17.760  16.129   5.656 -0.1414  0.2136 -0.0180
16991W        W33838  14.187   4.858   3.396  0.2003 -0.1707  0.2029
16992W        W33839   7.187  16.066  12.085  0.0018  0.1240  0.0217
16993W        W33840   3.319  17.654   4.918  0.1691 -0.0635 -0.0967
16994W        W33841   3.651  14.334  16.395 -0.1113  0.0183 -0.0931
16995W        W33842   4.933   0.624  13.369  0.0885  0.0727 -0.1275
16996W        W33843   9.122  15.179  12.862  0.4548 -0.0501 -0.1956
16997W        W33844   2.119  12.591  12.858 -0.3567  0.1422  0.1718
16998W        W33845  12.873  11.858  12.478  0.0248  0.1264 -0.0700
16999W        W33846  13.367   3.369   2.780 -0.0074 -0.2115  0.1533
17000W        W33847  12.926  15.075  16.106  0.2497 -0.0295 -0.3515
17001W        W33848  10.688  17.864   2.587 -0.0811  0.3870 -0.1137
17002W        W33849   3.323  17.274  12.338 -0.0173  0.1861 -0.2868
17003W        W33850  17.772   3.412  13.454 -0.0380 -0.1899  0.0217
17004W        W33851  10.242   2.704  11.983 -0.0021  0.0708 -0.0915
17005W        W33852   5.844  11.550   3.245 -0.1258  0.2996 -0.0397
17006W        W33853   4.884   0.391   5.137  0.0103 -0.1107  0.0354
17007W        W33854  15.166  14.641  13.994 -0.0458  0.3436 -0.0766
17008W        W33855   4.106  12.231  13.862  0.0742  0.0742 -0.0870
17009W        W33856  14.324   3.953   0.172  0.1194 -0.2514 -0.3008
17010W        W33857   6.935  16.734   5.377 -0.1647  0.2580 -0.1852
17011W        W33858   7.724   8.955   0.485  0.0297 -0.0424  0.1134
17012W        W33859   1.045   4.412   1.864  0.0798 -0.1294 -0.3136
17013W        W33860  10.174  10.375  15.628  0.0368  0.1117 -0.0263
17014W        W33861   8.424  14.408   1.820 -0.3667 -0.0079  0.2025
17015W        W33862   2.029   8.230   1.772  0.0225 -0.0360 -0.2085
17016W        W33863  14.149   1.675   0.644  0.0404 -0.0145 -0.1086
17017W        W33864  13.059   2.608   3.173  0.0274  0.2020 -0.1182
17018W        W33865   6.682  14.964  12.916 -0.2654 -0.0926 -0.3568
17019W        W33866   8.410  17.798   2.745 -0.2012  0.1541 -0.0683
17020W        W33867  12.804  11.170  13.321 -0.1880  0.1526  0.2283
17021W        W33868  16.220  10.706  14.197  0.0866 -0.1854 -0.2713
17022W        W33869   9.429   5.181  11.721  0.0105  0.2199  0.2350
17023W        W33870  13.340   1.988  16.202  0.2930 -0.2226  0.0136
17024W        W33871   0.787   3.921  11.790  0.1447  0.4643 -0.1621
17025W        W33872  10.567   1.564   0.079 -0.2354 -0.2431  0.2519
17026W        W33873   8.099  17.861  15.281 -0.0868  0.1800  0.1252
17027W        W33874  16.931   0.478   4.748 -0.1098 -0.0001  0.0548
17028W        W33875   5.351  10.468   4.937  0.0644  0.0859  0.0459
17029W        W33876   7.893   9.559  14.015  0.3939  0.2593  0.0305
17030W        W33877   2.198   1.470   1.721  0.0750  0.1637  0.0876
17031W        W33878  11.051   3.466   1.341 -0.1827 -0.1380 -0.1072
17032W        W33879   2.853   1.939  12.454 -0.0628 -0.0396  0.0483
17033W        W33880   6.381  17.327  11.859 -0.0747  0.0561 -0.5247
17034W        W33881   8.326   0.755   5.009  0.3317 -0.0875  0.0941
17035W        W33882   8.277  17.897   2.171 -0.1771  0.3046 -0.0416
17036W        W33883  14.718  13.551   1.541  0.3802  0.1155 -0.1993
17037W        W33884   0.099   1.539  12.237  0.1781 -0.2263  0.0567
17038W        W33885  13.549   4.149   1.011 -0.0397  0.0023 -0.3569
17039W        W33886   7.057  14.679  11.461 -0.0968  0.0618 -0.1563
17040W        W33887  12.953   3.130   3.020 -0.1260  0.0444 -0.1162
17041W        W33888   8.785  11.898   3.452  0.2163 -0.0549 -0.2771
17042W        W33889   5.298  17.971   1.757 -0.2355 -0.1189 -0.1711
17043W        W33890   7.093  12.150   0.012  0.2305 -0.1046  0.2588
17044W        W33891   2.439  16.091  15.383 -0.1131  0.0832 -0.2025
17045W        W33892   3.365  11.848   5.180 -0.0486 -0.1476  0.3148
17046W        W33893  11.351  16.138  13.627 -0.2253 -0.3432  0.1767
17047W        W33894  11.454  11.925  16.390  0.4909  0.0600  0.4156
17048W        W33895  16.734  17.106  16.552 -0.0186 -0.1011  0.1365
17049W        W33896  17.346  13.802  14.782 -0.1267  0.2063  0.0035
17050W        W33897   6.302  12.056  14.679  0.2998 -0.1424  0.0082
17051W        W33898   8.494   5.240  13.113  0.1249 -0.2821 -0.2168
17052W        W33899  17.148  11.903  15.489  0.1708 -0.0224  0.2617
17053W        W33900  10.445   8.943  13.221 -0.3238 -0.0675 -0.1460
17054W        W33901   4.888   2.471   1.756 -0.0925 -0.0557 -0.1422
17055W        W33902  14.896  10.976  12.362 -0.0853 -0.1011 -0.2221
17056W        W33903   7.809  12.891   0.626  0.0408  0.1065  0.0750
17057W        W33904   4.354   8.565   3.540  0.1241 -0.0069  0.1110
17058W        W33905   2.219   5.326  11.690 -0.1347  0.1102  0.2513
17059W        W33906   2.624  17.289  13.606  0.1270 -0.2149  0.2879
17060W        W33907   5.107  15.249  14.333 -0.0429  0.0717 -0.0210
17061W        W33908  11.805   9.055  12.768  0.1983  0.2538  0.0201
17062W        W33909  17.321   0.537  14.305 -0.1570 -0.1853  0.0237
17063W        W33910  10.524   2.056   2.775  0.0147 -0.5266 -0.2278
17064W        W33911  16.650   7.029  11.324 -0.0082 -0.4733  0.0110
17065W        W33912  17.725   1.837  14.894 -0.1029 -0.1499 -0.0587
17066W        W33913   7.118   3.588  11.903  0.0106 -0.1749  0.3325
17067W        W33914  14.630   1.920   3.925 -0.0665  0.0482  0.2615
17068W        W33915  15.119  15.235   2.896 -0.0548 -0.1847  0.0739
17069W        W33916   3.927  13.895   0.989  0.2049 -0.0186  0.0842
17070W        W33917   0.977  15.180   1.914  0.0358 -0.3181  0.0102
17071W        W33918   6.637   1.079   5.533  0.0164 -0.0753 -0.1364
17072W        W33919   4.600  17.160   4.620 -0.0441  0.0476  0.0991
17073W        W33920  10.556   2.600  14.142  0.0762 -0.0241  0.0313
17074W        W33921  17.935  15.519   3.425 -0.3594  0.0408  0.1049
17075W        W33922  17.234   3.287  15.041 -0.1850  0.1873  0.1684
17076W        W33923  17.156  14.623   0.216 -0.0827 -0.1902 -0.0248
17077W        W33924   3.015  15.525   2.798  0.1629  0.0169 -0.0598
17078W        W33925  13.448   0.014   0.613 -0.3193 -0.3179  0.0130
17079W        W33926   9.494  13.063   2.551  0.0093 -0.0512 -0.0450
17080W        W33927   1.576   5.460   0.969 -0.0253  0.0114 -0.0031
17081W        W33928  10.254   5.207   5.757  0.1951  0.0568 -0.2275
17082W        W33929   1.551  16.661  14.418 -0.1947 -0.0797 -0.2499
17083W        W33930  15.003   6.794  12.490 -0.0719 -0.4181  0.1027
17084W        W33931   6.745   5.409  13.386  0.0990  0.2572  0.0686
17085W        W33932   6.337  11.017  16.214 -0.2365 -0.0724  0.1246
17086W        W33933   4.570   0.519   2.590 -0.0352 -0.0876 -0.0804
17087W        W33934   9.563   0.941  15.040  0.0732  0.0672  0.3096
17088W        W33935   1.981  12.066   3.467  0.0859 -0.2807  0.2282
17089W        W33936   1.367   9.672  14.591 -0.0076 -0.0037  0.0163
17090W        W33937  13.877   0.758   4.106  0.0055 -0.3080  0.2502
17091W        W33938   2.869  10.703   4.046 -0.1153  0.1242  0.2093
17092W        W33939  15.052   7.119  15.648  0.2194  0.0884  0.2802
17093W        W33940   0.071   1.594   2.836  0.0373  0.0268  0.1425
17094W        W33941   0.883   2.434  11.416  0.1348  0.2425  0.1867
17095W        W33942  17.197  11.306   4.304  0.0376  0.2851  0.0724
17096W        W33943   6.536   8.673  13.509 -0.3960  0.3127 -0.3665
17097W        W33944  13.661  12.893   1.146 -0.2299  0.1344  0.1794
17098W        W33945  16.288   7.499   0.750  0.2621  0.1694  0.1200
17099W        W33946  10.966  12.593   5.106  0.2652 -0.0748 -0.0926
17100W        W33947   3.723   4.726   5.026  0.0786  0.1198 -0.1668
17101W        W33948   4.977  15.307   1.762  0.0207 -0.2815 -0.0266
17102W        W33949  11.457  11.946   0.830 -0.3114 -0.0797  0.0561
17103W        W33950  14.411  14.935   1.295 -0.1798  0.1983  0.0518
17104W        W33951   7.837  17.833   1.588  0.1793  0.1622 -0.1918
17105W        W33952   7.932   0.261  15.184 -0.1255 -0.4650  0.1585
17106W        W33953  11.656   0.870  14.393  0.2886 -0.1700 -0.2854
17107W        W33954   3.808  13.293   0.377  0.1578  0.0700 -0.0012
17108W        W33955  17.726   7.053   0.335 -0.1144  0.2261  0.1426
17109W        W33956  16.405  10.492   1.182 -0.2164  0.1340  0.5542
17110W        W33957   4.558   3.352   1.684  0.2283 -0.1347  0.0725
17111W        W33958   1.355   4.174   4.302  0.1832 -0.0461 -0.2008
17112W        W33959  13.382  16.788   4.422  0.0379 -0.3334  0.2487
17113W        W33960   0.047   4.681   5.020  0.3371  0.0443 -0.0263
17114W        W33961  11.575   5.442  13.879 -0.1829  0.1582 -0.0590
17115W        W33962  16.270   6.062   4.065 -0.0242  0.0714 -0.0648
17116W        W33963   2.707   4.922   2.965  0.0399 -0.0063  0.0772
17117W        W33964   9.461   3.858  13.606  0.1566 -0.0546 -0.1226
17118W        W33965   8.126   1.956   1.367 -0.1378 -0.1009  0.0731
17119W        W33966   7.507  16.232  11.714 -0.2916  0.0977 -0.0536
17120W        W33967   6.723  11.432   4.460  0.1757 -0.0874  0.2700
17121W        W33968   9.861   7.592  11.797  0.2295 -0.0504  0.3055
17122W        W33969  12.742  11.850   5.267  0.0541 -0.1542  0.0247
17123W        W33970   2.755  14.884  14.264  0.0099 -0.1434  0.1182
17124W        W33971  17.345   2.927  12.204 -0.2429 -0.2002  0.1428
17125W        W33972   4.139   1.717   3.214  0.1048  0.1254 -0.0718
17126W        W33973   7.483   3.148   5.591  0.1274  0.1785  0.0957
17127W        W33974  15.595   2.606   4.036  0.0250 -0.1062 -0.0507
17128W        W33975   7.978  10.115  16.103 -0.2816  0.3640  0.2066
17129W        W33976  10.921  15.287   5.257 -0.1889  0.1595 -0.0008
17130W        W33977  12.262   5.826  12.835  0.3478  0.3379 -0.0137
17131W        W33978   5.585   3.504  12.810  0.2957  0.4256 -0.1876
17132W        W33979   0.200   5.564   1.546  0.1721 -0.1350  0.1071
17133W        W33980   5.211  10.515  13.023 -0.3824  0.0548  0.0286
17134W        W33981   3.506   4.039   1.061 -0.0278 -0.0070  0.0255
17135W        W33982  12.479   2.970  15.503  0.0495 -0.1336 -0.2433
17136W        W33983  10.980   7.762  14.147  0.3240  0.0902 -0.0493
17137W        W33984   6.725   0.006   4.678  0.3267  0.0949 -0.0188
17138W        W33985  16.664   1.151   3.887  0.0155  0.3553  0.0913
17139W        W33986  15.299   3.561  16.643  0.3140 -0.1025 -0.1163
17140W        W33987   5.609   0.934  12.995  0.1223 -0.1966  0.1247
17141W        W33988   2.282  14.538   4.067  0.1459  0.2288 -0.1028
17142W        W33989  10.601   2.516   2.332 -0.0668 -0.1103  0.2059
17143W        W33990   4.272  11.110  15.510  0.0720 -0.2388 -0.0705
17144W        W33991   4.180   6.132  16.661 -0.3319  0.1722  0.1866
17145W        W33992   3.155   6.621  12.643 -0.2736 -0.3270 -0.1190
17146W        W33993   3.152   3.968   4.040 -0.0243  0.0541  0.2444
17147W        W33994  13.207  17.326   5.664  0.0640 -0.1989  0.5466
17148W        W33995   6.769   7.592  13.240 -0.2096 -0.2918 -0.1633
17149W        W33996   1.278  11.894   0.512  0.1217  0.0647  0.1191
17150W        W33997   5.388   5.026  14.519 -0.1615  0.0124 -0.0319
17151W        W33998   0.741  15.235   4.887 -0.1241  0.1208 -0.0086
17152W        W33999   3.786  16.396   4.857 -0.1109 -0.1291  0.2567
17153W        W34000   0.288   9.520   3.080 -0.2177  0.0071  0.2351
17154W        W34001  11.111   5.863  12.093 -0.1774 -0.0179  0.1604
17155W        W34002  14.457  10.605  12.279  0.1658 -0.0441 -0.1450
17156W        W34003   3.841  10.267  13.515 -0.3245 -0.2495 -0.1075
17157W        W34004   3.999  10.484   6.088 -0.0027 -0.0350  0.0783
17158W        W34005  12.886   0.663  11.164 -0.0104  0.2928  0.1310
17159W        W34006  16.480  12.453   5.521 -0.2950 -0.1611  0.0814
17160W        W34007   6.273   7.591  16.286  0.0722 -0.0356  0.3369
17161W        W34008   3.869   9.313  10.777  0.0120 -0.1675  0.1281
17162W        W34009   7.612   8.456   0.344  0.0327  0.2052 -0.0201
17163W        W34010  17.429  13.829   2.246 -0.0024 -0.0737 -0.2714
17164W        W34011   3.490   2.116   9.931  0.1521 -0.0465  0.1100
17165W        W34012   5.529   4.575  14.061  0.2647  0.0882  0.2160
17166W        W34013   7.147  10.781   4.955 -0.0813  0.4689  0.2645
17167W        W34014  14.067   7.675   3.361 -0.1956  0.2069 -0.0304
17168W        W34015  12.224  15.563  12.339 -0.0191  0.1673  0.0293
17169W        W34016   7.162  14.180   5.627 -0.0116 -0.3187  0.3731
17170W        W34017  11.808   2.393  12.589  0.0005 -0.3897 -0.1378
17171W        W34018  17.858  10.929  13.112 -0.1520 -0.0247 -0.1063
17172W        W34019  14.201  11.987   2.640  0.3266  0.1441 -0.1677
17173W        W34020   6.726  13.235   5.357  0.1882  0.0255  0.1147
17174W        W34021   0.992   8.384   0.332 -0.1788 -0.0991 -0.1603
17175W        W34022   8.769   7.166  14.313 -0.0295 -0.2626  0.3961
17176W        W34023   0.089  16.543  15.806  0.0110  0.2438 -0.2160
17177W        W34024   5.502  11.007  16.159  0.2645 -0.1662 -0.3441
17178W        W34025   5.302  13.573   3.430  0.0999 -0.0443 -0.2470
17179W        W34026  11.914   8.618  16.595 -0.0110 -0.2545 -0.1578
17180W        W34027   4.820  13.366   3.995 -0.2100  0.0460 -0.0059
17181W        W34028   8.127   6.678   4.394 -0.4663  0.0693 -0.1776
17182W        W34029   9.823  16.011   2.726 -0.0231 -0.0392 -0.0348
17183W        W34030   1.955  10.205  13.100  0.1624 -0.0457  0.0038
17184W        W34031   0.628   2.231  13.134 -0.0783 -0.1852 -0.0919
17185W        W34032  11.338   0.556  15.175 -0.0014 -0.0442 -0.1007
17186W        W34033   3.589  17.801  11.082  0.1720 -0.1965  0.0278
17187W        W34034  13.882   6.042   1.188 -0.2286  0.0318 -0.1808
17188W        W34035   9.691   0.745  15.508  0.0985 -0.1988 -0.1994
17189W        W34036  11.838  13.205  15.864 -0.1136 -0.2829  0.1403
17190W        W34037  10.489   2.854   3.219 -0.1186  0.1306 -0.3589
17191W        W34038  13.773  13.398  14.650 -0.3408  0.1882 -0.0490
17192W        W34039  11.279  14.274   0.196 -0.1810 -0.0681 -0.3491
17193W        W34040   5.610   0.827  11.596  0.2341 -0.1147  0.0638
17194W        W34041   6.527   4.880   2.944 -0.0218  0.2046  0.0590
17195W        W34042   2.676  13.974  12.984  0.5401  0.0499  0.1342
17196W        W34043   7.669   2.411  15.957 -0.2140  0.3079  0.0797
17197W        W34044   5.869  11.049   0.359  0.2349 -0.1831  0.2267
17198W        W34045  15.750   0.730  11.585 -0.0673  0.1776  0.0399
17199W        W34046   3.871   6.336   2.631  0.0926 -0.5640  0.3115
17200W        W34047   0.640   9.979  13.553 -0.0268  0.0692  0.1654
17201W        W34048   0.902  12.088   1.481 -0.0904  0.1010  0.1314
17202W        W34049   8.520  17.099  14.687 -0.0063 -0.2079 -0.0476
17203W        W34050   7.051   0.848   0.220  0.0825 -0.0067 -0.1599
17204W        W34051  15.102  12.182   1.892  0.3031  0.1212 -0.3684
17205W        W34052   1.141   5.300   0.509 -0.1181 -0.1755  0.1626
17206W        W34053   3.791  17.512   5.040 -0.2819 -0.0785 -0.2851
17207W        W34054  15.405   8.711   0.712  0.0680  0.1693  0.2605
17208W        W34055   6.651   6.488   0.990  0.3287 -0.2882  0.0064
17209W        W34056  13.766  10.902  12.984  0.0081  0.1216 -0.0121
17210W        W34057  14.550   7.826   2.012 -0.1606 -0.3545  0.0127
17211W        W34058   4.950   9.135   5.164  0.0275  0.2187  0.0353
17212W        W34059  17.910   2.624  13.449 -0.1015  0.1876 -0.0749
17213W        W34060  10.433  17.712   5.044  0.0680  0.0152  0.0802
17214W        W34061   1.231  16.592   2.417  0.1770 -0.3242  0.0797
17215W        W34062   5.807  16.305  11.816 -0.1146  0.0374 -0.1273
17216W        W34063  13.019   7.992   4.616 -0.2051 -0.0764 -0.1409
17217W        W34064  11.923   0.038  16.424 -0.1088 -0.3548 -0.1566
17218W        W34065  16.452   3.602   2.427  0.0096  0.0018  0.1509
17219W        W34066  13.203  14.089   4.489 -0.2648  0.0259 -0.1026
17220W        W34067  14.046   0.640  12.531 -0.2658  0.3638  0.1826
17221W        W34068   5.445  15.977   0.642 -0.0832  0.1677 -0.0968
17222W        W34069  15.617   4.987   4.833  0.1755  0.0824 -0.3378
17223W        W34070   2.255   3.814  13.717  0.0263  0.3937  0.0572
17224W        W34071   5.664  14.186  16.071 -0.1582  0.1341  0.1973
17225W        W34072   5.101   2.037   5.040  0.0644  0.0662 -0.1853
17226W        W34073  16.237   7.540   2.298  0.1564 -0.1508 -0.1825
17227W        W34074   4.566   3.701  13.277  0.0004 -0.0518  0.0089
17228W        W34075  16.707  11.928  12.201  0.1186 -0.0050 -0.0271
17229W        W34076  15.468   6.514   2.679  0.2862 -0.1082 -0.0511
17230W        W34077  17.193   0.722   0.730 -0.1291  0.1296  0.0694
17231W        W34078   6.457   1.416   0.452 -0.0575  0.3058  0.1370
17232W        W34079  12.494   7.411  14.293  0.1528 -0.1039  0.2058
17233W        W34080   0.964   0.273   5.297 -0.0191 -0.2239 -0.1302
17234W        W34081  15.544   9.062   0.271  0.1186 -0.1263  0.1354
17235W        W34082   1.379   8.982   4.265  0.2312  0.2880 -0.4416
17236W        W34083   7.517  12.869   5.259  0.0709  0.0489  0.0315
17237W        W34084  16.138   3.400   0.451  0.0605 -0.0851  0.2047
17238W        W34085  11.169  11.963   0.242 -0.0558 -0.1108  0.2479
17239W        W34086  15.899  15.879   1.957  0.2241  0.1433  0.0944
17240W        W34087   2.189   6.304  15.828 -0.0610  0.1265 -0.0700
17241W        W34088  17.344   8.673   1.799 -0.2560 -0.3096  0.1246
17242W        W34089  17.124  13.021   3.772 -0.2144 -0.1149  0.2727
17243W        W34090   9.393  16.411  15.166 -0.2492  0.0316 -0.0008
17244W        W34091  17.624   4.431   2.901 -0.1667 -0.0094  0.2126
17245W        W34092  16.023  11.820   5.100 -0.1515 -0.0389 -0.1695
17246W        W34093  10.076  11.334  14.022  0.2539  0.0560  0.0475
17247W        W34094  15.910  12.236   4.269  0.0604  0.1246 -0.2126
17248W        W34095   6.982   3.991  13.643 -0.2698 -0.1161 -0.1613
17249W        W34096   3.414   8.547   0.257  0.1623 -0.3022 -0.0216
17250W        W34097   1.591  12.309   0.297  0.2586 -0.1215  0.1383
17251W        W34098   6.654  16.396   0.629  0.0274 -0.1153  0.0459
17252W        W34099  16.697  16.112  15.609 -0.3065  0.0625  0.3486
17253W        W34100  13.518   6.750  11.259 -0.1765  0.0180 -0.0899
17254W        W34101   0.959  17.944  12.953  0.0946 -0.1604  0.2224
17255W        W34102   5.710  13.680  14.384  0.1822  0.2287 -0.0571
17256W        W34103  10.562   8.627   2.795 -0.0558  0.0571  0.1435
17257W        W34104   4.771   3.770   4.266  0.0005  0.0635 -0.0610
17258W        W34105  14.606  11.593   4.892 -0.1171 -0.2214  0.2809
17259W        W34106  17.496  14.097  12.200  0.1970 -0.4356  0.2724
17260W        W34107   1.417  15.769  11.952  0.0191  0.0717 -0.1478
17261W        W34108  15.191   1.421   1.208 -0.0261 -0.1616  0.1752
17262W        W34109  17.824  10.892   3.724  0.0617  0.0549  0.1888
17263W        W34110   3.609   5.536  14.176  0.1538 -0.1539  0.0317
17264W        W34111  17.100   2.273   4.458 -0.0617 -0.0392 -0.1460
17265W        W34112  10.886  15.910   1.900 -0.0080  0.1094 -0.3628
17266W        W34113   1.607   1.372  14.164  0.1863 -0.1552 -0.2389
17267W        W34114   0.196   4.240   0.294 -0.2076  0.3835  0.1629
17268W        W34115  13.901   4.592  13.769 -0.1744  0.1617  0.1451
17269W        W34116  11.657   6.393  12.461  0.0296  0.4532 -0.2829
17270W        W34117   6.348  14.563  13.097 -0.1479  0.0876  0.0940
17271W        W34118  10.958  11.943   3.632  0.0771  0.0539 -0.0133
17272W        W34119  14.629  10.803  12.824  0.2887  0.0144 -0.2144
17273W        W34120  14.285   9.782   5.365 -0.1822 -0.6002  0.2671
17274W        W34121  14.342   6.773   0.555 -0.0938 -0.2393 -0.2727
17275W        W34122   6.990   6.630   5.399 -0.1619  0.0867  0.2809
17276W        W34123  14.298   8.737   0.555  0.1627 -0.0722 -0.2576
17277W        W34124  12.108  16.870   1.011  0.1543 -0.0014 -0.2542
17278W        W34125   0.976   5.278   2.666 -0.0785 -0.0670 -0.0106
17279W        W34126  14.288  14.989   2.374  0.0883  0.1987 -0.0907
17280W        W34127   8.359   4.766   2.078 -0.2867  0.0981 -0.0578
17281W        W34128   0.794   2.377   3.801  0.0158 -0.0382  0.2022
17282W        W34129   8.876   4.297  13.253 -0.1468 -0.1539  0.1140
17283W        W34130  11.368   1.145  12.733  0.0384  0.2355 -0.1190
17284W        W34131   4.647   5.934  11.684 -0.3120  0.2074 -0.1049
17285W        W34132  16.832   8.700   2.958  0.5149  0.3442 -0.0504
17286W        W34133  17.737   8.555   4.487  0.3091 -0.0376  0.0219
17287W        W34134  15.808   8.135  15.007 -0.0904 -0.1636  0.1492
17288W        W34135   6.583   9.857   5.136  0.0451  0.0693 -0.1889
17289W        W34136   3.334   2.408  12.974 -0.1863 -0.1207  0.2174
17290W        W34137   6.110  10.397   2.692 -0.0980  0.2284 -0.0423
17291W        W34138   4.192   5.377   0.896  0.0094  0.4345 -0.0792
17292W        W34139   7.327   3.792  12.457  0.2823 -0.0029  0.1090
17293W        W34140   1.986  16.927  11.822 -0.2689  0.2964  0.2517
17294W        W34141  12.608  11.777   2.968  0.1101 -0.2164  0.0538
17295W        W34142   8.447   2.345  16.279 -0.1136  0.0492  0.0256
17296W        W34143   4.798   8.577  15.996 -0.1871  0.1295  0.1822
17297W        W34144   6.039   5.154   1.637 -0.1504 -0.0209 -0.2174
17298W        W34145   6.095  16.431   0.953  0.0174 -0.3536  0.2799
17299W        W34146   4.223  14.169  12.985  0.4423 -0.3783  0.1963
17300W        W34147  11.052  10.061  14.535  0.0599 -0.2577 -0.0016
17301W        W34148   0.824   7.069   0.818  0.0794 -0.1201  0.1418
17302W        W34149   2.243  10.400   1.714  0.0020 -0.1460  0.2466
17303W        W34150   2.100   1.000  14.810 -0.1540 -0.1181 -0.2192
17304W        W34151   7.813  14.772   2.026 -0.1767 -0.0477  0.2574
17305W        W34152   6.928   0.580  12.437  0.0195 -0.1366 -0.1031
17306W        W34153   5.000  11.564   3.759  0.1427  0.1702 -0.1552
17307W        W34154   3.609   2.347   3.243  0.0486 -0.0745  0.0068
17308W        W34155   9.732   4.403   4.860 -0.0636 -0.0590  0.4458
17309W        W34156  14.390  17.067   4.109 -0.1198 -0.0324 -0.1290
17310W        W34157  10.167  10.508   2.434 -0.0036 -0.0679  0.0248
17311W        W34158   7.473  10.540   2.775  0.2071  0.4324  0.2225
17312W        W34159  10.699   6.022   1.695  0.0181  0.0493 -0.0721
17313W        W34160  16.495  11.949   1.469 -0.0623 -0.4238  0.1284
17314W        W34161  15.539  16.936  15.925  0.1553 -0.1454  0.0189
17315W        W34162   7.823   3.955  15.620  0.0506  0.1940 -0.1668
17316W        W34163  13.511   2.633  12.339 -0.1001 -0.0071  0.0399
17317W        W34164   5.752   8.313   3.139  0.0203 -0.0420  0.0466
17318W        W34165   0.893  16.364  15.175 -0.1673 -0.0499  0.0264
17319W        W34166  15.316   3.566  15.890 -0.2381  0.0953 -0.1866
17320W        W34167  15.730   4.955   1.146  0.2568 -0.2643 -0.0784
17321W        W34168   1.702  16.432   2.456 -0.0564  0.1461  0.1126
17322W        W34169  17.030  13.552  14.380 -0.2523  0.0087 -0.0531
17323W        W34170   1.214  16.481  13.666  0.3598  0.1752 -0.0855
17324W        W34171   8.125  15.474  15.221 -0.4312 -0.2461  0.0589
17325W        W34172  13.525  15.272  12.164 -0.2178 -0.3733  0.0024
17326W        W34173   5.883   1.657   1.969  0.0647  0.0999 -0.3995
17327W        W34174   6.852   2.504   4.441  0.2490 -0.2316 -0.1670
17328W        W34175  17.983   4.366  15.709  0.1530  0.0569 -0.1302
17329W        W34176   2.673  14.616   5.288  0.2901 -0.2270 -0.2082
17330W        W34177   5.972  16.650  12.434  0.7690  0.0132  0.1567
17331W        W34178   3.735  13.399   1.693  0.1154 -0.0560  0.1168
17332W        W34179   7.667  16.580   2.105  0.3506 -0.1384  0.2731
17333W        W34180  14.519   8.609   2.697  0.1544  0.0733  0.1758
17334W        W34181  12.690   7.782  15.944 -0.0479 -0.1577 -0.0163
17335W        W34182   1.896   8.170  13.966  0.2202 -0.1878  0.0156
17336W        W34183   9.030  14.190  12.361 -0.0252  0.2074  0.0975
17337W        W34184   6.232   2.502   1.704  0.3663  0.1115 -0.0061
17338W        W34185  14.315   2.759   0.392  0.2591 -0.0447  0.5842
17339W        W34186   8.157   5.160  14.781  0.2028  0.1144 -0.1524
17340W        W34187  15.300   2.964   4.412 -0.2223  0.2036 -0.2434
17341W        W34188   2.371   2.365  11.899  0.0129 -0.0814 -0.0512
17342W        W34189  15.084  15.132  13.204  0.3565  0.1113  0.1337
17343W        W34190   9.364  11.573   1.622  0.0580  0.1493  0.1925
17344W        W34191  10.122   1.269   2.393  0.4872 -0.2378  0.0620
17345W        W34192   2.972   4.465  13.536 -0.0903  0.3204 -0.0181
17346W        W34193   1.227   9.830  12.625 -0.1459 -0.0309 -0.3526
17347W        W34194   1.233   0.263   0.125 -0.4485 -0.1299  0.1892
17348W        W34195   6.495   4.374   3.705 -0.0558 -0.3410 -0.2156
17349W        W34196   6.988   3.459   0.534  0.0204  0.0389 -0.1725
17350W        W34197   4.943  12.619  15.607 -0.1204  0.2251 -0.0701
17351W        W34198   6.902   1.413   3.002 -0.3063 -0.3664  0.2755
17352W        W34199  13.462  13.580   1.543  0.0742  0.3404  0.0303
17353W        W34200   3.547   4.409  13.650 -0.0299  0.1131 -0.0568
17354W        W34201   5.405   6.514  15.083  0.0565  0.0796  0.0598
17355W        W34202  16.625   5.258   2.308  0.3806 -0.0588 -0.0127
17356W        W34203  11.890   8.389   4.171  0.0776  0.2082  0.0193
17357W        W34204  14.159   5.038  12.153  0.0582 -0.1024  0.2002
17358W        W34205  12.085   9.095  12.235  0.1038 -0.2151  0.0665
17359W        W34206   7.023   3.953   4.527  0.2169  0.0651 -0.1801
17360W        W34207   5.694  12.876   5.744  0.0223  0.0437 -0.3261
17361W        W34208   4.332  12.268   0.373 -0.3734 -0.3988 -0.1564
17362W        W34209   1.240  16.996   4.497 -0.0681 -0.0636  0.0605
17363W        W34210  16.149  11.168   3.276  0.4218 -0.0989  0.1159
17364W        W34211  17.177  10.313  14.521  0.2227 -0.0037 -0.4665
17365W        W34212  17.991   9.809  16.500 -0.0157  0.0136 -0.2488
17366W        W34213  12.080  14.078   0.793 -0.1449  0.0641  0.2293
17367W        W34214  13.260   2.199   1.634  0.0543  0.2564  0.0775
17368W        W34215   7.429   1.412   5.793  0.0445 -0.0023  0.5003
17369W        W34216   6.553   9.306  13.847 -0.1298  0.0541  0.0444
17370W        W34217   1.637   9.561   5.332  0.0745 -0.1262  0.0136
17371W        W34218   7.883  17.466   2.053 -0.0714  0.0000  0.1169
17372W        W34219  17.170  11.538   3.235  0.2559  0.2659  0.1269
17373W        W34220   1.980   4.409   3.980  0.0006 -0.1366  0.1543
17374W        W34221  17.975   4.760   0.405 -0.0028  0.1939  0.1135
17375W        W34222   1.600   2.693  14.109 -0.2864 -0.3744 -0.2018
17376W        W34223   2.261   9.046  15.698 -0.1115  0.3533  0.1844
17377W        W34224  14.129   8.319   2.540 -0.1218  0.2929  0.2102
17378W        W34225  15.003  15.254   1.097  0.2032 -0.0171 -0.1361
17379W        W34226  15.609  17.113  14.654  0.0086  0.1365  0.1845
17380W        W34227   8.213  12.031   5.063 -0.0368  0.0445 -0.1138
17381W        W34228   5.828   6.809  14.977 -0.0192 -0.1893 -0.0482
17382W        W34229   2.232   3.155  12.452  0.1026 -0.1391  0.0859
17383W        W34230  12.428   2.242   1.284  0.2787 -0.2659 -0.3004
17384W        W34231   2.640  11.680   2.903  0.0687  0.1133 -0.2534
17385W        W34232   0.285  13.521   4.926 -0.1147 -0.2840 -0.2342
17386W        W34233  17.025   8.015  13.618 -0.1805  0.0818 -0.1663
17387W        W34234  15.081  16.150   5.054 -0.0344 -0.1740  0.0941
17388W        W34235  10.923   8.301   3.959 -0.1027 -0.1372 -0.1678
17389W        W34236  14.580   5.503  14.690 -0.0735  0.1317  0.1068
17390W        W34237  15.343   0.670   1.777 -0.0878  0.0247  0.0940
17391W        W34238  14.070   0.538   2.515  0.2468  0.0188  0.2351
17392W        W34239  15.861  13.069  12.473 -0.0019 -0.2329  0.1981
17393W        W34240  14.423   3.376  15.937  0.3939  0.1290  0.1814
17394W        W34241   8.367  15.819   2.166  0.0707  0.2071 -0.2128
17395W        W34242   5.641   1.114   4.920 -0.0143  0.1187  0.2104
17396W        W34243  12.853   1.664  14.613 -0.2426 -0.0849 -0.2230
17397W        W34244  10.014   3.863  13.574  0.1878  0.0395  0.3994
17398W        W34245   5.433   5.634   2.598  0.0403  0.1491  0.1698
17399W        W34246   0.143   7.037  14.726  0.1216 -0.3074 -0.4077
17400W        W34247   6.351  14.409  16.475  0.2919  0.0795 -0.0975
17401W        W34248   9.415  17.831  15.500  0.2731  0.1345  0.1388
17402W        W34249   0.932   4.352   0.336 -0.0220 -0.0403 -0.0356
17403W        W34250   7.333  15.304  15.045  0.0753  0.0819 -0.0073
17404W        W34251  17.747  15.155  13.712 -0.0068 -0.1099 -0.0135
17405W        W34252  14.241   9.945  15.467  0.1158 -0.1107  0.4247
17406W        W34253  12.810   3.184  15.887  0.1583  0.2629  0.3455
17407W        W34254   0.091  10.202  15.213 -0.1828 -0.6031  0.2507
17408W        W34255   7.943   9.029   3.729  0.3296  0.3267  0.1084
17409W        W34256  11.993   0.839   3.067 -0.1486  0.0584  0.0834
17410W        W34257   4.075   1.348   4.885  0.2856  0.1223  0.0178
17411W        W34258   0.476  10.976   4.370 -0.6072  0.2235 -0.0859
17412W        W34259   6.522   0.611  11.993  0.0441 -0.1323  0.1909
17413W        W34260  12.083   4.955  15.830 -0.3333  0.2663  0.1312
17414W        W34261   6.898   5.665   1.396 -0.0581 -0.0441  0.0288
17415W        W34262  12.470   9.796  16.151  0.0436 -0.1013  0.0285
17416W        W34263  10.299  10.279   5.271  0.1778 -0.0964  0.0892
17417W        W34264   0.399  13.001   5.110  0.1657  0.2002 -0.0112
17418W        W34265  10.769   5.197   4.555  0.2403  0.2138  0.1260
17419W        W34266  14.066   4.493   3.058 -0.4913 -0.2580 -0.0155
17420W        W34267   8.590   5.477   4.414 -0.0876 -0.3641  0.2224
17421W        W34268   7.488   6.664   0.924 -0.1459 -0.1574  0.1359
17422W        W34269   7.226   6.886  14.944  0.3139 -0.2503  0.0367
17423W        W34270   3.366   8.575  16.429  0.2041 -0.0882 -0.0350
17424W        W34271   4.438   9.422  14.969 -0.1631  0.0538  0.1972
17425W        W34272  11.829  17.715   0.973 -0.0373  0.3215  0.0792
17426W        W34273  18.039  12.189   1.440  0.1391 -0.0254  0.1200
17427W        W34274   8.539  16.183  15.090  0.1278  0.0145  0.1173
17428W        W34275  14.689  17.371  12.799  0.2498  0.1932  0.1855
17429W        W34276   6.691  11.987  12.225 -0.0098 -0.0382 -0.0032
17430W        W34277   1.330  17.957   2.800  0.1478 -0.5027  0.1364
17431W        W34278   0.876  12.412   4.830  0.1506  0.0575  0.2356
17432W        W34279  13.246   7.235   4.958 -0.1292  0.0188 -0.0312
17433W        W34280   8.973   7.189  15.306 -0.2001 -0.1236  0.2010
17434W        W34281  13.512  12.703  13.464  0.1282 -0.0841 -0.0813
17435W        W34282  13.675   5.737  14.423  0.2797  0.0559 -0.0849
17436W        W34283   0.946   7.408   2.369 -0.0750  0.0465 -0.0866
17437W        W34284  15.802   2.360   5.812 -0.0027 -0.0233 -0.0623
17438W        W34285  11.796  12.914  11.766  0.3302  0.0450  0.0250
17439W        W34286   4.674   7.487   3.257  0.3555 -0.1839  0.1184
17440W        W34287  17.922  16.025   2.932 -0.0465  0.1323 -0.2213
17441W        W34288   7.900   8.190   1.221  0.0418 -0.4281  0.0007
17442W        W34289   2.589  10.465   6.206  0.1218 -0.2331  0.4212
17443W        W34290   9.285   6.882   5.720  0.0912  0.0242 -0.0427
17444W        W34291   9.544  13.914   4.090  0.1829  0.0990  0.0233
17445W        W34292  16.727   1.121  14.400 -0.2225 -0.1942  0.0652
17446W        W34293  16.238  13.721  16.430 -0.0461  0.0561 -0.1462
17447W        W34294   8.815  11.155  14.907  0.2897 -0.5008  0.0310
17448W        W34295  17.469  12.406  13.077  0.2472  0.1387  0.3143
17449W        W34296   8.422   9.199  12.147 -0.2017  0.2276  0.0126
17450W        W34297  11.571   3.943  15.990  0.2942 -0.0595 -0.0580
17451W        W34298  11.323   5.490   0.185  0.1006  0.0037 -0.2057
17452W        W34299   1.412  14.682   2.964  0.1372  0.0088  0.1982
17453W        W34300  13.724  11.477   0.992 -0.0520  0.2631  0.0352
17454W        W34301   8.157  17.765   0.244 -0.1867 -0.0702 -0.0957
17455W        W34302  12.358  16.751  12.819 -0.0280 -0.1118 -0.2649
17456W        W34303   9.611  11.870   3.028  0.3167  0.3614  0.0079
17457W        W34304   9.522  10.947   4.307  0.1724  0.1216  0.1996
17458W        W34305   1.238   0.420  12.615  0.1312  0.3032  0.0852
17459W        W34306  16.579  13.943   2.796 -0.2881  0.1607  0.2163
17460W        W34307  10.945   2.837  13.882 -0.3291  0.3183 -0.0104
17461W        W34308   6.988   1.320  14.755 -0.0124 -0.1628  0.0663
17462W        W34309   4.998   0.808  15.298  0.0380  0.0857  0.3986
17463W        W34310  11.564  13.235   3.063 -0.1729 -0.0243 -0.0439
17464W        W34311  17.430  10.512  11.800 -0.4194 -0.1612 -0.3522
17465W        W34312   3.909  14.183   3.544 -0.1779 -0.0469 -0.0470
17466W        W34313   6.261   2.533  15.692 -0.1696  0.2150 -0.0932
17467W        W34314  12.667   8.701  16.552 -0.0185  0.1786 -0.0255
17468W        W34315  16.949  14.149   0.313  0.1348  0.1064  0.1793
17469W        W34316  14.300  13.519  16.600 -0.2732 -0.0346  0.1987
17470W        W34317  16.693   2.646   1.669  0.0823 -0.2003  0.1017
17471W        W34318  12.684  10.199   1.423  0.0150 -0.1046  0.1594
17472W        W34319   3.437   9.236  12.953  0.1465 -0.1962 -0.2105
17473W        W34320   2.959  10.004  12.174 -0.1117 -0.1589 -0.1265
17474W        W34321   2.843   5.629  14.676 -0.0895  0.3418  0.0069
17475W        W34322   3.294   2.153   5.179  0.1071  0.2795 -0.1771
17476W        W34323   2.325  17.658   5.013 -0.0620  0.0817  0.1343
17477W        W34324  12.073  15.257  16.397  0.1449  0.0239  0.0996
17478W        W34325  14.518  17.459   3.693 -0.0708 -0.2560 -0.0824
17479W        W34326   2.597   6.260  16.163  0.2015 -0.2944 -0.1081
17480W        W34327  16.321  17.554   3.210 -0.0031 -0.1588 -0.1040
17481W        W34328   5.862   4.647  13.203 -0.2750 -0.0715 -0.2333
17482W        W34329  15.776   0.344   0.852 -0.0670  0.0938 -0.1573
17483W        W34330  11.134   0.411  12.266 -0.2298 -0.0967  0.0625
17484W        W34331   5.017  12.724  14.690 -0.3071 -0.0817 -0.1500
17485W        W34332   1.666   6.937  12.724 -0.1440 -0.1140  0.1826
17486W        W34333  16.943   0.833  13.430 -0.0109 -0.2448 -0.1729
17487W        W34334  11.773   5.956  15.596 -0.0687  0.1653  0.3349
17488W        W34335  17.805   7.552   2.806 -0.0020  0.0535 -0.1183
17489W        W34336   5.909  16.599  15.655 -0.0426 -0.0556 -0.0708
17490W        W34337   7.142   5.531  13.736 -0.0982  0.2271 -0.2661
17491W        W34338   2.503   4.407  16.113 -0.1427 -0.0074 -0.0539
17492W        W34339  12.683   5.829   0.493 -0.1667 -0.1421  0.0369
17493W        W34340   6.802  11.395  13.906  0.0226  0.1422  0.2540
17494W        W34341   2.974  15.738   4.879  0.0069 -0.0639  0.3063
17495W        W34342   0.486   2.132   2.275  0.0147 -0.0372  0.1994
17496W        W34343  13.374   1.845   4.248 -0.0316  0.1281 -0.2174
17497W        W34344   0.199   6.691   1.466  0.0535 -0.0261  0.0072
17498W        W34345  13.061   3.327  10.970  0.2935  0.1024  0.1830
17499W        W34346   1.220  10.615   5.594 -0.1079  0.0584 -0.1114
17500W        W34347   9.186  10.980   3.493 -0.1676  0.2011 -0.0572
17501W        W34348   6.300  16.344  13.136 -0.2322  0.2645  0.4004
17502W        W34349  14.362   5.120  14.395 -0.0628 -0.3290  0.3239
17503W        W34350   1.291  14.451   2.023  0.2978  0.3323  0.0195
17504W        W34351  13.213   3.565  14.239 -0.1421 -0.0745  0.0987
17505W        W34352  16.150  13.897  12.068 -0.3066  0.0193  0.1290
17506W        W34353   1.792   1.654   1.369 -0.1951  0.0745 -0.1073
17507W        W34354   6.044  13.948   1.666 -0.2811  0.3649  0.0494
17508W        W34355  16.012   7.044   2.436  0.1241  0.0284  0.1643
17509W        W34356  15.295  15.201   3.467 -0.1290  0.0241  0.1224
17510W        W34357   7.087  14.427  16.426 -0.0173 -0.1768 -0.1037
17511W        W34358   4.486   6.527  12.315 -0.3634  0.1460 -0.0880
17512W        W34359   3.397   9.066  13.996 -0.0312  0.2747  0.2428
17513W        W34360  12.462   3.535  15.552 -0.0896  0.1732 -0.1842
17514W        W34361  16.150   7.533   3.283 -0.2349 -0.1318  0.3105
17515W        W34362   2.333   9.113   0.400 -0.0768  0.0438 -0.0124
17516W        W34363   9.578  12.888  12.463  0.2015  0.0037  0.0571
17517W        W34364   7.065   8.075  13.324  0.1955 -0.1983  0.3875
17518W        W34365  14.257  10.263   5.541  0.1676 -0.0900 -0.0245
17519W        W34366   1.811   1.384  16.387  0.1026  0.0819 -0.4485
17520W        W34367   5.695  12.213   3.720  0.2337 -0.0407  0.2009
17521W        W34368   5.734   8.289  16.119  0.0065 -0.0766  0.1893
17522W        W34369   8.308   4.524   2.887 -0.0503  0.1475  0.1018
17523W        W34370   1.391   6.330   3.844 -0.1050 -0.0684 -0.0805
17524W        W34371  13.743   5.554  15.737 -0.0652  0.2423  0.0292
17525W        W34372   3.013  11.324   0.052  0.0478 -0.1616  0.2910
17526W        W34373  10.950   5.722  12.507  0.2887  0.1280 -0.1653
17527W        W34374  17.112  13.155  10.720  0.4023 -0.2322 -0.0629
17528W        W34375   6.213  12.956  11.883 -0.0720  0.2413 -0.0011
17529W        W34376   6.268   4.422  15.511  0.0577  0.2157 -0.1533
17530W        W34377   3.949   5.594  13.201 -0.2337 -0.0693 -0.2956
17531W        W34378   0.883   1.440  11.305 -0.1204 -0.0884 -0.1179
17532W        W34379   6.333   1.500  15.529  0.1548  0.0873  0.0364
17533W        W34380   0.646   0.631  12.577  0.4354  0.0465 -0.1044
17534W        W34381  11.239  14.616  15.843  0.2791  0.2175 -0.0880
17535W        W34382   8.293  12.374  12.937  0.2082  0.1063 -0.0220
17536W        W34383  14.349  11.505   4.217  0.2450  0.0403 -0.0456
17537W        W34384  17.454  13.015   3.334 -0.0502  0.0257  0.0690
17538W        W34385  12.362  15.166   2.927 -0.0202 -0.0246  0.0633
17539W        W34386  17.997   3.751   0.241  0.0355 -0.2009  0.0263
17540W        W34387   8.937  13.032  11.743  0.4153 -0.2114  0.0223
17541W        W34388   9.557  13.345  15.587 -0.0293 -0.3387 -0.2741
17542W        W34389  16.390   4.912   1.296 -0.0353 -0.1606 -0.0516
17543W        W34390  14.183  11.722   1.767  0.1669 -0.0323  0.4733
17544W        W34391   1.397   5.616   0.142 -0.3652  0.0054 -0.0974
17545W        W34392   5.057   3.791  14.569  0.0685 -0.0583 -0.1433
17546W        W34393   1.766  13.384  11.895 -0.1510  0.1242  0.2534
17547W        W34394  14.825   7.902   5.672  0.2720  0.3058 -0.1778
17548W        W34395  15.788   9.594   4.516  0.1754 -0.2825 -0.2404
17549W        W34396   3.970  10.578   4.424 -0.0142 -0.0510 -0.0912
17550W        W34397  11.934  14.776  11.456  0.1922 -0.2613  0.0312
17551W        W34398   4.603  10.561   5.463 -0.1572  0.1375  0.0024
17552W        W34399   8.032  11.433  12.836  0.0830 -0.0424 -0.0157
17553W        W34400  13.642   7.236  15.114  0.1926  0.0402 -0.1060
17554W        W34401  15.445  13.051   5.521 -0.3480 -0.0881  0.1267
17555W        W34402  12.008  17.170   2.924 -0.2162  0.0349 -0.2126
17556W        W34403   0.842   4.624  14.375 -0.2562  0.1857  0.0651
17557W        W34404  13.772   9.736   6.238  0.0104 -0.0267  0.3929
17558W        W34405  15.648   7.128  12.191 -0.1514 -0.0337 -0.2742
17559W        W34406  14.666  14.149   0.257 -0.2126 -0.0646  0.0609
17560W        W34407   1.410   6.034   2.893 -0.0977  0.2074 -0.0034
17561W        W34408  10.790   4.621  14.054 -0.0275 -0.1273  0.0135
17562W        W34409   1.106  17.063   5.009  0.0264  0.0399 -0.0854
17563W        W34410   0.269  15.282   4.140 -0.0572  0.0460  0.0666
17564W        W34411  11.225  14.026  14.272  0.1830  0.1752 -0.0498
17565W        W34412   2.443  14.222   1.262  0.3005 -0.2833  0.2440
17566W        W34413   9.241   3.706   0.080  0.2246 -0.5097 -0.0222
17567W        W34414   0.323   5.799   0.486 -0.1728 -0.1297  0.2421
17568W        W34415   4.260  12.779   2.595 -0.0918 -0.1071  0.0162
17569W        W34416  16.179  16.738   0.633 -0.3074 -0.0338  0.1196
17570W        W34417   2.753   4.489   0.676 -0.0648  0.0948 -0.1116
17571W        W34418   8.488   7.878  12.312 -0.2665  0.2458 -0.1070
17572W        W34419  16.000  10.872  12.831  0.1273 -0.1438 -0.1990
17573W        W34420   4.316   6.248   3.706 -0.0435  0.3159 -0.0474
17574W        W34421  15.889  10.205   3.592 -0.3809 -0.0929  0.1120
17575W        W34422  11.097   3.760   0.643 -0.1032 -0.2018  0.0661
17576W        W34423   4.139  13.610  14.739  0.2066  0.1333 -0.0567
17577W        W34424   5.879  11.369  13.000 -0.0336  0.2626 -0.0635
17578W        W34425   0.742  10.608  12.266 -0.0031  0.1048  0.2050
17579W        W34426   3.416   2.387  16.145 -0.0713  0.1815  0.3937
17580W        W34427   2.348   3.599   1.018  0.0724 -0.0818 -0.0307
17581W        W34428  14.950  17.745   2.562  0.0655  0.2235 -0.1628
17582W        W34429   4.604   8.278   5.287  0.1300 -0.0987  0.4088
17583W        W34430  11.755   4.560   1.188 -0.0288 -0.0044 -0.0176
17584W        W34431   0.152   6.289   3.654  0.1716  0.0247 -0.3325
17585W        W34432   4.032  16.694   3.750  0.0195 -0.0131 -0.3374
17586W        W34433  13.296   5.452   0.612 -0.0467  0.0516 -0.2423
17587W        W34434  14.780   6.133   3.161  0.1190 -0.1479  0.1086
17588W        W34435  17.481   0.077  14.413 -0.0765  0.3118 -0.2625
17589W        W34436  18.039   0.031   1.963  0.0987  0.1090  0.0206
17590W        W34437  16.569  17.462   1.100  0.0146  0.1311  0.2436
17591W        W34438   1.937   6.737   1.469 -0.4156  0.1465 -0.1832
17592W        W34439  14.632   6.996  15.280 -0.1104 -0.3596  0.0705
17593W        W34440   1.322   1.494   2.135 -0.1704  0.1851 -0.2552
17594W        W34441   5.860  15.328   4.248  0.0124 -0.2724 -0.1227
17595W        W34442   9.021  10.127  15.544  0.3001  0.0284  0.3331
17596W        W34443   6.512   1.430  11.635 -0.1562  0.2000  0.0931
17597W        W34444   5.870   0.495  11.257  0.2514  0.1669 -0.0424
17598W        W34445   4.124   2.361   0.627  0.1473 -0.0962 -0.2079
17599W        W34446   2.308  12.698   4.667  0.1211  0.0215  0.1661
17600W        W34447   7.847   3.073   0.724 -0.4084  0.0349  0.0388
17601W        W34448   4.751   1.781  13.859 -0.0421 -0.0117 -0.0278
17602W        W34449   0.170  10.517  15.592  0.1366  0.1191  0.1975
17603W        W34450  14.494   0.699   4.808  0.0271  0.0960  0.1393
17604W        W34451   9.342   7.478  13.204  0.1538 -0.2321  0.2025
17605W        W34452   6.571  16.827  11.750 -0.0652  0.1801  0.0828
17606W        W34453   9.941   3.666   2.224 -0.3685 -0.0028 -0.3293
17607W        W34454  10.740  16.988   1.629  0.2551 -0.0422  0.2525
17608W        W34455  10.069   6.921   1.966  0.1718 -0.1313 -0.0992
17609W        W34456   7.128   2.528  15.337 -0.1466 -0.3787  0.0461
17610W        W34457   0.003   0.650  14.747 -0.0214  0.1507  0.3687
17611W        W34458  18.006  10.276   1.740  0.3508  0.1767 -0.0625
17612W        W34459   4.395   5.124  14.633 -0.0764 -0.1843 -0.1759
17613W        W34460   4.820   5.474   3.816  0.0627 -0.0033  0.0481
17614W        W34461  13.842   4.081   0.055 -0.2691  0.0590  0.2167
17615W        W34462   5.952   8.283  11.700  0.0604  0.2233  0.2974
17616W        W34463  10.043   2.108   2.947 -0.1957 -0.0295  0.1632
17617W        W34464   7.305   7.807  12.466 -0.0248  0.1621  0.3138
17618W        W34465   8.505  15.162   1.347  0.0547  0.1386  0.3565
17619W        W34466   3.423  11.561   2.050  0.0097 -0.1005  0.0525
17620W        W34467   5.483  12.437   2.838  0.3568 -0.0662 -0.1321
17621W        W34468  13.691   8.112  13.578 -0.1103  0.0413 -0.1891
17622W        W34469  10.308  16.060   2.781  0.2243  0.1189  0.1220
17623W        W34470   3.814   0.259   4.870  0.0318 -0.0960 -0.0246
17624W        W34471  14.384   2.267  14.111  0.0403 -0.2472 -0.1888
17625W        W34472  11.441   0.849   1.084 -0.1332  0.0730  0.0091
17626W        W34473   0.409  10.125   0.949 -0.0125 -0.0886 -0.0371
17627W        W34474   1.137  16.990  13.872  0.0281 -0.0254 -0.4136
17628W        W34475   7.088  12.797   0.484  0.2296  0.2975  0.0320
17629W        W34476  16.013   4.173   0.712  0.3610  0.2251 -0.0559
17630W        W34477   1.334  13.162  14.648  0.3737  0.1766  0.0339
17631W        W34478   3.458  17.192  15.671 -0.1830 -0.2201  0.2005
17632W        W34479  16.345  14.419   4.642 -0.1872 -0.2171  0.1271
17633W        W34480  16.980   2.916   3.952 -0.3076 -0.0832 -0.0300
17634W        W34481   3.441  16.063  16.675  0.3980 -0.0070  0.0091
17635W        W34482   9.168  12.280   1.266  0.0254  0.1079 -0.0040
17636W        W34483  14.647   7.705  13.555  0.0238  0.0568 -0.1999
17637W        W34484   5.727  16.150   4.494  0.0972 -0.1496 -0.0941
17638W        W34485   7.215  15.134   1.376 -0.0531 -0.0236  0.2730
17639W        W34486  12.426  15.284   4.076 -0.0575 -0.2133  0.1546
17640W        W34487   9.481  17.227  14.828  0.0179  0.0359  0.0948
17641W        W34488   9.759   0.958   5.166 -0.0776  0.0054  0.0548
17642W        W34489   4.713   6.322   4.014 -0.1766  0.0469 -0.0099
17643W        W34490   3.403  18.001   0.466 -0.2996 -0.1041 -0.0281
17644W        W34491   5.084   8.037   3.756  0.3011 -0.2253 -0.3490
17645W        W34492  15.241   4.739  13.167  0.2057 -0.0145  0.0102
17646W        W34493  12.071  17.960   1.845  0.3341 -0.2370  0.1751
17647W        W34494   4.065   8.467  14.759 -0.1767 -0.0961 -0.0251
17648W        W34495   5.326   6.652  11.921 -0.3467 -0.2309  0.1909
17649W        W34496  13.597  13.701   0.135 -0.2352  0.1510 -0.0295
17650W        W34497   2.332   4.339   1.596  0.1074  0.3606  0.3141
17651W        W34498   0.697  12.052  14.252  0.0022  0.1034  0.3724
17652W        W34499  17.000   5.979   2.830  0.3356  0.2595 -0.1968
17653W        W34500   5.097   9.221   3.484  0.1797  0.2580 -0.1659
17654W        W34501  14.961  11.697   2.110 -0.1009 -0.1389 -0.2080
17655W        W34502   5.976  15.361  12.329 -0.0717 -0.0415 -0.3890
17656W        W34503   1.633   6.251   6.334 -0.2814 -0.1895  0.0374
17657W        W34504   7.499   0.490  13.966 -0.0620  0.0182  0.1981
17658W        W34505   0.767   3.925  16.136  0.1651  0.2428  0.2514
17659W        W34506  18.057  12.189   5.088  0.0474 -0.0219 -0.2601
17660W        W34507  10.579   1.131  14.555  0.2170 -0.1445 -0.2166
17661W        W34508  11.939   1.637   1.516  0.2052  0.3225 -0.2597
17662W        W34509   7.048  16.106  11.539  0.0223 -0.0356  0.1293
17663W        W34510  17.688   3.152   1.850 -0.3665 -0.1635 -0.2294
17664W        W34511   8.515  11.297   6.217 -0.1132  0.0637 -0.1104
17665W        W34512   4.960   1.553   1.111  0.3718 -0.0389  0.2344
17666W        W34513  12.767   0.418   1.303  0.0141 -0.0249  0.0552
17667W        W34514   4.716  10.044  13.658 -0.2175 -0.0299  0.0765
17668W        W34515  13.085  17.321   3.649 -0.2152 -0.0692 -0.2838
17669W        W34516  16.518   0.170   4.938 -0.2815 -0.2441  0.1298
17670W        W34517  15.496  11.089  16.014 -0.1709  0.1809  0.0950
17671W        W34518  10.920  13.577  14.355 -0.2633 -0.2839 -0.0085
17672W        W34519  10.012  10.996   4.114 -0.1651 -0.0313  0.1733
17673W        W34520  11.627   5.965  12.028 -0.2122  0.0661  0.0858
17674W        W34521   9.273  13.533   2.649 -0.1324  0.1117 -0.1596
17675W        W34522  17.509  17.558  11.798  0.0330  0.1950 -0.2324
17676W        W34523  11.906   5.218  13.458 -0.0913  0.1219  0.2567
17677W        W34524  14.478   5.765   3.011  0.0049 -0.1355 -0.0324
17678W        W34525   9.294   2.466   2.254  0.3607  0.2496 -0.0513
17679W        W34526  11.431   1.057   4.426  0.1166 -0.1616 -0.2737
17680W        W34527   3.301  12.045   2.458 -0.3272 -0.0642  0.0144
17681W        W34528   9.986   8.308   1.488  0.0424 -0.1804  0.2641
17682W        W34529   9.947   1.357  15.967 -0.1771  0.1003 -0.1392
17683W        W34530   2.250   5.775   5.358  0.1678  0.0257 -0.0965
17684W        W34531  17.738   6.174  11.602  0.2532  0.0356  0.0676
17685W        W34532  15.357   3.962  13.877 -0.0069  0.2505  0.1310
17686W        W34533   1.881  10.716  12.959  0.2407  0.0286 -0.3068
17687W        W34534  16.960   4.127  14.794 -0.2162 -0.0694 -0.0089
17688W        W34535   9.025   5.788   1.868  0.0198 -0.0239  0.1093
17689W        W34536   9.512   5.637   6.376 -0.0554  0.1750 -0.1245
17690W        W34537   7.068   5.852  13.363 -0.3276 -0.3495 -0.2719
17691W        W34538   1.580  17.175  14.212 -0.1236  0.0470  0.0526
17692W        W34539   1.666  10.674  15.418  0.2179  0.0512 -0.1457
17693W        W34540   1.958  11.184  14.684 -0.4162  0.0568  0.5359
17694W        W34541   7.515   9.494   0.569  0.0655  0.0875  0.1420
17695W        W34542  13.752   8.806   0.642  0.1976  0.3650  0.0795
17696W        W34543   6.707  14.790  16.588  0.3573 -0.2217 -0.1368
17697W        W34544   3.864   1.503   0.856 -0.1184 -0.1236 -0.0411
17698W        W34545  11.727   1.339  12.438  0.0183  0.1619 -0.1684
17699W        W34546   3.874   9.627   5.764 -0.0217 -0.4244  0.3048
17700W        W34547   7.276   2.147   5.291 -0.1927 -0.0772 -0.0456
17701W        W34548   8.794  16.778   2.228 -0.0607  0.1285  0.2182
17702W        W34549  17.262  12.629  14.810 -0.2570 -0.2811  0.2525
17703W        W34550   6.689  12.820  13.759  0.1145 -0.1434  0.1438
17704W        W34551   1.726  11.368  13.709 -0.0128 -0.1527  0.3511
17705W        W34552  12.259  13.477   0.193 -0.1851  0.2095 -0.2056
17706W        W34553   3.628  13.505  16.097 -0.1861 -0.0615  0.3061
17707W        W34554   0.334  17.170   1.241 -0.3543  0.0780  0.0352
17708W        W34555   0.012   9.557   5.165  0.0036  0.1530  0.0638
17709W        W34556  17.958  11.729  11.654 -0.0913  0.3563 -0.0544
17710W        W34557   1.260   2.814   1.194  0.1260 -0.0564 -0.0211
17711W        W34558  13.972   9.821   0.496 -0.0547  0.0257  0.0383
17712W        W34559   3.109   9.193  15.677 -0.2303  0.0336  0.1066
17713W        W34560   2.529   5.483  13.572  0.1820  0.0322 -0.1221
17714W        W34561  17.837   1.204  11.966 -0.0832 -0.2706  0.0723
17715W        W34562   5.804   6.327   0.933 -0.1548  0.1547  0.0134
17716W        W34563  10.809   3.020  12.495 -0.0883 -0.1343 -0.4128
17717W        W34564  11.234  12.375  16.564 -0.2203  0.0494 -0.1251
17718W        W34565   5.545  13.817   6.637  0.1010 -0.2446 -0.0199
17719W        W34566  13.487  13.476  11.777 -0.1107 -0.1115  0.0689
17720W        W34567   2.573  15.954   2.415  0.1255  0.0011 -0.4401
17721W        W34568  17.272   2.799  15.194 -0.2756  0.1916 -0.2145
17722W        W34569   2.821   9.265   3.697 -0.1858  0.2029  0.0251
17723W        W34570  13.996  13.847  16.417 -0.2905  0.3288  0.1989
17724W        W34571  16.187   6.920  14.754 -0.0683  0.0434 -0.0288
17725W        W34572  14.718  10.997  14.596 -0.1073 -0.0856  0.0096
17726W        W34573   5.652   5.684   5.424  0.0375 -0.3926  0.1725
17727W        W34574   4.365  10.331   4.644  0.0582  0.4382 -0.0600
17728W        W34575   5.480  15.162   0.877 -0.0877  0.1361 -0.1152
17729W        W34576   7.850   5.165  13.321  0.0686  0.5052 -0.1770
17730W        W34577  12.659  13.122  10.482 -0.1621 -0.2245  0.0214
17731W        W34578  18.007  15.936   2.077  0.1777 -0.0121  0.0521
17732W        W34579   9.756  12.865   4.854 -0.0012 -0.3352  0.1740
17733W        W34580  11.328  15.586  16.261 -0.1374 -0.1387 -0.2136
17734W        W34581  16.502   1.897  12.689  0.2138  0.1015  0.0271
17735W        W34582  16.928   9.205   3.734 -0.4318  0.2219 -0.2470
17736W        W34583  10.032   7.115  11.762  0.0980  0.5531 -0.1179
17737W        W34584  13.799   6.974   1.710  0.0578 -0.0224  0.1485
17738W        W34585   6.422   6.749   4.110 -0.0995  0.3025  0.2029
17739W        W34586   2.404   3.050   1.038 -0.3231  0.1860  0.1372
17740W        W34587   3.388  12.406   0.599  0.0869 -0.2285 -0.2787
17741W        W34588  13.791  14.847   2.649 -0.2025 -0.1977  0.1724
17742W        W34589   3.869   8.684   3.353  0.0550  0.0927 -0.4480
17743W        W34590  11.133  12.112   2.137 -0.2206  0.2133 -0.1019
17744W        W34591  17.531  13.136   1.167  0.1786  0.4130  0.2428
17745W        W34592   5.226   5.692   3.564 -0.1340 -0.0385  0.2814
17746W        W34593   1.112   9.943   2.950  0.0852  0.0626  0.0181
17747W        W34594  13.596  12.002   5.326  0.0828 -0.4945  0.1177
17748W        W34595  14.966   4.212   5.151 -0.0697 -0.3418  0.0240
17749W        W34596   7.698  17.938   2.520  0.0561 -0.1142 -0.0463
17750W        W34597   5.492   2.968  12.869 -0.2272  0.0562  0.1407
17751W        W34598  12.193   5.262  14.339 -0.1812  0.3069 -0.0550
17752W        W34599   4.862   8.888   4.141  0.0400 -0.0859 -0.0104
17753W        W34600   3.529  14.594   0.414 -0.2371 -0.2297  0.1047
17754W        W34601   2.087   6.832  15.832  0.3017 -0.0007  0.2013
17755W        W34602   8.861  17.343   4.961 -0.0497 -0.0271 -0.0158
17756W        W34603  10.054   8.905  13.926  0.1667  0.0628 -0.0095
17757W        W34604   0.048   5.425  16.395 -0.0772  0.1423  0.1248
17758W        W34605   7.021   6.350   4.060  0.1899  0.2249 -0.0982
17759W        W34606   9.586   5.736   2.271  0.1410 -0.0707 -0.1404
17760W        W34607  10.281   8.640   2.359  0.0869 -0.0960  0.0421
17761W        W34608   8.979  16.461   1.560 -0.1389 -0.0364 -0.3411
17762W        W34609   6.134   1.947  14.882  0.0934  0.0891  0.0817
17763W        W34610  15.079  10.395  16.145 -0.0776  0.1272 -0.2291
17764W        W34611  14.349  11.173   2.970  0.3398 -0.3272 -0.2344
17765W        W34612   0.110   6.577   2.710  0.0721  0.0424 -0.0593
17766W        W34613   1.521   6.618   3.088 -0.2713 -0.3300  0.2079
17767W        W34614  11.577  17.031   1.478 -0.4225 -0.2012  0.1039
17768W        W34615   5.040   6.580   0.652 -0.1401 -0.2363 -0.1698
17769W        W34616   2.918   7.389   2.321 -0.1211 -0.1274  0.2061
17770W        W34617  17.528   3.486  14.129 -0.0541 -0.2476  0.0845
17771W        W34618   3.142  16.328   1.241  0.0679 -0.0408 -0.2773
17772W        W34619   6.913  12.312   1.101 -0.1075  0.1338 -0.2465
17773W        W34620  10.770  13.063  13.670  0.2773  0.0185  0.1677
17774W        W34621   8.178   9.924   1.819 -0.0530 -0.2379  0.2922
17775W        W34622   3.895   9.190  15.236  0.1405  0.1032 -0.3582
17776W        W34623   6.297  16.848  16.465  0.0634 -0.1179  0.0401
17777W        W34624  13.757   6.254   3.004  0.1287  0.1123  0.0828
17778W        W34625  12.705  13.229  14.596  0.1275 -0.2121 -0.1061
17779W        W34626  15.238   9.908  13.169 -0.2721 -0.1209  0.2195
17780W        W34627   7.658   6.364  12.938 -0.0402 -0.2110  0.1252
17781W        W34628   1.402   4.964   4.653  0.1396  0.0325  0.4009
17782W        W34629  15.032  10.835   1.981 -0.3896  0.3199 -0.1332
17783W        W34630   2.086  13.588   5.256 -0.0052 -0.3303  0.3687
17784W        W34631   6.025   6.258   4.848 -0.0123 -0.0641 -0.1927
17785W        W34632   5.470  13.823  13.526  0.4535 -0.0165 -0.0088
17786W        W34633   7.549  15.038   2.808 -0.0599  0.2100 -0.5161
17787W        W34634   6.454   9.592   5.565 -0.3972  0.0172  0.0493
17788W        W34635  14.696  12.844   0.207  0.1654  0.1372 -0.0080
17789W        W34636  17.892  16.918   4.593 -0.0192  0.1093  0.0698
17790W        W34637  13.699  13.270   2.671  0.1853  0.2332 -0.3306
17791W        W34638   1.373  16.481   1.938 -0.1867 -0.0020  0.0113
17792W        W34639  17.443  12.126   2.638 -0.1134 -0.2535 -0.1117
17793W        W34640   5.511   5.525   1.893 -0.1009  0.3877 -0.0265
17794W        W34641  10.875   2.149  12.088  0.0253  0.3333 -0.0857
17795W        W34642   7.468   6.310   2.756 -0.0905  0.0880 -0.0979
17796W        W34643   2.198   4.845   3.266  0.1670 -0.0059  0.3654
17797W        W34644   6.164  13.941   4.153  0.0060 -0.0778  0.1204
17798W        W34645   6.280   3.081  12.971 -0.0442  0.1012  0.2788
17799W        W34646   7.763   7.041   0.141 -0.1166 -0.1375 -0.0203
17800W        W34647   2.178  12.567   4.051 -0.1266 -0.1708  0.2455
17801W        W34648   7.824  12.635   2.248  0.0980  0.0628 -0.0148
17802W        W34649   0.746   5.837  12.392  0.2823 -0.1288  0.1179
17803W        W34650  17.941   1.295  14.802 -0.1332  0.1199 -0.0778
17804W        W34651   1.048  12.866   5.057  0.3639  0.3487  0.0024
17805W        W34652   2.436  13.837   5.502  0.1630  0.2238 -0.1393
17806W        W34653   2.361  13.447  13.784  0.2219 -0.0875  0.1207
17807W        W34654  15.409  18.019  13.677 -0.0050  0.1822  0.0380
17808W        W34655   4.129   9.127  14.170 -0.1135 -0.0219 -0.0778
17809W        W34656   4.257  13.927   3.280 -0.1437 -0.0069 -0.3131
17810W        W34657   2.504   6.175   3.522  0.2308  0.0859 -0.1832
17811W        W34658   9.956   7.177  13.016  0.0856 -0.0373  0.0743
17812W        W34659  10.653  15.466  13.702 -0.0856 -0.4628  0.1633
17813W        W34660  16.005   4.973  12.281  0.2225 -0.0817  0.2104
17814W        W34661  12.778   3.549  11.344 -0.0552  0.1204 -0.1915
17815W        W34662   0.173   2.831  15.694 -0.0570 -0.1082 -0.0585
17816W        W34663   4.406  14.910   3.924  0.1229 -0.0190  0.0978
17817W        W34664  15.690   9.642   1.291 -0.3853 -0.0886 -0.1352
17818W        W34665   6.003  15.941  11.454  0.1678 -0.0012  0.0126
17819W        W34666   1.664  14.416  15.474  0.0462  0.0580  0.2162
17820W        W34667   3.809  10.035  15.544 -0.0648  0.3387  0.0053
17821W        W34668   5.181   8.628   5.061 -0.0988 -0.5023  0.1856
17822W        W34669   0.638   8.093  13.600 -0.3644  0.1202  0.1855
17823W        W34670   2.492  14.956   4.461 -0.2268 -0.3796 -0.1058
17824W        W34671   5.190  13.846  14.021 -0.0877 -0.0227  0.1435
17825W        W34672  12.829  17.845  11.423 -0.0801  0.0165  0.1929
17826W        W34673  12.386   5.248  11.837  0.2971 -0.0227 -0.0174
17827W        W34674   6.327   8.522   1.242 -0.1369  0.4027  0.4195
17828W        W34675   7.802   0.486  12.518 -0.2697  0.3836  0.0424
17829W        W34676   5.202   5.975  12.081  0.0855 -0.2194 -0.2628
17830W        W34677   6.704   8.752   1.553  0.1039  0.1463  0.1177
17831W        W34678   5.090   8.351  16.350 -0.1132  0.2329 -0.0608
17832W        W34679  17.061   6.680   3.391  0.1261  0.1155  0.0775
17833W        W34680  17.811   0.424   2.104  0.1270  0.0811  0.0818
17834W        W34681  11.303  14.359   3.314  0.0624  0.2397  0.1643
17835W        W34682   1.995   2.470  11.558 -0.2158  0.2207 -0.3447
17836W        W34683   4.562  15.291  12.286  0.2829 -0.0918  0.0745
17837W        W34684   9.528  16.229   4.683  0.0831  0.0941 -0.2707
17838W        W34685  15.779   1.090   4.254  0.0918  0.3614 -0.3979
17839W        W34686  13.431  13.450   2.055  0.3346  0.0002  0.0851
17840W        W34687  17.059  16.138  12.929 -0.0180  0.1493 -0.0856
17841W        W34688   3.768   9.396  13.853 -0.2591  0.0986  0.3543
17842W        W34689   9.356   3.389   1.212  0.0263 -0.0488  0.1840
17843W        W34690   8.967   7.420  12.791 -0.1693  0.1132  0.0218
17844W        W34691   4.450   7.630   2.683  0.0156 -0.1793 -0.1876
17845W        W34692   5.132  12.438   1.964  0.1854 -0.0508 -0.1657
17846W        W34693  13.693   1.638  16.054  0.0968  0.1622  0.1286
17847W        W34694   6.203   0.370   3.128 -0.0172  0.2495 -0.0785
17848W        W34695  17.024   4.234  16.006  0.0880  0.0098  0.2053
17849W        W34696   3.407   4.128  14.743 -0.0966 -0.0518 -0.0773
17850W        W34697   1.914   1.210   0.554 -0.4062 -0.4304  0.1398
17851W        W34698   6.925   2.643  14.915  0.1276 -0.3051 -0.0989
17852W        W34699  16.608   4.863   4.589 -0.0819 -0.0406  0.2509
17853W        W34700  13.189  10.542   5.222 -0.0831 -0.3439  0.3556
17854W        W34701   1.323  15.679   4.118  0.0505 -0.0855 -0.1786
17855W        W34702  16.620  15.268  12.177  0.0379  0.0215  0.4975
17856W        W34703   8.662  14.632   2.236 -0.1058  0.3024 -0.0890
17857W        W34704   4.737   3.659   0.872 -0.2021  0.2949  0.1982
17858W        W34705   4.699  12.964  15.023 -0.2005 -0.2003  0.0451
17859W        W34706   4.380   0.824  12.483  0.3758 -0.2966  0.1386
17860W        W34707   3.565   7.918  15.445 -0.2764 -0.2537 -0.1372
17861W        W34708   8.013   0.823  13.203  0.0037  0.4548  0.0814
17862W        W34709  14.857   3.877  12.918  0.3230  0.1887  0.0313
17863W        W34710  10.519   3.322   3.362  0.2881  0.3150  0.0424
17864W        W34711   9.085   1.092  13.430  0.0859 -0.2539 -0.0854
17865W        W34712   7.466  10.807   3.974  0.1351  0.0197 -0.0003
17866W        W34713   6.797   2.403  11.530 -0.0119  0.1390  0.0803
17867W        W34714   5.923   7.630   3.740 -0.0306  0.0046 -0.1429
17868W        W34715  10.203  16.158   3.781  0.3041  0.2416 -0.0191
17869W        W34716  13.339  14.016  14.934 -0.0976  0.0858  0.0780
17870W        W34717   0.497   7.611  13.827 -0.1390  0.1180 -0.1159
17871W        W34718   8.469   0.581   5.797 -0.0909  0.0436 -0.2511
17872W        W34719  15.624   3.367   2.349 -0.2272  0.1601  0.0903
17873W        W34720  14.024   9.900  13.780 -0.0678  0.0805  0.0246
17874W        W34721   3.727  10.085   0.126  0.2117  0.0344 -0.1213
17875W        W34722   9.727   7.948   4.333 -0.0363  0.1117  0.1461
17876W        W34723  14.139   2.889  15.785  0.0015 -0.0313 -0.1322
17877W        W34724   6.424   8.825  16.417  0.1003  0.0518 -0.1204
17878W        W34725   6.945   6.856   4.964 -0.0431  0.1812  0.2323
17879W        W34726   3.841   6.809   0.448  0.3673 -0.1508 -0.1162
17880W        W34727  11.078   3.510  14.705  0.1393  0.0075 -0.1449
17881W        W34728  15.598   8.753   1.575 -0.1179 -0.1042 -0.0680
17882W        W34729  12.289   8.467  11.735 -0.2828 -0.2790 -0.0239
17883W        W34730  10.861   9.396   0.266  0.1164 -0.0149 -0.3232
17884W        W34731   9.438   2.308  13.876 -0.1585  0.0394  0.1321
17885W        W34732  14.101  16.621  16.043 -0.0315 -0.1702  0.1570
17886W        W34733   6.999   7.399  14.745  0.0704  0.0238 -0.0173
17887W        W34734   4.254   3.255   3.164 -0.0027  0.0454  0.3706
17888W        W34735  15.352   1.951  15.266  0.0948  0.2000  0.0518
17889W        W34736  16.617   0.811   3.483 -0.3333 -0.2229 -0.1319
17890W        W34737  12.257  12.937  14.665  0.2373 -0.0007 -0.3457
17891W        W34738  17.478   1.928  12.810  0.1465  0.2874  0.1071
17892W        W34739   9.501   4.021   3.275 -0.0411  0.1798  0.1706
17893W        W34740   5.948   9.042  16.533 -0.0585  0.1232 -0.1073
17894W        W34741   8.682  17.463  11.303 -0.0145 -0.0875 -0.3567
17895W        W34742   8.733  10.791   1.457 -0.3624 -0.1668  0.0505
17896W        W34743  15.578  18.014   0.587  0.0631  0.0657 -0.1462
17897W        W34744  10.867  15.071   2.999 -0.0767  0.3482  0.2436
17898W        W34745  16.765   8.808  12.478  0.1647  0.0721  0.2784
17899W        W34746   4.930   2.574  12.155 -0.2291 -0.3789  0.0625
17900W        W34747   9.610   5.480   0.412 -0.1018 -0.2961  0.3523
17901W        W34748  12.330   9.900   5.886 -0.1462  0.2207  0.3345
17902W        W34749   9.563  17.732  12.136 -0.0891 -0.1033 -0.1702
17903W        W34750   8.424   0.871   1.516  0.2494  0.0511 -0.0267
17904W        W34751   0.924   4.222   1.420 -0.3830 -0.1380 -0.0122
17905W        W34752   0.828   7.121   0.270 -0.2402  0.0129  0.0154
17906W        W34753   4.997  11.771  14.790  0.2874 -0.0448  0.2528
17907W        W34754  10.768   2.668  15.768 -0.3651  0.2551 -0.0111
17908W        W34755   0.096  14.406  14.168  0.2689 -0.0816 -0.0020
17909W        W34756  15.855   4.806  15.676 -0.1155 -0.3266 -0.2129
17910W        W34757   9.143   7.839  15.588 -0.2983 -0.3329 -0.3103
17911W        W34758   4.275  13.772   4.593 -0.1364  0.1799  0.0213
17912W        W34759   2.167   7.247  15.434  0.3963 -0.0428 -0.3702
17913W        W34760   1.727  17.131  14.738  0.1202  0.1583 -0.1479
17914W        W34761   7.896  12.355  16.626  0.2416 -0.0271 -0.0000
17915W        W34762   9.295   6.035  13.337  0.1231  0.0205 -0.2471
17916W        W34763   9.720   4.271  16.373  0.3456 -0.0783 -0.1455
17917W        W34764   2.723   4.949   0.379  0.4049 -0.1144 -0.2110
17918W        W34765   4.063   7.972   1.784  0.2304  0.1389  0.0070
17919W        W34766   5.430  17.554   4.121 -0.0127 -0.3294 -0.0280
17920W        W34767   6.117  16.365   3.875 -0.0838  0.4578 -0.0106
17921W        W34768   5.518  15.254   1.886  0.0506  0.2373  0.0683
17922W        W34769   1.925  13.766   3.228 -0.1808 -0.1512  0.4003
17923W        W34770  13.666   1.161   0.135  0.0372  0.2633 -0.1798
17924W        W34771   8.411   5.610  14.893 -0.3739  0.2905  0.0467
17925W        W34772   8.450   4.678  16.197  0.0834  0.0491  0.1263
17926W        W34773  15.487  16.914  12.449 -0.4296 -0.0754  0.3228
17927W        W34774   3.029  11.711   5.587  0.1774 -0.4917  0.1324
17928W        W34775   5.547  10.768   5.535  0.1324 -0.3557  0.1084
17929W        W34776   4.560  11.026  16.451  0.0440 -0.0380 -0.0456
17930W        W34777  18.023  16.452  11.600  0.1266  0.2347  0.1102
17931W        W34778  17.375  17.418   1.895  0.2160 -0.2779 -0.1159
17932W        W34779   9.091   5.208  14.743  0.0247 -0.1079 -0.0961
17933W        W34780   0.079   3.130   5.157  0.1591  0.2043  0.0315
17934W        W34781   2.948  17.974   4.339  0.0157 -0.1358 -0.1580
17935W        W34782   3.710  13.380  16.568  0.1787 -0.1060 -0.1542
17936W        W34783  12.745   3.303  14.026  0.1682  0.1321  0.2094
17937W        W34784   3.927  15.853  13.005 -0.1091  0.1057  0.1285
17938W        W34785   0.111   8.178   4.501  0.1164 -0.0993 -0.2045
17939W        W34786  11.830   9.529  15.490 -0.1491  0.3167  0.1250
17940W        W34787  12.528   0.609  14.590 -0.0180 -0.2580 -0.5139
17941W        W34788   0.174   2.412  16.408  0.2823 -0.1443  0.2118
17942W        W34789  15.605  15.614  16.060 -0.1670 -0.0597 -0.0265
17943W        W34790  12.396  16.839   3.973 -0.0328 -0.2771  0.0208
17944W        W34791   5.390  13.866  11.567  0.0363 -0.1602 -0.3726
17945W        W34792   2.374   7.660  12.564 -0.0709  0.1189  0.0797
17946W        W34793   5.116  12.711   3.178 -0.0887  0.2713  0.1043
17947W        W34794   3.432  14.698  16.629  0.1205  0.1140  0.3131
17948W        W34795  15.629   0.255  11.733  0.0021  0.2638 -0.2348
17949W        W34796   1.861   7.212   5.311  0.2219  0.1880 -0.2529
17950W        W34797  16.333   7.259  15.658  0.0925  0.0723 -0.0887
17951W        W34798   1.958   4.934   2.486 -0.1538 -0.1133  0.0213
17952W        W34799   1.949  15.836   1.062 -0.3268 -0.1502 -0.1533
17953W        W34800   0.764   4.668   3.181  0.0087 -0.1526  0.0924
17954W        W34801   0.278  15.250  11.819 -0.0007 -0.0466 -0.0789
17955W        W34802  10.493  12.871  13.273 -0.0960  0.0370  0.2159
17956W        W34803   4.545  17.477   4.179  0.1808 -0.1690 -0.2700
17957W        W34804   0.641   1.339   2.176 -0.2418 -0.3712 -0.1259
17958W        W34805  11.283  11.374   1.806  0.2827 -0.0179  0.2172
17959W        W34806  16.898  13.294  12.438 -0.1494  0.0944  0.1444
17960W        W34807   2.924  16.224  15.316  0.0343 -0.1844 -0.4183
17961W        W34808   4.928   9.690  13.293 -0.0312  0.0804 -0.1211
17962W        W34809   4.460  11.284   4.525  0.1718 -0.0323 -0.1555
17963W        W34810  10.440  14.752   0.647 -0.2903 -0.1355  0.1314
17964W        W34811   1.067   6.100  14.979  0.3286 -0.2402 -0.0471
17965W        W34812  14.870   2.893  13.086 -0.0090 -0.0907  0.1391
17966W        W34813   4.737  12.083  16.593 -0.1096  0.2416 -0.2459
17967W        W34814   1.906   3.525  12.287 -0.0018 -0.1006  0.0320
17968W        W34815   0.558  16.745   0.406 -0.0637 -0.0580  0.3580
17969W        W34816  17.620  16.905  15.687 -0.2973 -0.2241 -0.1445
17970W        W34817  17.244  15.108   2.222  0.1330  0.0549 -0.2171
17971W        W34818  13.141   9.172   0.491  0.1756 -0.2344  0.1029
17972W        W34819   4.126   2.992  16.080 -0.1166  0.3217 -0.0314
17973W        W34820   9.329  17.071   1.033 -0.1111 -0.1171  0.2286
17974W        W34821  17.018  17.511  16.414  0.0674  0.3700  0.5436
17975W        W34822   1.875  17.033   3.867 -0.1669 -0.1233  0.1600
17976W        W34823  15.099   8.110   3.073 -0.1927 -0.0892 -0.1304
17977W        W34824  12.157   6.737   5.866  0.0514 -0.0641  0.0165
17978W        W34825  15.564   3.265   3.462 -0.0911  0.0330  0.1951
17979W        W34826   9.034   4.435   3.403  0.1523  0.1812 -0.0254
17980W        W34827   3.296   2.689   6.145  0.1749 -0.1335 -0.2209
17981W        W34828   6.213  12.087  12.289  0.4788 -0.1039  0.0994
17982W        W34829   9.769   9.314   6.315 -0.2768 -0.0003  0.0900
17983W        W34830   9.293   7.377  15.667 -0.1628 -0.0228 -0.1299
17984W        W34831  12.094  17.152   1.437  0.0706 -0.1271 -0.1838
17985W        W34832  17.336  12.342  12.207 -0.0705  0.1386 -0.0003
17986W        W34833  17.295  10.361   4.586  0.2250 -0.0718 -0.0199
17987W        W34834  13.551   8.370   0.730 -0.4385 -0.2615 -0.2873
17988W        W34835  17.472  11.003  11.792  0.2926  0.1913 -0.1104
17989W        W34836  15.619   7.382  16.326  0.0422 -0.0530  0.0201
17990W        W34837  17.150  11.866  11.926 -0.4055 -0.0406  0.1501
17991W        W34838   2.418  13.670   2.872 -0.1223  0.0066  0.0874
17992W        W34839   5.633   2.343  16.477  0.0628  0.0624 -0.2984
17993W        W34840   6.552  12.044   0.247 -0.2091 -0.0978  0.5408
17994W        W34841   9.344   7.095   4.522 -0.0478  0.0369 -0.1610
17995W        W34842  16.094   2.656   5.472 -0.0317  0.4098  0.0945
17996W        W34843  11.284   1.937  15.575  0.0930 -0.3263  0.1519
17997W        W34844   1.967   4.034  12.305  0.4036  0.1792 -0.3757
17998W        W34845   2.410   4.067   4.172 -0.0065  0.2589 -0.2570
17999W        W34846  14.747  15.970  11.126 -0.0126  0.0505  0.2642
18000W        W34847   0.401   4.782  14.259 -0.0712  0.0599 -0.0372
18001W        W34848   0.392   0.641   0.158  0.2781  0.0424 -0.1754
18002W        W34849   2.857   1.943  14.306  0.1663 -0.0994 -0.2035
18003W        W34850  13.576  14.526  15.935 -0.0290  0.1607  0.0775
18004W        W34851   0.757  15.818   2.859  0.2734 -0.1695  0.2843
18005W        W34852  15.615  11.033   1.127 -0.0760  0.0668  0.1063
18006W        W34853  12.106   3.752   3.822  0.1941 -0.3721 -0.0393
18007W        W34854  12.633   2.719   2.922 -0.2737  0.2053 -0.0075
18008W        W34855   9.920  10.669   2.825  0.0210 -0.0104  0.0085
18009W        W34856  10.574  12.809  12.456  0.0784 -0.0244 -0.1431
18010W        W34857  11.270  11.535  16.548  0.0077  0.0903  0.0326
18011W        W34858   5.532   9.466  12.780  0.0150 -0.1434  0.0659
18012W        W34859  16.201  17.637  12.285 -0.0786 -0.0782 -0.2670
18013W        W34860   9.225   2.451  10.771 -0.0101 -0.0703 -0.0342
18014W        W34861   7.846  11.375  15.396 -0.1361 -0.1622 -0.1506
18015W        W34862  17.082  12.618  11.803  0.0068 -0.1125  0.1083
18016W        W34863   7.783  10.711  15.510 -0.1274  0.1629  0.2574
18017W        W34864   9.777  10.143  12.530 -0.3100 -0.0201  0.1155
18018W        W34865   8.188   6.591  13.977 -0.2517 -0.0689  0.0786
18019W        W34866  10.699  13.847  15.356  0.0729 -0.3339 -0.2761
18020W        W34867   3.231   1.162   5.319 -0.1548 -0.0471 -0.1500
18021W        W34868  10.234  15.174  13.893 -0.1843  0.3139 -0.1483
18022W        W34869   0.089  15.911  11.719  0.0949  0.2071  0.2699
18023W        W34870  10.639  10.924   1.506 -0.1731 -0.0957 -0.3671
18024W        W34871   9.408  16.749   1.610  0.0538 -0.1720  0.1278
18025W        W34872  14.703  13.048  12.398  0.1362  0.1801  0.2133
18026W        W34873   5.657   5.236  16.111  0.0134  0.0498 -0.1558
18027W        W34874  13.497   6.699  12.476  0.1040  0.0400  0.1299
18028W        W34875   8.941  15.701  16.458 -0.2426 -0.2936  0.1887
18029W        W34876  10.283   1.263   3.382 -0.0687 -0.1141 -0.2000
18030W        W34877   7.365   4.716  15.237 -0.3309 -0.0190 -0.1759
18031W        W34878  17.969   8.230  14.174  0.0495 -0.1747  0.1587
18032W        W34879  16.368   3.010  14.535  0.1074 -0.0200  0.2121
18033W        W34880   1.333   9.077   3.788  0.1676 -0.0261  0.2438
18034W        W34881   6.652  17.628  11.525 -0.1058 -0.3194 -0.3019
18035W        W34882  17.862   4.673  14.077  0.1363  0.0219  0.1344
18036W        W34883  15.689  17.407  13.284  0.0537  0.2600 -0.1137
18037W        W34884   7.312   5.328   1.046  0.2324 -0.2000  0.0263
18038W        W34885   2.198  14.398  15.994 -0.0999  0.1455 -0.1104
18039W        W34886   4.874   4.727   4.510 -0.3587  0.2697 -0.0018
18040W        W34887   4.698  16.075   2.613  0.0376  0.3165 -0.1734
18041W        W34888  11.873   5.687  13.161  0.1295 -0.1475 -0.0253
18042W        W34889  15.614  17.052  13.767  0.1663 -0.1970 -0.2737
18043W        W34890   5.168   9.325  16.018  0.2286  0.3775 -0.3447
18044W        W34891   3.116   8.087  16.253 -0.1756 -0.1530  0.1616
18045W        W34892   5.133  13.373   0.426 -0.0386 -0.1005  0.0713
18046W        W34893   6.018  14.576  11.750  0.0160 -0.0305 -0.1485
18047W        W34894   4.063   3.858  15.638  0.3218 -0.1110  0.2357
18048W        W34895   7.560   6.469  11.626  0.1400 -0.1723  0.2122
18049W        W34896   7.443  13.293   1.192  0.0802  0.0090  0.0410
18050W        W34897  12.127  10.049   1.638 -0.2318 -0.0284  0.3462
18051W        W34898  17.423   1.988   4.864 -0.0565 -0.3359  0.0801
18052W        W34899   8.312  10.723  14.868 -0.0787 -0.1279 -0.0298
18053W        W34900   3.969   6.410   3.103 -0.0390 -0.0478  0.0570
18054W        W34901   6.056   1.734   5.798 -0.0187 -0.1252  0.2331
18055W        W34902   3.182   7.112   4.284  0.0855  0.1263  0.0441
18056W        W34903   0.535  12.348  11.792  0.2951 -0.1456  0.2777
18057W        W34904  16.290   1.878   2.147  0.2225  0.2366  0.1259
18058W        W34905  16.489   0.304   0.319 -0.3241  0.2106  0.2899
18059W        W34906   9.793  16.593  14.786  0.0490 -0.0921 -0.0568
18060W        W34907   5.314  15.138  14.979  0.2506  0.0041 -0.2869
18061W        W34908   8.446   5.023  12.033  0.1880  0.1064  0.4924
18062W        W34909  13.245  15.847  12.185  0.0627  0.0280 -0.0199
18063W        W34910   2.900  16.035  11.361 -0.0585  0.2082  0.2171
18064W        W34911  17.799  13.464  14.064 -0.0270  0.0798 -0.0225
18065W        W34912   5.145  16.125   2.338 -0.0240 -0.0523 -0.0220
18066W        W34913   3.528   8.858   3.704 -0.1401 -0.2623 -0.2042
18067W        W34914  15.562  17.564  14.728 -0.1264  0.0217  0.3214
18068W        W34915  13.687   8.301   2.234  0.0389  0.0021 -0.1303
18069W        W34916  12.718   2.274  14.842 -0.2045  0.0129  0.0582
18070W        W34917   2.041  12.645   0.068 -0.2326 -0.0366 -0.1309
18071W        W34918   5.243  17.912  12.049  0.0787 -0.2087  0.0536
18072W        W34919   3.667  12.598  11.971  0.0625  0.1680 -0.1709
18073W        W34920  15.742  10.777  14.329  0.0989 -0.0710 -0.0688
18074W        W34921  10.609   9.698  12.795 -0.0087 -0.0373 -0.3437
18075W        W34922   7.457   4.974   0.248  0.4417 -0.1414  0.2147
18076W        W34923  11.162  17.927  10.966  0.0980  0.1240 -0.0287
18077W        W34924   1.603  17.094  11.634  0.1273  0.0388 -0.1470
18078W        W34925  16.690   5.865   0.811 -0.1379 -0.3273  0.1286
18079W        W34926   7.657   6.183   1.368  0.3231 -0.0244  0.0853
18080W        W34927  14.923   2.157  13.267  0.1758 -0.0959 -0.4700
18081W        W34928  16.953   3.287  15.807 -0.0568  0.1071 -0.2473
18082W        W34929  16.910  12.484   0.830  0.2797 -0.0108  0.0232
18083W        W34930   6.809  11.039   3.192  0.1340 -0.0592 -0.0656
18084W        W34931  17.256  12.213   0.582 -0.2553  0.1021  0.2373
18085W        W34932   6.790   0.949   0.606  0.2977 -0.2285  0.3119
18086W        W34933  16.604  10.632  15.208 -0.0016  0.1408 -0.1624
18087W        W34934  17.196   1.906   2.234 -0.0155  0.2593  0.1522
18088W        W34935  12.566   2.508  12.162  0.0274  0.2212 -0.0954
18089W        W34936   8.053   8.586  12.402  0.2830  0.0345  0.0689
18090W        W34937   1.511  14.119   0.047 -0.1295  0.5298 -0.0536
18091W        W34938  10.255   4.068   4.738  0.1064  0.1994  0.0558
18092W        W34939   1.411  13.526  13.766  0.0715 -0.0655 -0.2123
18093W        W34940  12.646   9.148  16.271 -0.2874  0.1003 -0.0133
18094W        W34941   5.063  16.940  16.435  0.0665  0.1707 -0.0563
18095W        W34942   9.189   0.616  15.401 -0.1283  0.1325 -0.2493
18096W        W34943   6.531   4.849   1.916  0.0576 -0.1352  0.1544
18097W        W34944   8.930  17.076  15.645 -0.0012  0.0987  0.0617
18098W        W34945   1.494  11.179   4.343 -0.0880 -0.0268  0.2688
18099W        W34946  11.317   6.561   2.647  0.2708  0.1359  0.0127
18100W        W34947   2.789   2.488   0.537 -0.0790 -0.1645  0.1063
18101W        W34948   3.010  17.594   0.559  0.0295  0.0102  0.0714
18102W        W34949  17.426  15.438   3.270  0.2986  0.2314 -0.0273
18103W        W34950   6.536   8.149  13.339  0.2063 -0.0488  0.1451
18104W        W34951  12.137   1.523  12.698  0.2653  0.0971  0.0049
18105W        W34952   8.921  13.776  16.444  0.0701 -0.1668  0.0703
18106W        W34953   1.604  14.277   1.037  0.3360  0.0965 -0.1703
18107W        W34954  16.636   4.424  15.196  0.0726  0.3139 -0.3731
18108W        W34955   2.845   7.806   2.659  0.0368  0.0775  0.1952
18109W        W34956  13.152  15.379  12.471  0.0468 -0.3386 -0.0668
18110W        W34957  13.482   4.566   0.805  0.0058 -0.4416 -0.3382
18111W        W34958  14.750   3.555  14.543 -0.0757 -0.2190  0.0577
18112W        W34959   8.114  13.142   1.004  0.3003  0.0156  0.0182
18113W        W34960  10.765  16.871   4.956 -0.3453 -0.3244 -0.1788
18114W        W34961   0.180   2.661  11.945 -0.0562  0.0994 -0.0886
18115W        W34962   0.218  11.739  12.958 -0.0160 -0.0683  0.1675
18116W        W34963   0.328   5.584   5.091  0.1893  0.0961 -0.0047
18117W        W34964   1.207   0.568   3.183 -0.0555  0.2354  0.3169
18118W        W34965   4.600  11.105  12.334 -0.1082 -0.1414 -0.0933
18119W        W34966   3.546   3.559   4.664 -0.0340  0.1062  0.1714
18120W        W34967  13.842   1.690  15.128 -0.3575 -0.2597  0.1888
18121W        W34968  10.408  12.776   1.630 -0.1346 -0.1536  0.2697
18122W        W34969  12.222  12.262   0.844  0.0561 -0.1840 -0.0916
18123W        W34970   7.619   7.961  16.166 -0.0950  0.4129  0.1689
18124W        W34971  15.020   1.999   4.726  0.2189 -0.1456  0.0564
18125W        W34972  12.055   8.842   4.427 -0.3576  0.0510  0.1911
18126W        W34973   1.569   1.065   4.863  0.0145  0.1406  0.1327
18127W        W34974   9.263  15.423  13.736  0.1493  0.4193 -0.2836
18128W        W34975   7.283  16.387   4.762 -0.0899 -0.2128 -0.1761
18129W        W34976   1.975  10.407  15.850 -0.0695 -0.2050 -0.4763
18130W        W34977   9.954   5.132  11.969  0.0107  0.1038  0.0626
18131W        W34978  11.951   3.049   4.952 -0.1403 -0.2697 -0.0932
18132W        W34979   3.752   6.197   1.547 -0.0675  0.3960  0.2146
18133W        W34980  13.484   7.730  16.578 -0.0063  0.2873 -0.0438
18134W        W34981  16.932  13.973   1.271 -0.0243 -0.0773  0.0673
18135W        W34982   0.424   2.006   0.454 -0.0965 -0.0109 -0.0938
18136W        W34983   5.285  14.289  14.334 -0.1293 -0.1284 -0.0998
18137W        W34984   1.872   6.882  13.258 -0.0630 -0.0475 -0.0867
18138W        W34985   1.615  17.045   3.440  0.0829  0.1124 -0.0797
18139W        W34986  16.317  14.999   3.833 -0.2319 -0.1283 -0.1308
18140W        W34987  16.010  16.292  14.427  0.1236 -0.2083 -0.0404
18141W        W34988   7.721   3.885  16.097  0.1314 -0.0423 -0.0539
18142W        W34989  15.785   7.517   1.018 -0.0964  0.0646 -0.0235
18143W        W34990   9.314   1.586  14.455 -0.0814  0.0267 -0.2817
18144W        W34991   8.222  11.800  12.249 -0.1322 -0.0679  0.0671
18145W        W34992   0.452   1.408  12.638  0.3844  0.0332 -0.0730
18146W        W34993  14.967   9.405   0.296 -0.1114 -0.0537  0.0434
18147W        W34994   8.146  16.667  16.358  0.1852 -0.0737 -0.0155
18148W        W34995  17.232   6.455  12.388  0.0770  0.0325 -0.3231
18149W        W34996   8.425   1.498   4.632 -0.0536 -0.1521  0.2183
18150W        W34997   7.546   5.860  13.941 -0.3474 -0.1281 -0.1815
18151W        W34998  13.658   5.484  13.323  0.0224  0.0720  0.0854
18152W        W34999   2.057   6.419  13.365 -0.2589 -0.4438 -0.1701
18153W        W35000  13.201   6.221  13.775 -0.1194 -0.3098  0.1174
18154W        W35001   4.571  10.706  16.032 -0.1745  0.0268  0.0173
18155W        W35002   2.635   1.003  15.048 -0.1974 -0.0841  0.1646
18156W        W35003  17.289   2.504   3.936  0.2014  0.0729 -0.0614
18157W        W35004  17.120  16.208   1.555 -0.2952 -0.0636  0.0869
18158W        W35005  10.550   1.727  13.839 -0.2049  0.3971 -0.0299
18159W        W35006   2.360   1.442  14.838 -0.1392  0.0489  0.0091
18160W        W35007   4.544   9.955  15.007 -0.0383  0.1588 -0.2101
18161W        W35008  17.554   5.638   2.012 -0.2424 -0.0176  0.0001
18162W        W35009  13.114  17.450  11.734  0.3659 -0.2347  0.0336
18163W        W35010   9.659   5.241   2.529 -0.0090  0.2404 -0.0329
18164W        W35011  15.748   4.354  16.403  0.1391  0.2474  0.1631
18165W        W35012   3.253   0.851   4.281  0.0683  0.0237  0.1944
18166W        W35013   4.922  16.265   0.939 -0.3758  0.2154 -0.3282
18167W        W35014  11.591   4.104   4.851 -0.3006  0.4127 -0.1724
18168W        W35015   2.072  12.671  15.691 -0.0926  0.1590 -0.0860
18169W        W35016   3.295  11.575  12.836 -0.1659 -0.1798  0.0631
18170W        W35017   7.291   5.250   5.245  0.0194 -0.1458  0.1728
18171W        W35018   3.311  11.701  15.345 -0.1870 -0.0833 -0.2682
18172W        W35019   8.887   6.147   3.323 -0.4002 -0.0136  0.0577
18173W        W35020   8.021  11.342  12.337  0.0187 -0.2223 -0.5542
18174W        W35021   6.718   4.454  15.838 -0.2358 -0.4197  0.1890
18175W        W35022   7.027   5.361   0.535 -0.2146  0.0106  0.1035
18176W        W35023   3.056  17.060  14.628  0.1317  0.3089 -0.0938
18177W        W35024  10.302  16.348   0.061 -0.0855  0.0380 -0.2752
18178W        W35025   3.145  13.093   2.806 -0.2478  0.1640  0.0534
18179W        W35026   4.039   1.581   2.043 -0.1152 -0.0699 -0.1875
18180W        W35027   8.595   0.662   2.473 -0.1364 -0.0074 -0.1271
18181W        W35028   1.365   8.186  12.838 -0.1423 -0.0922 -0.2193
18182W        W35029  11.702  14.479  14.231  0.2542  0.0056  0.0777
18183W        W35030  13.584   4.045  12.943 -0.1266  0.0023  0.2165
18184W        W35031   8.238   6.839  14.933 -0.2100  0.3851 -0.4388
18185W        W35032  16.488  15.322  15.157  0.1731 -0.0787 -0.2572
18186W        W35033   1.829   3.703  16.374 -0.0222  0.3252 -0.3115
18187W        W35034  11.694  17.761  12.197 -0.2141 -0.0111 -0.3705
18188W        W35035  16.649  10.015  10.986  0.1225  0.1248  0.1914
18189W        W35036  14.084   4.457   4.491 -0.1159  0.0229  0.2990
18190W        W35037   4.835   0.634  12.390 -0.0422 -0.1107  0.2012
18191W        W35038  13.625  12.830   2.288 -0.0776 -0.0469 -0.2388
18192W        W35039   0.555   9.599  12.692 -0.0880 -0.2434  0.3733
18193W        W35040   9.995   2.997   5.208  0.1997 -0.0318  0.1679
18194W        W35041   6.835   8.505   3.945 -0.1769  0.1981  0.1072
18195W        W35042   0.871   7.687  14.727 -0.0681 -0.0868  0.1172
18196W        W35043   3.938  10.672  13.101 -0.2846  0.3813 -0.0209
18197W        W35044  17.939   5.493   3.319  0.0535  0.0796 -0.1539
18198W        W35045   6.256  13.956  14.345  0.2261  0.5980 -0.2068
18199W        W35046  11.809  11.713  13.525 -0.2056  0.1202 -0.2098
18200W        W35047  17.296  13.750  13.017 -0.1013 -0.0820  0.0979
18201W        W35048  15.589  16.641   2.723 -0.1370 -0.0432 -0.0197
18202W        W35049   1.649  10.063  13.506  0.0974 -0.0040  0.0592
18203W        W35050  15.609  11.174  14.109 -0.0281  0.3342  0.0229
18204W        W35051   9.667  14.831   3.950  0.2508 -0.1913  0.0288
18205W        W35052   4.215  17.045   5.508  0.0046  0.0016  0.2212
18206W        W35053  15.028   4.613  15.968 -0.2562 -0.2410  0.0885
18207W        W35054   4.802   8.604   1.263  0.0972  0.3391 -0.0484
18208W        W35055  12.621  13.796   2.528  0.1665  0.1223  0.0964
18209W        W35056  17.789  14.689  14.897 -0.0528 -0.0542  0.1374
18210W        W35057   5.585  17.824   0.800 -0.0423  0.0924  0.0215
18211W        W35058  16.019  17.033  14.946  0.0223  0.2154  0.0447
18212W        W35059   1.602  15.403  15.230  0.1345 -0.1535 -0.1734
18213W        W35060  10.733   8.270  15.387  0.1339 -0.0256 -0.3175
18214W        W35061   0.738  17.914   4.489  0.1040  0.1207  0.0596
18215W        W35062   4.550  11.707  13.260 -0.0243 -0.4115 -0.0139
18216W        W35063  16.267   4.320   5.239 -0.0894  0.0467 -0.2127
18217W        W35064   3.054   7.652   0.023  0.1013  0.1949  0.0705
18218W        W35065  10.367   2.605   0.862 -0.3346 -0.3015  0.1773
18219W        W35066  10.362   4.999   0.512 -0.0251 -0.3301  0.1091
18220W        W35067   3.782   1.383  13.369  0.0867  0.0289 -0.2821
18221W        W35068   8.201  12.528  13.437  0.1772  0.2556  0.1736
18222W        W35069   6.050   5.456   5.079 -0.2031 -0.0970  0.0188
18223W        W35070  10.546  10.887  16.221 -0.0369 -0.0551  0.0690
18224W        W35071   6.852   9.368  12.847 -0.1502 -0.2777  0.2048
18225W        W35072  17.624  18.020  11.905 -0.0535 -0.1143  0.0150
18226W        W35073   0.121   0.504   1.737 -0.1205 -0.2641  0.0684
18227W        W35074   7.876   9.224  13.579  0.0581 -0.1344 -0.0069
18228W        W35075   2.069   6.811  15.120  0.0525  0.4546  0.0545
18229W        W35076  16.530  13.318   4.478  0.0848 -0.0783  0.3114
18230W        W35077   6.171   3.003  15.912 -0.0452  0.0938  0.0724
18231W        W35078   7.553  11.312  11.542 -0.2678  0.0706 -0.0515
18232W        W35079  10.393   6.092   4.501 -0.3372  0.0850 -0.0317
18233W        W35080  11.704  11.500  15.614 -0.2563 -0.1302  0.2105
18234W        W35081   1.607   9.514  16.098 -0.1247 -0.0850  0.0925
18235W        W35082   4.274   9.264  12.609  0.1853  0.3059  0.1796
18236W        W35083  12.982  10.009  12.467 -0.1548 -0.0600  0.0218
18237W        W35084   8.504  17.292  15.790  0.2161 -0.0030 -0.0382
18238W        W35085   4.752  10.353  13.213  0.1183 -0.2686 -0.2014
18239W        W35086  17.238  16.027   3.903 -0.2714  0.1149  0.1285
18240W        W35087   0.750  14.744   4.074  0.1148  0.0289  0.0800
18241W        W35088   6.983  13.704  16.218 -0.0761 -0.1483  0.0794
18242W        W35089  15.855   6.792   3.821  0.0589  0.0975  0.3094
18243W        W35090  16.709  10.884  14.040  0.1918 -0.2292 -0.1463
18244W        W35091  11.870   4.340  13.947  0.0043  0.1458 -0.0137
18245W        W35092  11.054   6.844   4.776 -0.0582  0.0096  0.1351
18246W        W35093  10.220  13.508   3.041  0.0553 -0.0068 -0.0195
18247W        W35094   9.996   6.610   5.596  0.0774 -0.4542  0.0207
18248W        W35095  15.041   8.540   4.860 -0.2140 -0.1028 -0.2129
18249W        W35096   6.710   7.146   4.098  0.0714 -0.3829 -0.0110
18250W        W35097  12.804   8.754  14.445  0.0994 -0.2434 -0.0817
18251W        W35098  10.364   4.849   3.163 -0.3326  0.0104 -0.2198
18252W        W35099  14.748  10.202   1.979  0.0658 -0.1380  0.0758
18253W        W35100  15.500  17.854  11.634 -0.0406 -0.0731  0.2413
18254W        W35101   1.050   9.988  14.351 -0.1008  0.0913 -0.0255
18255W        W35102  11.370   4.919   3.619  0.1418  0.0642 -0.1064
18256W        W35103  15.854   0.238   3.864  0.0309  0.0925  0.1545
18257W        W35104   8.266   8.146   6.088  0.0282 -0.1665  0.1910
18258W        W35105   9.385   7.485   2.651 -0.0627  0.0219  0.2044
18259W        W35106  14.279   6.432   4.899  0.1119 -0.0737 -0.1277
18260W        W35107  17.142  12.981   1.923  0.3527 -0.0584 -0.0520
18261W        W35108  16.468   0.523   1.656  0.1958 -0.0431 -0.2202
18262W        W35109  10.546   0.828  16.164  0.1471 -0.3764 -0.0743
18263W        W35110  12.601   2.658  10.901 -0.3939  0.1987 -0.2320
18264W        W35111  17.685   0.547   2.974  0.0749 -0.0801 -0.0605
18265W        W35112   4.735  16.523   2.299 -0.1241  0.0446 -0.0897
18266W        W35113   4.714   6.113  12.133 -0.0293 -0.2844 -0.1390
18267W        W35114  11.322   9.594  15.869 -0.1667 -0.0381 -0.0604
18268W        W35115  12.115   4.618   4.238  0.2144  0.0128  0.1694
18269W        W35116  12.936  13.585  13.796 -0.1139 -0.0786 -0.0410
18270W        W35117   5.470  11.325   5.472  0.1760  0.1180  0.0526
18271W        W35118  13.164   6.747   3.210  0.0574 -0.2016  0.2016
18272W        W35119   0.305  14.520   0.514 -0.3024 -0.2738 -0.2624
18273W        W35120  12.432  10.950   1.749 -0.3483  0.0368  0.0052
18274W        W35121  13.446   9.803  14.013  0.5289 -0.3111  0.1225
18275W        W35122  12.339   2.544  13.865 -0.1398  0.0615  0.0274
18276W        W35123   2.205  17.511   0.773 -0.1047  0.0459 -0.0101
18277W        W35124  15.969  16.357   0.024 -0.4591  0.1766 -0.2078
18278W        W35125   2.988   6.798   0.360 -0.0131 -0.0389 -0.1911
18279W        W35126   7.595  17.750  16.318  0.2209 -0.0383 -0.2064
18280W        W35127  10.169   0.530  13.031  0.2863 -0.0660 -0.0626
18281W        W35128   1.962   9.880   0.220  0.0604  0.3576 -0.0397
18282W        W35129   0.691  15.175  13.463  0.0741  0.1849  0.1291
18283W        W35130   2.881   0.455   4.183  0.0385 -0.2979 -0.2993
18284W        W35131   6.325  17.367  14.289  0.2809  0.3331 -0.0118
18285W        W35132  15.212   0.396  14.832  0.0678  0.2641 -0.2323
18286W        W35133   2.210   4.605  15.751  0.2222  0.1792 -0.0501
18287W        W35134   0.015   0.270   4.828 -0.1330 -0.0053 -0.0113
18288W        W35135  13.140  14.439  16.182 -0.2086 -0.2462  0.2052
18289W        W35136  13.794   4.027   3.781  0.1240  0.0943  0.2581
18290W        W35137  10.048  12.774  12.616  0.0017  0.0040  0.0945
18291W        W35138  17.656   7.165   4.201  0.0772  0.0819 -0.0607
18292W        W35139   9.379  11.855  12.380  0.1955 -0.0561  0.0588
18293W        W35140  15.480   8.291  12.425 -0.1727 -0.1865 -0.2076
18294W        W35141   7.695  12.309  12.746  0.3488 -0.1356  0.2382
18295W        W35142  17.183  13.365  16.356  0.1883  0.0477 -0.1858
18296W        W35143   0.495   9.123  12.320  0.0743  0.3367  0.2471
18297W        W35144   5.348   5.198   2.241 -0.1784 -0.1029  0.2829
18298W        W35145  17.984  12.600   1.845  0.1712 -0.1360  0.0154
18299W        W35146  17.770  15.246  16.674  0.3106  0.1775  0.2422
18300W        W35147  15.496   5.731  15.118 -0.3501  0.1126  0.0807
18301W        W35148  12.032  15.530  13.373 -0.0566  0.1029  0.2638
18302W        W35149  12.318   4.654   3.779 -0.2691 -0.2258  0.2607
18303W        W35150  12.990  17.681  16.287  0.0697  0.0134  0.1497
18304W        W35151  12.443   5.716  15.059  0.0592 -0.0003 -0.2185
18305W        W35152   0.113   5.922   5.323 -0.1603  0.0063 -0.3159
18306W        W35153   2.410   6.483   2.731  0.0357 -0.3405  0.0962
18307W        W35154  16.486   6.680   3.041 -0.1574 -0.1855 -0.0368
18308W        W35155  10.220  15.224  12.830  0.2807  0.1202 -0.1754
18309W        W35156   9.045  12.617  13.701 -0.3012  0.2274  0.0181
18310W        W35157   8.004   0.334  13.556 -0.1267 -0.0049  0.2893
18311W        W35158  13.633   0.787   2.306  0.1714 -0.2341  0.5097
18312W        W35159  10.960  17.623   1.789  0.1255 -0.0403 -0.0711
18313W        W35160  15.824  11.111   2.296  0.1571  0.1743  0.4602
18314W        W35161  11.181  14.073   2.966  0.3210  0.1180  0.4620
18315W        W35162  10.278  13.914   2.210  0.1339  0.0017  0.0576
18316W        W35163   0.908  13.706  13.806 -0.1428 -0.1130  0.4485
18317W        W35164   9.651  11.515  14.352  0.2285  0.0371 -0.1825
18318W        W35165   3.177  16.654  15.859  0.1125 -0.1886 -0.0220
18319W        W35166   3.487   3.004   3.588  0.0217 -0.2248 -0.2629
18320W        W35167   2.468   8.990  14.766 -0.2083  0.0785  0.0143
18321W        W35168   5.093  15.576  16.136  0.3307 -0.0069  0.3518
18322W        W35169   4.787  13.109  12.091 -0.0727 -0.4148  0.0899
18323W        W35170  11.853   2.328   4.094 -0.4533  0.1379  0.0159
18324W        W35171  15.250   5.655   3.182  0.1061  0.0518  0.1068
18325W        W35172   2.068   5.191  16.253 -0.3591 -0.0744 -0.2549
18326W        W35173   1.770  10.748   4.227 -0.1026  0.0750 -0.2878
18327W        W35174   6.453  11.651   5.449 -0.2149 -0.1727 -0.4539
18328W        W35175   5.399   1.286  12.644 -0.0318 -0.2133 -0.2187
18329W        W35176  17.600  11.582   6.054 -0.1611 -0.3156 -0.1974
18330W        W35177   2.701  13.486   3.658 -0.0692  0.0792  0.3798
18331W        W35178   8.031  12.355  11.923 -0.0401  0.2613 -0.3253
18332W        W35179  14.622   2.225   2.217 -0.1729 -0.0207  0.1369
18333W        W35180  17.334  14.236   2.555 -0.1227  0.1003  0.4541
18334W        W35181  12.742   1.272   1.464 -0.0593 -0.0233 -0.1661
18335W        W35182  13.871   1.454  14.244 -0.0054  0.2289 -0.0238
18336W        W35183  15.490  11.264  16.555  0.0428 -0.1883 -0.1223
18337W        W35184  15.371  15.501   5.664  0.1332 -0.1769 -0.1585
18338W        W35185   4.134   4.621   2.033  0.0093  0.4429 -0.1115
18339W        W35186  16.457   7.201   2.707  0.0763 -0.3394  0.1226
18340W        W35187  15.745  14.479   3.270  0.1309  0.1115  0.0404
18341W        W35188  16.732   7.644   2.844  0.1761 -0.1614 -0.0575
18342W        W35189   8.995   3.976  15.047  0.3413  0.3839  0.1316
18343W        W35190   9.358  13.191   5.065  0.0747 -0.1917  0.2070
18344W        W35191  10.052   1.076   6.110 -0.1951 -0.0096 -0.0858
18345W        W35192  11.557  11.825   1.952  0.0839  0.0977 -0.0423
18346W        W35193   3.034   7.935   5.022 -0.4213 -0.0248 -0.0032
18347W        W35194  16.339   1.888   5.254 -0.1094  0.0678  0.1473
18348W        W35195  12.808   8.612   0.968  0.0457  0.1860  0.0869
18349W        W35196  16.816   7.771   5.146  0.2329 -0.2562  0.2882
18350W        W35197   4.176   2.078   2.380  0.2228 -0.1314  0.1173
18351W        W35198   4.123   3.098   0.754 -0.0709 -0.2630  0.1451
18352W        W35199  13.539   1.040   0.862  0.0716  0.0570  0.4880
18353W        W35200  10.602  13.360  15.158  0.2853 -0.3222  0.0000
18354W        W35201  11.465   9.832   0.115 -0.3946  0.1281 -0.0954
18355W        W35202   6.901   0.359  15.009  0.5215 -0.2323 -0.1785
18356W        W35203   5.425  17.382  13.743  0.0027  0.2370 -0.0547
18357W        W35204  17.811  16.929  13.848 -0.1767 -0.0088 -0.0771
18358W        W35205  13.890  12.293   5.043 -0.2027  0.2455  0.0178
18359W        W35206  13.823  10.323  16.524  0.1421 -0.0562  0.2416
18360W        W35207   4.772  14.033  12.983 -0.1155  0.0590 -0.1480
18361W        W35208   3.192   1.898  15.663  0.2473  0.2034  0.1457
18362W        W35209  14.902   4.406  12.332 -0.1549 -0.2319 -0.0063
18363W        W35210   1.539   7.469  16.059 -0.1749  0.4472 -0.0270
18364W        W35211  12.648  17.049   3.579 -0.0745 -0.0556  0.0909
18365W        W35212  17.551   1.708  13.694 -0.0520  0.1654  0.1538
18366W        W35213  14.942  13.778  16.576  0.0004 -0.1995  0.0701
18367W        W35214   4.520   5.438  11.668  0.0793  0.1920 -0.0042
18368W        W35215   2.482   9.991  12.025  0.3297  0.1203  0.0953
18369W        W35216   2.502  10.498  15.972  0.1062  0.0332 -0.2385
18370W        W35217   9.561   8.054  14.955  0.0999 -0.2933 -0.0716
18371W        W35218   1.327  13.784  16.170  0.0913 -0.1156  0.1115
18372W        W35219   4.447   2.799   3.020 -0.0211  0.0982 -0.2087
18373W        W35220   2.664   9.614  16.454  0.0885 -0.1128 -0.0910
18374W        W35221  14.789  15.902   3.368  0.3343 -0.2524  0.2983
18375W        W35222  15.491  10.018   1.652  0.1035 -0.0308 -0.1801
18376W        W35223  17.556  11.290  13.924 -0.1512  0.3174 -0.0241
18377W        W35224   7.937  12.988  13.512 -0.1037  0.1542 -0.4092
18378W        W35225   9.008  13.428  15.973  0.2789 -0.1947  0.0632
18379W        W35226  13.934   8.649   5.754  0.0330  0.2558  0.0646
18380W        W35227  10.868   4.168   3.478  0.1008  0.3304 -0.0973
18381W        W35228  16.159  10.474   1.591  0.1639  0.1491 -0.3042
18382W        W35229  15.994   3.464  16.686 -0.2093  0.0242 -0.1947
18383W        W35230   0.459   8.666  12.057  0.2165  0.0758  0.3632
18384W        W35231   6.167   1.349  16.659  0.1979 -0.3731  0.0927
18385W        W35232  17.802   7.708   4.539 -0.0358 -0.0072 -0.0970
18386W        W35233  13.101   2.072  10.925 -0.0080  0.0501  0.4015
18387W        W35234  15.394   2.554   1.381  0.0133  0.2882 -0.2432
18388W        W35235   4.605   4.952  15.135  0.0719  0.3141 -0.2632
18389W        W35236   2.763  14.490  15.126 -0.0954  0.1476 -0.1345
18390W        W35237  16.974  10.911  16.511  0.2775 -0.4678 -0.2554
18391W        W35238  16.208  11.355  12.693  0.0047  0.1427 -0.0105
18392W        W35239   1.572  15.229   3.942  0.2319  0.2567  0.1119
18393W        W35240   5.990   2.792   0.130  0.2017  0.0350 -0.1291
18394W        W35241   5.492  14.727   1.912  0.0659  0.0221 -0.0054
18395W        W35242   6.818   0.088   0.072  0.1711 -0.0532  0.1780
18396W        W35243  15.170   7.648  12.781  0.3012  0.1111  0.1399
18397W        W35244   7.017   9.581  11.976 -0.3169 -0.2839 -0.0494
18398W        W35245  12.061   0.652  16.352  0.1499 -0.3124 -0.3119
18399W        W35246  15.407   4.016  15.457  0.0209  0.0523 -0.0642
18400W        W35247   6.023   5.231   3.433  0.1298  0.1986 -0.2995
18401W        W35248   7.293   1.963  14.179 -0.2796  0.0679 -0.1733
18402W        W35249   2.139  16.746   2.725 -0.0777  0.0656 -0.0687
18403W        W35250  16.371   1.569   1.718  0.2833 -0.0581 -0.0000
18404W        W35251   5.978  16.180  12.236  0.1715 -0.1338  0.1563
18405W        W35252  13.740  10.869   4.579  0.2512 -0.3769  0.1799
18406W        W35253  15.706   9.684  15.211  0.1352 -0.3029 -0.0245
18407W        W35254   7.050   3.376  13.665 -0.2914 -0.2795  0.1003
18408W        W35255   0.132  13.996  13.337 -0.1641  0.0588 -0.2664
18409W        W35256   8.011  14.993  14.453  0.2142 -0.0282  0.4099
18410W        W35257  11.882  11.154   4.079  0.0181 -0.2752 -0.1748
18411W        W35258   1.092   5.351   5.568  0.0693 -0.3228 -0.3030
18412W        W35259  11.387   9.118  16.040 -0.0948 -0.0015 -0.3459
18413W        W35260   0.052  15.909  13.142 -0.0332  0.1398  0.1788
18414W        W35261   1.382  15.071   2.477 -0.1216  0.2633 -0.0614
18415W        W35262  12.623   2.378   0.662 -0.0969 -0.3082  0.1330
18416W        W35263   1.798  13.074   1.628 -0.1041 -0.0991 -0.5010
18417W        W35264   7.937  12.429   5.842  0.1089  0.0980 -0.1771
18418W        W35265   1.243  10.942  10.706 -0.2285 -0.4205 -0.0557
18419W        W35266  11.022   0.829  15.417 -0.0744  0.1294 -0.0163
18420W        W35267   8.017  17.449  13.387  0.0865 -0.1389 -0.1158
18421W        W35268  13.565   1.901  13.406 -0.0496  0.1658 -0.0425
18422W        W35269  13.956   1.977  11.268  0.0447 -0.1678 -0.3600
18423W        W35270  17.138  13.265  13.304  0.0278  0.0333 -0.5130
18424W        W35271   7.992   5.970  13.124  0.1598 -0.1524 -0.0423
18425W        W35272  10.106  16.566   2.831  0.4541  0.2190 -0.2443
18426W        W35273   0.667   2.828  11.811 -0.0517  0.2694  0.1041
18427W        W35274   1.932   0.288  13.295  0.2932 -0.0047  0.0857
18428W        W35275  12.424  10.272   2.503 -0.1636 -0.3411  0.0017
18429W        W35276  11.190   2.442   1.704  0.0315 -0.0086  0.3292
18430W        W35277   4.205   8.028  15.985 -0.0737  0.1333 -0.1150
18431W        W35278  17.813   3.287  12.839  0.2533  0.2591  0.0289
18432W        W35279  17.154  10.413  13.554 -0.0185 -0.0237  0.1194
18433W        W35280   3.685  12.249  14.639 -0.5496 -0.1660 -0.5267
18434W        W35281  14.984  10.282   1.113 -0.0611 -0.1567 -0.1981
18435W        W35282  10.901  17.820  14.639  0.0837  0.0672  0.0658
18436W        W35283   1.273  16.649   3.839 -0.1555 -0.0862 -0.0796
18437W        W35284   7.313   4.778  13.266 -0.0843  0.1164  0.1330
18438W        W35285  13.245  10.896  14.083  0.3849  0.0324  0.0920
18439W        W35286   5.896  18.000  14.761 -0.1019  0.0803 -0.1746
18440W        W35287   5.422  13.625   5.383  0.1240  0.2255 -0.1216
18441W        W35288  16.902   6.468  11.973 -0.1292 -0.1677 -0.2468
18442W        W35289  14.222   5.435   4.789  0.1786 -0.2090  0.1256
18443W        W35290   7.355  13.657  12.196 -0.2330 -0.1211  0.0626
18444W        W35291   5.462  17.198  16.270  0.1872  0.0734  0.4585
18445W        W35292  15.084   8.142   5.132  0.0963 -0.1815 -0.0520
18446W        W35293  10.891   7.881   1.649 -0.1450  0.2908 -0.0199
18447W        W35294  14.120  14.517   2.303 -0.0437  0.3295 -0.0749
18448W        W35295   0.991   6.061   4.687  0.0197  0.1171  0.2742
18449W        W35296   7.971   4.896   0.075  0.1465 -0.0108 -0.3369
18450W        W35297   4.751   5.255   3.166 -0.0100 -0.0439  0.4389
18451W        W35298   1.706   4.706   4.327 -0.2226  0.1133  0.0084
18452W        W35299  11.747  11.223  13.743  0.0396 -0.0540  0.2117
18453W        W35300   6.180  12.799  15.320  0.0622 -0.1094 -0.0621
18454W        W35301   9.417  16.632   3.883 -0.0934  0.1602 -0.0065
18455W        W35302   2.602  10.660   1.985 -0.2827  0.3622 -0.0791
18456W        W35303   3.895  17.935   1.191 -0.0540 -0.1930 -0.1538
18457W        W35304  11.484   8.138   3.009 -0.2293  0.1811 -0.1957
18458W        W35305   1.165  10.059   2.236 -0.1138  0.0646  0.0767
18459W        W35306  16.322   8.543   2.686 -0.0425 -0.3217  0.0159
18460W        W35307   4.474   0.923   1.777  0.1367  0.2140  0.1239
18461W        W35308  17.520   4.192   1.029 -0.3381  0.2169  0.1165
18462W        W35309   3.532   2.383  12.245 -0.1127  0.1104  0.4469
18463W        W35310  15.631  13.701  11.637 -0.1970 -0.0227 -0.0036
18464W        W35311  17.108   6.202  13.491  0.1675 -0.0649 -0.0176
18465W        W35312   2.066  11.568   0.153 -0.1315  0.0038  0.2801
18466W        W35313   8.776  16.024   4.251 -0.0373 -0.0230 -0.2716
18467W        W35314   4.797   9.535   1.809  0.0998 -0.0149  0.3072
18468W        W35315  17.294   4.584   2.493 -0.5551  0.1725  0.0446
18469W        W35316  15.208   3.335   3.024 -0.2461 -0.0014  0.0982
18470W        W35317  17.032  11.097  13.226 -0.2104  0.2455 -0.0069
18471W        W35318  10.141   9.763  12.610  0.1428 -0.0898 -0.3845
18472W        W35319   3.391  13.801  12.150 -0.2757  0.1175  0.2022
18473W        W35320   7.031  13.472  14.807  0.1281  0.0327  0.0141
18474W        W35321   9.894   8.778   1.426 -0.1991 -0.0410  0.1991
18475W        W35322  15.126  17.594  16.617 -0.2788 -0.3658  0.3120
18476W        W35323  11.465   2.055  14.269  0.2166  0.0948 -0.1748
18477W        W35324   3.792  11.076   1.495  0.2335  0.0905  0.1058
18478W        W35325  17.554  13.408  13.650  0.1757 -0.0528  0.3459
18479W        W35326   1.250  16.151  11.538 -0.2352 -0.1696  0.3036
18480W        W35327  17.556   0.316   0.632  0.1496 -0.3587 -0.2149
18481W        W35328  17.085   3.325   3.724  0.3768 -0.1254 -0.1154
18482W        W35329   2.744   4.814  14.753  0.0447  0.0318  0.2068
18483W        W35330  15.546  16.523   1.297  0.2245 -0.2554 -0.1278
18484W        W35331  18.042  17.672  12.048 -0.0460 -0.2186 -0.0908
18485W        W35332   0.852  11.893   5.558  0.0939 -0.1480 -0.1341
18486W        W35333  10.481   0.865   1.799 -0.1125 -0.0019 -0.1696
18487W        W35334   5.845  17.493  14.969 -0.2288  0.1315  0.4765
18488W        W35335   7.638   3.428  13.687 -0.0481 -0.4057  0.0011
18489W        W35336  12.066  16.490   2.543  0.0302 -0.0172 -0.1214
18490W        W35337   7.163  12.998  15.113  0.0931  0.2445  0.1173
18491W        W35338  13.315   2.613   1.263  0.1029 -0.3916 -0.1861
18492W        W35339   8.075   4.328   0.691  0.1066 -0.1978 -0.3810
18493W        W35340   9.590   7.042  13.943  0.0350  0.1077  0.0124
18494W        W35341   4.548   2.389   4.193  0.2473  0.2483 -0.0879
18495W        W35342   1.270  13.482   2.525 -0.1453  0.0307  0.0968
18496W        W35343  12.311   5.842  15.609  0.0727 -0.1568 -0.1666
18497W        W35344   9.159   1.271  13.923  0.2822 -0.2682 -0.2021
18498W        W35345  10.245   1.177   3.905  0.3768 -0.1135  0.1325
18499W        W35346   8.500   8.468   4.700  0.0075  0.3022 -0.0745
18500W        W35347  10.442   3.178  12.137 -0.2457  0.0608  0.3119
18501W        W35348   6.967  15.864  13.303  0.1305 -0.2127  0.2731
18502W        W35349   5.341  15.598  14.557 -0.0959 -0.3651  0.2190
18503W        W35350   1.858  17.511   5.205 -0.0760  0.0289 -0.1235
18504W        W35351  10.143   8.284   0.439 -0.1069  0.3471  0.0617
18505W        W35352  14.550  12.438  16.581  0.0400 -0.1335 -0.2363
18506W        W35353   5.543   9.393  14.442  0.2665 -0.0434 -0.2998
18507W        W35354  12.138   2.215  12.143 -0.1237  0.0241  0.0991
18508W        W35355   9.189  10.753   1.840  0.2645 -0.1227  0.0782
18509W        W35356   5.186  11.960   4.700  0.0297 -0.2562  0.3017
18510W        W35357  11.534   8.617   4.440  0.0137  0.0312 -0.1340
18511W        W35358   6.438  16.762  16.038 -0.0457  0.0883  0.1045
18512W        W35359  10.217   8.366  12.614 -0.1656 -0.3255 -0.2217
18513W        W35360   4.023   1.144   4.020 -0.1428  0.0597  0.1820
18514W        W35361  12.018   1.552  15.929  0.0758 -0.0047  0.3704
18515W        W35362  13.130  16.229  12.604 -0.0692  0.1873  0.0034
18516W        W35363   3.129  15.505   4.279  0.4618 -0.1147  0.0493
18517W        W35364  10.429   2.991   0.470  0.0691  0.3499 -0.0433
18518W        W35365   9.613   9.878   2.263 -0.0367 -0.0030 -0.0294
18519W        W35366   3.649   2.444  14.283  0.1742 -0.1759  0.0302
18520W        W35367  10.616   3.290   5.753 -0.0215  0.1909  0.0046
18521W        W35368   1.409   1.641   1.681 -0.0960 -0.2882 -0.1943
18522W        W35369   0.984  13.098  15.169 -0.1532  0.1234  0.0029
18523W        W35370  11.602   2.332  11.951  0.1650 -0.1786 -0.1493
18524W        W35371  12.143  17.801  12.532 -0.0188  0.0091 -0.2429
18525W        W35372  10.051  15.633   1.998  0.0433  0.0293  0.0309
18526W        W35373   6.502   9.139  15.293 -0.0911  0.0372  0.0579
18527W        W35374  17.853   6.732  11.483  0.1592 -0.1649 -0.2145
18528W        W35375   9.622   2.312  14.321 -0.0226 -0.3971 -0.1160
18529W        W35376   4.654   7.035   6.419  0.0803  0.0861 -0.2133
18530W        W35377  16.982   2.702  11.569  0.3199  0.1495  0.0590
18531W        W35378   9.126   8.274  15.093  0.2148  0.0524  0.0056
18532W        W35379   5.167  18.071   4.944 -0.1945  0.0292  0.1211
18533W        W35380   1.154   1.344   2.565 -0.0417  0.3258 -0.1340
18534W        W35381  15.614   1.605   3.058 -0.0481 -0.3080 -0.0326
18535W        W35382  12.313   0.102  14.774 -0.0200 -0.0911 -0.1157
18536W        W35383  12.868  16.901   4.171  0.1371  0.0010  0.0996
18537W        W35384   6.379  12.358  16.622 -0.3062  0.0674  0.0546
18538W        W35385   8.222  17.534  14.961 -0.2101  0.2031 -0.0034
18539W        W35386   0.863   5.253   4.015  0.1145  0.1631  0.2298
18540W        W35387   2.069   5.814  14.095 -0.1341  0.1726 -0.0298
18541W        W35388  13.677   9.969  15.756 -0.1288  0.0882  0.1554
18542W        W35389   4.678  17.057  15.230 -0.0538  0.2158  0.0475
18543W        W35390  12.450   2.936  14.216  0.2910 -0.2962  0.0875
18544W        W35391  10.816   6.876  13.362 -0.1560 -0.3936 -0.1862
18545W        W35392   3.314   0.435  10.951 -0.2302  0.3944 -0.2136
18546W        W35393  11.976  16.738   4.369 -0.2563  0.1503  0.1428
18547W        W35394  12.836  14.269  16.513  0.0201  0.1107  0.0439
18548W        W35395   2.619  17.921   0.582  0.1119  0.0750  0.2089
18549W        W35396  11.691  15.302   0.304  0.1796  0.0628  0.1779
18550W        W35397  11.970  16.013  16.252  0.3077 -0.2970  0.0458
18551W        W35398   6.480   8.476   2.851  0.0035  0.0696  0.1763
18552W        W35399   2.465   9.503  13.296 -0.1369  0.2152  0.0829
18553W        W35400  15.103  13.510   2.352 -0.1838 -0.0157 -0.1229
18554W        W35401   1.233  14.808   6.076 -0.0469  0.1598  0.0085
18555W        W35402   6.674   2.114  13.993  0.2399  0.2126 -0.0757
18556W        W35403   2.770   6.716  16.407  0.1735 -0.1519  0.1340
18557W        W35404  11.870  13.227  13.273  0.0761  0.2284 -0.0830
18558W        W35405  14.146  15.728  11.253 -0.0711 -0.0404  0.1102
18559W        W35406   7.538   3.994  13.831 -0.2182  0.1496 -0.3694
18560W        W35407   9.836  12.329   3.066  0.1006  0.0949  0.0913
18561W        W35408   3.364  11.414   5.453 -0.0236 -0.1259 -0.0382
18562W        W35409   5.607   7.722  15.667  0.1953 -0.0766 -0.0545
18563W        W35410   8.468  14.565   3.228  0.2273  0.1675  0.1630
18564W        W35411  11.632  14.766   0.702  0.1320  0.3346  0.0524
18565W        W35412  16.837   1.846  15.365  0.3022 -0.2708  0.1749
18566W        W35413   5.413   4.115  15.860  0.0514 -0.3254  0.0460
18567W        W35414  10.035   7.038  13.553 -0.0670 -0.1700 -0.1857
18568W        W35415  14.283   0.640   0.299 -0.0254 -0.0130  0.1170
18569W        W35416  10.226  16.212  15.393 -0.1655 -0.1110  0.0773
18570W        W35417   3.058  15.208   3.180 -0.1088 -0.1762 -0.2591
18571W        W35418   0.592  13.949  12.493  0.5210 -0.2644 -0.0484
18572W        W35419  10.468   2.270   3.296  0.0265 -0.1168  0.0398
18573W        W35420  17.370  10.403   2.514 -0.1597  0.0101 -0.0606
18574W        W35421   5.781   3.162  12.526  0.3222  0.2911 -0.1492
18575W        W35422  10.665  12.734   2.927  0.0917 -0.0194 -0.1476
18576W        W35423   9.246  16.073   0.861 -0.2630 -0.0356  0.1321
18577W        W35424  12.831  10.551  15.636 -0.3102  0.2018 -0.0758
18578W        W35425  13.392   7.232   0.876  0.2191  0.2427 -0.0795
18579W        W35426  14.809   5.462   3.057 -0.0317  0.2102  0.4747
18580W        W35427  17.228   4.291   5.080  0.1656  0.0306 -0.2234
18581W        W35428   0.248   8.397   1.984 -0.2102 -0.0569 -0.0485
18582W        W35429   9.369  10.843   0.836  0.2361 -0.0341  0.1489
18583W        W35430  12.330   3.807   1.134 -0.3656  0.1567 -0.0396
18584W        W35431   7.591  17.655  15.733  0.1366  0.1565  0.1687
18585W        W35432   6.727  14.983   2.775 -0.2605 -0.2306 -0.0228
18586W        W35433   8.891   1.105   2.399  0.1791  0.1968  0.2602
18587W        W35434  11.350   1.359   0.140  0.2011  0.0721 -0.1615
18588W        W35435  13.142   1.062   1.695  0.1149 -0.1366 -0.0605
18589W        W35436  15.750   9.374   2.372  0.1978  0.2490 -0.2139
18590W        W35437  13.824   3.386   1.483 -0.2488 -0.1947 -0.0123
18591W        W35438  16.881   7.535  14.930 -0.1109 -0.1501  0.0722
18592W        W35439   1.707   2.529  13.096  0.0883 -0.1354  0.1638
18593W        W35440   4.050   7.549   3.912  0.0323 -0.2297  0.0670
18594W        W35441  13.453   7.353  14.130 -0.1989  0.2688 -0.1946
18595W        W35442   7.797   0.974   0.104 -0.0411 -0.2252 -0.1490
18596W        W35443   4.858  17.607   4.729  0.1014  0.1782  0.1663
18597W        W35444  13.875   3.742   0.432 -0.2016 -0.2172 -0.2741
18598W        W35445  14.509   6.864  14.065  0.0990  0.0039 -0.2782
18599W        W35446   9.870  17.014   0.368 -0.0286  0.0132  0.0832
18600W        W35447  15.927   0.702  13.860 -0.3398 -0.6678 -0.1502
18601W        W35448   0.909  13.096  12.412  0.2650 -0.3373  0.0090
18602W        W35449  15.053   8.579   1.678 -0.2187 -0.2251  0.1555
18603W        W35450   5.794  16.011  15.657 -0.0954  0.0439  0.0496
18604W        W35451  13.069   0.902  14.130 -0.0942  0.2959  0.1469
18605W        W35452  17.913  17.278   1.107  0.2596 -0.0640 -0.0645
18606W        W35453  11.181   1.539   4.731 -0.2034  0.2416 -0.3040
18607W        W35454   1.806   5.696   0.625 -0.0031 -0.1659 -0.6214
18608W        W35455   2.952  10.358  15.200 -0.0431 -0.3586  0.2015
18609W        W35456   9.676  13.071  14.857 -0.2714  0.1694  0.0536
18610W        W35457  14.805   4.819   0.147 -0.0601  0.2365 -0.1874
18611W        W35458   8.460   0.375   6.237  0.2738 -0.2886 -0.1347
18612W        W35459   2.818  13.323  12.743 -0.0890  0.1424  0.0394
18613W        W35460   7.401  11.523   4.204 -0.0725  0.1179  0.0140
18614W        W35461   7.314   2.701   0.248 -0.1677 -0.1667  0.2104
18615W        W35462   3.693   6.441  12.960  0.3453  0.2702  0.0776
18616W        W35463   8.556   5.193  12.477 -0.1511 -0.1488 -0.1005
18617W        W35464  12.342   3.787   5.224 -0.2432  0.1634 -0.2458
18618W        W35465  16.633   0.615   4.068 -0.0245  0.0133  0.0787
18619W        W35466   1.482   9.476   1.591  0.1949 -0.3074  0.0057
18620W        W35467   7.209   0.872  13.748 -0.0221 -0.1379  0.2538
18621W        W35468  10.071  12.483  16.575  0.1037  0.0211 -0.1371
18622W        W35469   6.285   4.717  11.367  0.1950  0.1724 -0.3794
18623W        W35470   3.344   2.944  14.817  0.1171  0.0803 -0.0934
18624W        W35471   7.780   5.499  12.931  0.0420 -0.0980 -0.2856
18625W        W35472  16.492   2.981   3.036 -0.2283 -0.0568 -0.2060
18626W        W35473   5.528  16.783  15.347  0.0593  0.0210  0.2216
18627W        W35474   7.134   4.188   1.837  0.0365  0.1663  0.3012
18628W        W35475  17.689  16.705  12.949 -0.0047  0.0316  0.1585
18629W        W35476  10.284   3.161  14.202  0.0879 -0.2050 -0.0579
18630W        W35477  10.798   8.773  15.717  0.2937 -0.1651 -0.2545
18631W        W35478   3.333  16.412  16.313 -0.1241 -0.0703  0.2616
18632W        W35479   8.845  16.016  14.638 -0.0604 -0.0391  0.2483
18633W        W35480   0.140   9.551   3.628 -0.1332 -0.3113 -0.5356
18634W        W35481   9.174  11.282   2.519  0.2325  0.0996 -0.2495
18635W        W35482   4.997   5.285   0.452 -0.1913  0.2352 -0.0822
18636W        W35483  13.730   4.456   3.534 -0.1056  0.0523  0.4651
18637W        W35484  15.648   7.905  13.451 -0.0733  0.2132 -0.1796
18638W        W35485  15.345  13.048   1.957  0.1185  0.0150 -0.2976
18639W        W35486   9.271  17.196   3.436 -0.0377  0.0866  0.0799
18640W        W35487  17.078  17.274   3.497  0.0682 -0.0230  0.3792
18641W        W35488   0.262  17.770   5.265 -0.2434  0.2938  0.0187
18642W        W35489   1.191   8.822  14.055 -0.0871 -0.2623 -0.0914
18643W        W35490  16.883  15.728   0.908  0.1288  0.2217 -0.1821
18644W        W35491  10.534   0.899   0.441  0.0347  0.1865 -0.0425
18645W        W35492   7.053  10.423  14.122 -0.4059 -0.5110  0.2678
18646W        W35493  11.784   5.982  12.706  0.3765  0.1104 -0.1725
18647W        W35494   6.623   2.722  12.914 -0.2692  0.0965  0.3282
18648W        W35495  12.537  16.356  14.145 -0.0228 -0.2988  0.0891
18649W        W35496  14.411  12.461   4.823 -0.3413  0.0940 -0.0478
18650W        W35497   4.121  16.563  15.798 -0.0563  0.0324 -0.1198
18651W        W35498   0.536   3.771  15.695 -0.2779  0.2524 -0.1507
18652W        W35499   8.401   1.660  14.992  0.3054  0.1465 -0.2340
18653W        W35500  13.460  16.355   1.320  0.1176 -0.0047  0.0667
18654W        W35501   8.623   4.339   5.370  0.1741  0.3094 -0.4411
18655W        W35502   6.933  10.746  13.684  0.1584  0.0435  0.0299
18656W        W35503  13.251   2.453  15.090 -0.0758 -0.2586 -0.0357
18657W        W35504  17.486   9.576   5.130 -0.1208 -0.2903 -0.2100
18658W        W35505  12.537  16.802  15.383  0.1132 -0.0840  0.2267
18659W        W35506   5.400  10.238   4.220  0.1124  0.0195  0.0575
18660W        W35507  16.504   4.813  14.894 -0.3350 -0.0470 -0.0286
18661W        W35508  15.944   7.096  13.469 -0.1282 -0.2009 -0.0276
18662W        W35509  16.870   1.489   1.615  0.3652  0.0471 -0.0031
18663W        W35510  14.041  12.051  15.436  0.6697 -0.3663 -0.2872
18664W        W35511   6.458  10.024   4.583 -0.1513  0.0786  0.0288
18665W        W35512  12.268  10.794  12.077  0.2028  0.0207  0.1757
18666W        W35513  10.071   2.627   0.400 -0.0574 -0.0609 -0.1700
18667W        W35514  15.088   1.707   3.045  0.4868 -0.1639  0.0662
18668W        W35515   0.676   8.745   5.429  0.1341  0.2512 -0.1042
18669W        W35516  15.770  12.610   4.537 -0.0101  0.1782  0.0968
18670W        W35517  15.596  13.241   1.397 -0.0448  0.0362 -0.3930
18671W        W35518   4.447  13.654   0.924  0.1885  0.1103 -0.0959
18672W        W35519   3.790  16.239  15.432 -0.0325  0.0369  0.1046
18673W        W35520   3.023  17.199   3.683  0.3169 -0.2783 -0.0401
18674W        W35521  17.100   2.652  14.516  0.2617 -0.0554 -0.1972
18675W        W35522   2.234  12.003  12.896  0.0788  0.3329  0.1312
18676W        W35523   5.072   8.773   2.140 -0.1094 -0.0397  0.0789
18677W        W35524   8.639  12.247   5.185 -0.1229  0.0002  0.0483
18678W        W35525   5.126   1.950   2.623 -0.2044 -0.0295 -0.0885
18679W        W35526   7.762   5.459  11.666 -0.2449 -0.1176  0.2183
18680W        W35527  14.654   1.828  15.056  0.0556 -0.0916 -0.1110
18681W        W35528  14.399   1.753  11.391  0.0696 -0.2860 -0.0120
18682W        W35529  10.887  16.441  12.179  0.2681 -0.2054 -0.1808
18683W        W35530   7.036   9.807   1.221  0.3793  0.2181  0.0032
18684W        W35531   9.482  14.717  15.565  0.2105 -0.2572 -0.1875
18685W        W35532   2.109  17.349   2.165  0.1053 -0.5229 -0.0303
18686W        W35533   1.361  16.329  15.495  0.1649  0.0672  0.0329
18687W        W35534  15.334   9.906  15.938  0.1659 -0.3056  0.3429
18688W        W35535   4.996   2.482  15.244  0.2096  0.2790  0.1330
18689W        W35536   4.911   4.168   2.363 -0.1958  0.0538  0.0414
18690W        W35537   3.552  14.687   2.111  0.0682  0.1032  0.0097
18691W        W35538   8.883   1.711   2.895  0.0063 -0.4195 -0.1410
18692W        W35539   4.385  11.434  13.715 -0.1676 -0.0387 -0.2378
18693W        W35540  16.211   1.525  15.959  0.0160  0.0870 -0.1598
18694W        W35541   7.765  14.620  14.757 -0.0812  0.0480  0.1188
18695W        W35542  10.709   2.408   5.046  0.0564  0.2844 -0.1338
18696W        W35543   7.422  13.684   2.625 -0.0003 -0.2483  0.1614
18697W        W35544  11.758  12.368  16.180 -0.2361  0.0259  0.0516
18698W        W35545  12.344  17.179  14.745  0.1462  0.1599 -0.2161
18699W        W35546   9.325   5.165  15.713  0.1614  0.2264 -0.0236
18700W        W35547   1.223  17.814   1.368 -0.0465 -0.0431 -0.1071
18701W        W35548  17.534   0.643  15.604  0.1319 -0.1430 -0.0330
18702W        W35549   0.359   0.701   4.947 -0.0559 -0.1732  0.1486
18703W        W35550   9.341   4.386   1.491 -0.1697  0.2229 -0.1643
18704W        W35551   8.116   5.630   1.022 -0.3442  0.0044 -0.0426
18705W        W35552   0.400  10.921  13.796 -0.2559  0.2203  0.0554
18706W        W35553  16.392  11.634  14.471  0.1835  0.1163  0.1000
18707W        W35554   9.048   2.171   4.296 -0.0094  0.3725  0.1897
18708W        W35555  17.937  17.593  11.526  0.0056  0.0621  0.1644
18709W        W35556  15.348   5.804   1.067 -0.0219  0.0492  0.0697
18710W        W35557  17.753   5.346  13.003 -0.2113 -0.1827  0.1015
18711W        W35558   7.225   2.685  15.826 -0.0231  0.1829 -0.0081
18712W        W35559  15.328  10.298   5.740 -0.0483 -0.0823  0.3115
18713W        W35560  17.664  14.065  13.083 -0.1007 -0.1380  0.3391
18714W        W35561  13.928  11.084  11.780  0.0875 -0.1706 -0.0058
18715W        W35562   6.003   1.965   4.520  0.0608 -0.1315  0.2778
18716W        W35563  18.058   2.857   2.939  0.2875 -0.1520 -0.0361
18717W        W35564   2.314  17.792   1.257  0.0882 -0.1865  0.0992
18718W        W35565  13.227   6.145   5.414  0.1690 -0.0282 -0.3915
18719W        W35566   9.511   5.246   4.604 -0.1199  0.1935 -0.0581
18720W        W35567   5.688  17.429   0.221  0.1676 -0.1313 -0.1376
18721W        W35568  14.502   8.513   3.849  0.2090  0.2291 -0.3026
18722W        W35569  16.284  13.195   0.646 -0.1784  0.1732  0.1773
18723W        W35570   0.873   8.013   5.121  0.0893 -0.3619  0.1163
18724W        W35571  15.258  16.264  14.874 -0.3400 -0.0037 -0.1378
18725W        W35572   8.469   1.989   2.403  0.1730  0.0807  0.1615
18726W        W35573   1.346  10.139   3.663 -0.0185  0.1034  0.0942
18727W        W35574   0.220   4.561  12.904 -0.0935 -0.0711  0.0012
18728W        W35575   0.434  12.040   1.654  0.4581  0.1216  0.3263
18729W        W35576   5.194   0.674  15.978  0.0833  0.1466 -0.0763
18730W        W35577  16.892   8.883   5.544  0.0588  0.2692  0.1109
18731W        W35578   4.454   9.819   3.874 -0.0800  0.3227  0.0388
18732W        W35579   6.083   6.433   3.852 -0.1918 -0.1098 -0.2030
18733W        W35580   5.347   4.190   5.635  0.0697  0.3245  0.1008
18734W        W35581   2.329   5.825   4.012  0.2797  0.1084  0.1982
18735W        W35582   0.480   3.529  15.291 -0.0803 -0.2156 -0.0503
18736W        W35583  14.840  15.035   4.768 -0.1609  0.2357  0.0738
18737W        W35584  17.821  11.966   4.226 -0.0699 -0.0123 -0.0401
18738W        W35585  15.597   8.890  14.145 -0.0067  0.1291  0.1399
18739W        W35586   3.879   4.488   0.747 -0.0202  0.0661 -0.1222
18740W        W35587   4.639   2.749  11.784  0.1628  0.0018 -0.0083
18741W        W35588   8.301  15.940   0.261  0.1861  0.5117  0.1443
18742W        W35589  14.819  14.121  13.133 -0.1596  0.0963  0.1807
18743W        W35590  13.035  11.397   0.114 -0.0351  0.3711 -0.0771
18744W        W35591  15.034  11.351  15.739  0.1776 -0.2062  0.1155
18745W        W35592   8.701   9.003   5.621  0.0514 -0.1339  0.0610
18746W        W35593   8.453  10.671  14.398 -0.2496 -0.0114  0.2752
18747W        W35594  12.521   4.025   3.852  0.2115  0.3299 -0.0980
18748W        W35595  16.984  14.938   2.662  0.2418 -0.2237  0.1736
18749W        W35596   6.247  14.769   4.761 -0.0152  0.1251  0.3442
18750W        W35597  11.781  15.097   5.201 -0.0710  0.1967  0.0989
18751W        W35598   0.425  14.942   3.762 -0.2588 -0.1551 -0.3885
18752W        W35599  11.278  15.254  11.577  0.1383  0.0680  0.0677
18753W        W35600  14.189  13.348   2.692 -0.3660 -0.2407 -0.0355
18754W        W35601   9.771  16.139  15.463  0.1063 -0.1869 -0.1741
18755W        W35602  14.075  16.053   2.091  0.0254  0.0142  0.0399
18756W        W35603   1.020   1.215   0.416  0.0341 -0.4947  0.0080
18757W        W35604   7.061  12.585   1.500  0.1643  0.2225  0.0260
18758W        W35605   6.281   7.495   5.375  0.0958 -0.0190  0.2992
18759W        W35606  13.360  10.553   2.474 -0.0681  0.0858 -0.2265
18760W        W35607   6.748   4.786  11.658 -0.0995 -0.0226 -0.3699
18761W        W35608   2.009   0.540  14.546  0.0342  0.1447  0.1118
18762W        W35609   2.627  13.304  16.485 -0.4851  0.1474 -0.1756
18763W        W35610   9.278  10.192   4.867 -0.0679  0.4388 -0.1916
18764W        W35611  11.329   3.927   1.395  0.1174 -0.0081  0.1687
18765W        W35612  14.787  15.550  13.094 -0.0053 -0.0967  0.1829
18766W        W35613   7.560  11.036   1.143 -0.2079  0.2122 -0.3712
18767W        W35614  15.442  15.466  12.463 -0.3582 -0.0419 -0.0985
18768W        W35615  12.389  17.166  13.129  0.0927 -0.3287  0.1103
18769W        W35616  15.164   7.805  13.463  0.2841  0.2870 -0.0117
18770W        W35617   8.340  10.428  11.665  0.0758  0.0959  0.1190
18771W        W35618   1.336   3.544   1.739  0.0774  0.1477 -0.1348
18772W        W35619  12.203  10.393   0.204 -0.0656 -0.0376 -0.1644
18773W        W35620  13.318   3.800  16.633 -0.0160 -0.2337  0.1554
18774W        W35621  14.521  11.482  16.476 -0.2619 -0.1816 -0.0300
18775W        W35622   0.950   6.004  15.511 -0.0564  0.0269  0.2068
18776W        W35623  13.033   1.511  12.773 -0.1586  0.3317 -0.3820
18777W        W35624  11.544   4.036   4.194 -0.1974 -0.0359 -0.0903
18778W        W35625  12.383  11.218   3.828  0.3634  0.1181 -0.3367
18779W        W35626   3.572   2.831  13.114  0.1996 -0.0535 -0.1061
18780W        W35627   6.830  14.726   3.477  0.1857  0.2465 -0.2349
18781W        W35628   0.984   9.604   1.884 -0.1969 -0.0966  0.0458
18782W        W35629  17.125  12.543  16.015  0.0192  0.2642 -0.0815
18783W        W35630  10.656   5.971  13.887 -0.0913 -0.1688 -0.0372
18784W        W35631  16.820   0.553  14.307 -0.0047 -0.1265 -0.1261
18785W        W35632  11.000  14.085   4.998 -0.0176  0.0590  0.0840
18786W        W35633   6.159  12.054   5.038 -0.0228 -0.0228  0.1693
18787W        W35634  17.223  13.906   0.786  0.0264 -0.0815 -0.0483
18788W        W35635   0.489   7.880   0.755  0.0553 -0.2791  0.0037
18789W        W35636  17.326  12.009  16.052 -0.2709  0.1387 -0.1591
18790W        W35637  17.228   2.785   4.394 -0.0279  0.1750  0.1822
18791W        W35638   8.467   0.964   3.758 -0.0210  0.0009 -0.1231
18792W        W35639  13.493   5.198   0.200 -0.0059 -0.1492 -0.0697
18793W        W35640  11.688   3.240   4.342 -0.0953  0.0965  0.2214
18794W        W35641   0.466  12.767  15.847  0.1087  0.0337 -0.1425
18795W        W35642  15.115  14.208   4.390  0.1136  0.0452 -0.0259
18796W        W35643  14.620   6.483   0.867 -0.1568  0.0239  0.0077
18797W        W35644   6.671  15.836  16.346 -0.0929 -0.0974  0.1465
18798W        W35645   5.111  10.987   5.642 -0.2210 -0.1680  0.4524
18799W        W35646  12.017   1.224   4.629  0.0671  0.0721 -0.0473
18800W        W35647   8.144   9.051  13.203  0.0543 -0.0160 -0.0266
18801W        W35648   6.514   2.315  13.370  0.1002 -0.1311  0.0429
18802W        W35649  12.616   6.947   5.210 -0.1807 -0.2035  0.1762
18803W        W35650   2.078   1.929   0.233 -0.2257 -0.0446  0.2785
18804W        W35651  15.207  15.551   0.764  0.0494  0.1311  0.0104
18805W        W35652  13.901   6.379  13.266  0.3097 -0.1962  0.2197
18806W        W35653   0.449  16.112  12.950 -0.2341 -0.0441  0.0411
18807W        W35654  15.991   4.041  14.737  0.0095  0.3627 -0.2635
18808W        W35655   2.937  11.211   2.946  0.0186  0.0756 -0.2195
18809W        W35656   0.638  17.622   0.423  0.3189 -0.3327  0.2597
18810W        W35657  12.748   9.636   0.579 -0.0318  0.1787  0.1936
18811W        W35658   6.624   6.952  12.595 -0.0137  0.2585  0.3805
18812W        W35659   1.927   4.484   1.041  0.2717  0.0889 -0.1178
18813W        W35660   8.514   3.485  16.281  0.2361  0.0772  0.2247
18814W        W35661  12.440  13.350  14.110  0.4085 -0.0430 -0.3829
18815W        W35662   5.608  15.636  13.554 -0.1289 -0.0462  0.0585
18816W        W35663   2.370   1.824  12.613 -0.1252  0.0732  0.3131
18817W        W35664   1.242  10.773  16.527  0.0335  0.1251  0.1989
18818W        W35665  11.131  11.592   4.193 -0.0833 -0.3631  0.1644
18819W        W35666  16.743   2.178   5.493 -0.1488 -0.1078 -0.0728
18820W        W35667   0.801   7.284   1.795  0.3237  0.1331  0.2986
18821W        W35668   5.628  15.592   3.816  0.4943 -0.0788 -0.0389
18822W        W35669  10.147   7.922  11.992  0.0235  0.2804  0.1345
18823W        W35670   3.715   6.259  13.770  0.2104 -0.1082  0.0841
18824W        W35671   4.988   7.744  12.236  0.0098  0.3784  0.0939
18825W        W35672   9.278   3.895   5.931  0.0567  0.1019 -0.1176
18826W        W35673  14.843   6.153   2.145  0.0820  0.3114  0.0324
18827W        W35674  17.882   2.847  14.471  0.0321  0.3201  0.2405
18828W        W35675   6.312  17.553   3.492  0.0062 -0.0475  0.1965
18829W        W35676   8.043   1.966  15.102 -0.0606  0.0089 -0.0911
18830W        W35677   4.045  15.409   0.853 -0.0068 -0.0329 -0.1365
18831W        W35678  14.325  15.328  12.884  0.0937 -0.1245 -0.1109
18832W        W35679   4.870  16.475  16.501 -0.0765 -0.0945 -0.1875
18833W        W35680  16.477   4.022  14.971  0.1879 -0.3134  0.0287
18834W        W35681   4.791  12.141  12.133  0.0702  0.0327  0.0412
18835W        W35682   8.272   6.442  16.343  0.1067 -0.0747  0.0911
18836W        W35683   0.953   5.140  15.404 -0.1750 -0.1451  0.1310
18837W        W35684  14.459   8.877  14.572 -0.1733  0.0844 -0.1313
18838W        W35685   1.925  15.335  16.344  0.2447 -0.2994 -0.3732
18839W        W35686   6.842   7.848  14.587  0.1223 -0.3857 -0.1526
18840W        W35687   8.168   9.381   3.422  0.2327 -0.2940  0.1740
18841W        W35688   2.409  17.033   1.750 -0.2626  0.2226  0.1065
18842W        W35689   2.727   1.018  16.161  0.2467 -0.0367  0.1237
18843W        W35690   9.622   9.350  16.464 -0.1302  0.0309 -0.1221
18844W        W35691   2.659   8.251  14.534 -0.1747 -0.0879 -0.1553
18845W        W35692   7.984  16.889  13.828  0.1439 -0.0730  0.1547
18846W        W35693   6.931  12.263  12.705 -0.0001 -0.0866  0.1100
18847W        W35694   2.447   3.105  15.201 -0.5918 -0.1161  0.0541
18848W        W35695   3.278  17.072   5.058  0.0515 -0.1090  0.3855
18849W        W35696   0.581   0.009  16.261  0.0198  0.0767  0.0726
18850W        W35697   3.866   9.483  12.845 -0.1561 -0.0830  0.0917
18851W        W35698   7.895  10.987   3.032 -0.1257 -0.2443  0.1418
18852W        W35699   0.150   4.941   3.292 -0.2438  0.3112 -0.2916
18853W        W35700   9.432   6.652   4.246 -0.0744 -0.4366 -0.3043
18854W        W35701  11.419  17.783  15.604 -0.3177  0.2473 -0.1906
18855W        W35702  17.828  14.701  13.921  0.1156  0.2508 -0.1853
18856W        W35703  17.751   3.860   1.439  0.2030 -0.2506 -0.0638
18857W        W35704   9.120   3.991  15.654  0.2597 -0.1992  0.0651
18858W        W35705   1.941  13.932   2.696  0.0632  0.0844  0.0384
18859W        W35706  10.861  10.406  16.187 -0.0004  0.0832 -0.2825
18860W        W35707   1.644   9.272  13.239 -0.0372  0.0751  0.1349
18861W        W35708   9.954  14.714  15.324  0.0150 -0.1062 -0.1317
18862W        W35709  16.769   9.060   0.887  0.1975 -0.0175  0.3084
18863W        W35710   0.279  15.531   3.664  0.0286 -0.0048  0.0486
18864W        W35711  12.912   7.799  14.379 -0.1636  0.0793  0.0195
18865W        W35712   3.224   1.668   3.032  0.1827  0.2677 -0.0902
18866W        W35713   7.129   7.320  14.249  0.2954 -0.2369  0.2503
18867W        W35714   4.646   9.357   3.345 -0.0380  0.2364 -0.1653
18868W        W35715   7.805  16.950   5.018  0.1639 -0.1007 -0.0576
18869W        W35716   7.568   3.905  14.890 -0.0393 -0.2857 -0.1805
18870W        W35717   6.513   2.439  12.360 -0.1264  0.1897  0.3232
18871W        W35718   2.067   5.486  12.752  0.2171 -0.0781  0.0321
18872W        W35719   5.409  14.246  12.376 -0.0035  0.0228 -0.1068
18873W        W35720   5.902   2.945  12.118 -0.3833  0.0698  0.0316
18874W        W35721  14.044   5.971   4.715 -0.0996 -0.4152 -0.1431
18875W        W35722   1.409  15.749   0.022  0.2014 -0.0273  0.0979
18876W        W35723  15.896   8.353  12.779  0.1132  0.3012  0.0053
18877W        W35724  11.265   6.343   3.450 -0.3187  0.0008 -0.2879
18878W        W35725  10.916  10.362  14.127  0.1198  0.0822 -0.1242
18879W        W35726  11.612   2.039   1.674  0.2962  0.1261  0.6288
18880W        W35727   6.412   5.357   2.943 -0.1438  0.3704 -0.0090
18881W        W35728  15.676   5.373   3.900  0.2619  0.0859  0.0311
18882W        W35729   6.718  17.454  15.813 -0.1651 -0.1341  0.2463
18883W        W35730   9.404   6.591   1.929  0.1941  0.1620  0.0522
18884W        W35731  14.383  12.006  13.212  0.1260  0.3553  0.0519
18885W        W35732   5.777   1.773   1.100 -0.1106 -0.3912 -0.1126
18886W        W35733   6.356  13.755  13.680  0.2999  0.1656  0.0855
18887W        W35734   7.739  12.421   5.125  0.0390  0.0282 -0.1580
18888W        W35735   6.611   7.975  15.014  0.0821  0.0738 -0.0216
18889W        W35736   0.336   2.138   5.146 -0.3440  0.1127  0.1328
18890W        W35737   6.375   4.981  13.627 -0.0039 -0.3388  0.0081
18891W        W35738   9.060   4.411   4.616 -0.1450  0.1492 -0.0786
18892W        W35739   2.759   6.690   4.211  0.1038 -0.5504  0.2150
18893W        W35740  11.120  11.742  11.786 -0.2412 -0.0212 -0.2719
18894W        W35741   5.722   0.717   3.598 -0.0803  0.0182 -0.1600
18895W        W35742   6.417  11.458  12.924  0.1901  0.1490 -0.1408
18896W        W35743  17.922   2.820   1.565  0.1583 -0.1033  0.0092
18897W        W35744  15.145   3.762   0.957 -0.0160 -0.2712 -0.2466
18898W        W35745  12.948   8.866   1.746  0.0496 -0.3290  0.0918
18899W        W35746   8.938  10.270  14.930  0.0087  0.0707 -0.3038
18900W        W35747   5.273  12.980  14.218 -0.5028  0.0390  0.3646
18901W        W35748  14.887  11.276   1.348 -0.0245  0.0564 -0.1479
18902W        W35749   6.618   9.840   3.188 -0.1263  0.0549  0.1325
18903W        W35750  16.953   1.864   2.718  0.0828  0.0204  0.0059
18904W        W35751  17.071   6.375   2.022 -0.0569  0.0398 -0.2040
18905W        W35752   7.896  12.188   1.935  0.2141 -0.0130  0.1195
18906W        W35753   6.843   5.297   5.019  0.1208  0.2945  0.1574
18907W        W35754  10.889  17.383  12.433  0.2474 -0.2334 -0.1166
18908W        W35755  13.502   6.953   0.459  0.0005 -0.0518  0.0149
18909W        W35756   5.058   0.434  16.419 -0.0625  0.0116  0.1077
18910W        W35757  16.364  14.620  14.263 -0.1086  0.0220  0.1955
18911W        W35758   7.481  15.971  13.891  0.1696 -0.2771  0.0300
18912W        W35759  15.974   3.076   5.135 -0.0958  0.2575  0.1167
18913W        W35760   3.614   5.670   3.731  0.1854 -0.0321  0.1392
18914W        W35761   0.388   7.133  11.963  0.0647 -0.6878 -0.2911
18915W        W35762   2.550   0.751  16.682 -0.0218 -0.2212 -0.0938
18916W        W35763   9.508   5.155  16.654  0.1621 -0.1059  0.1362
18917W        W35764  15.690   1.403   2.627 -0.0627 -0.1210  0.4203
18918W        W35765   8.020   1.027   2.722  0.1368  0.2438 -0.2337
18919W        W35766  13.080   4.628   4.194  0.0612  0.2133 -0.1644
18920W        W35767   3.265  15.313  11.871 -0.0051  0.0406  0.0477
18921W        W35768   2.786   7.836  12.888  0.2106  0.3880  0.1779
18922W        W35769   4.585   8.252  16.340  0.1294 -0.0821  0.0022
18923W        W35770  16.664   8.570   6.199 -0.1006  0.1038 -0.3494
18924W        W35771  17.905  10.300  11.898  0.1887 -0.1251 -0.1619
18925W        W35772  16.917   3.954   2.425 -0.1141 -0.0797  0.1489
18926W        W35773  15.227  16.875  13.495 -0.0558 -0.2009 -0.1414
18927W        W35774   1.319   3.125   4.803  0.0231 -0.1485 -0.1404
18928W        W35775  16.256  11.895   5.544  0.0939 -0.0115 -0.1345
18929W        W35776   3.273  17.417   5.372  0.0978 -0.1650  0.3889
18930W        W35777   9.555   1.029   4.380  0.2747 -0.0594  0.2768
18931W        W35778  17.489   9.744  15.577 -0.2081 -0.2749  0.1341
18932W        W35779  16.810  14.208  16.009  0.2843 -0.0394 -0.3188
18933W        W35780   6.978   3.828   0.151 -0.0673  0.1664 -0.0797
18934W        W35781  10.516   2.257  14.523  0.0055 -0.4172  0.1644
18935W        W35782   3.441   4.728  11.615  0.0790 -0.0197 -0.1900
18936W        W35783   4.062   1.954   1.010 -0.0161  0.0786 -0.1842
18937W        W35784  12.169  13.307   1.188 -0.1993 -0.0985  0.1447
18938W        W35785   5.704  14.834   3.291  0.1804  0.0092 -0.1094
18939W        W35786   3.940   6.608  12.145  0.1394  0.0702 -0.1119
18940W        W35787  10.843   3.005  14.790  0.2243  0.1897  0.0739
18941W        W35788   3.050   6.206   3.371 -0.1253 -0.0742  0.1674
18942W        W35789   6.174  12.914   1.247  0.2436  0.0733  0.2755
18943W        W35790   7.822  11.847  12.643  0.1019 -0.0857 -0.1375
18944W        W35791   5.608  14.904  16.009  0.0132 -0.2084 -0.1874
18945W        W35792   2.329   8.483   4.157  0.2383  0.0001 -0.1302
18946W        W35793  11.610   9.972  15.677 -0.3766  0.1718 -0.2800
18947W        W35794  16.438   8.931  16.604  0.1120  0.0184  0.1080
18948W        W35795   6.955   4.612   3.779  0.2580  0.0129  0.3865
18949W        W35796   9.663   5.859  15.280 -0.1397  0.0481 -0.1496
18950W        W35797   7.419  12.565   0.159  0.0200 -0.0357  0.3848
18951W        W35798  12.616   3.726  13.747 -0.0959 -0.0872 -0.0789
18952W        W35799  16.704   8.612  15.208  0.1481  0.1497  0.1245
18953W        W35800   8.161  14.919  12.482  0.0353 -0.0753 -0.1002
18954W        W35801   9.855   1.835   2.426 -0.1940 -0.0034 -0.0006
18955W        W35802   4.515  12.772   3.548 -0.0638  0.1183  0.0765
18956W        W35803   0.937   3.149   4.535 -0.0684  0.1547  0.0763
18957W        W35804   2.342  14.592  14.283 -0.0071  0.2755 -0.0862
18958W        W35805   6.741  12.701   4.664  0.2215 -0.0984  0.0582
18959W        W35806   2.834   7.470  12.459  0.0711 -0.3446 -0.1515
18960W        W35807  13.746  10.682  14.889  0.2931 -0.2016 -0.3042
18961W        W35808   5.806  17.611  12.727 -0.0038  0.3155 -0.0271
18962W        W35809  14.687   4.276   0.230  0.1845  0.0493 -0.1286
18963W        W35810  16.835   7.526   4.644  0.1425 -0.2353 -0.6075
18964W        W35811   6.021   7.655   0.917  0.1790  0.0418  0.1398
18965W        W35812  14.241  13.969  11.561  0.2198 -0.1294 -0.0757
18966W        W35813   9.361   6.582   6.213  0.0784 -0.3348 -0.0152
18967W        W35814  10.431  17.261  15.906 -0.1021  0.0723  0.1594
18968W        W35815  17.974   8.518  13.158  0.3416  0.1571  0.1648
18969W        W35816   5.903  16.482   2.350  0.0007  0.0301  0.0104
18970W        W35817  15.681   6.320  14.398  0.0853  0.2023 -0.1026
18971W        W35818  16.146  14.361  13.308 -0.0153  0.1824 -0.0991
18972W        W35819   8.236  17.310  12.134 -0.0220  0.1170  0.3611
18973W        W35820   1.964  14.510   1.280 -0.0901 -0.1491  0.3322
18974W        W35821   1.843   4.427  11.515 -0.3405 -0.0378 -0.0572
18975W        W35822  13.712   3.302  10.144 -0.0432  0.0616 -0.1251
18976W        W35823  17.991   7.071   2.779 -0.0936  0.2833 -0.1672
18977W        W35824   0.229  16.195   4.254 -0.1535 -0.0765 -0.2742
18978W        W35825   0.440   1.943   2.733  0.4124  0.2482 -0.0005
18979W        W35826   8.056   7.667   0.437  0.0089 -0.3893  0.4952
18980W        W35827  17.145  16.347  15.030  0.0399 -0.0439  0.0806
18981W        W35828   6.112   7.893   4.617  0.2545  0.0571  0.1769
18982W        W35829  11.300  17.813   4.935  0.2277 -0.0931  0.1437
18983W        W35830   4.252  16.257   6.085  0.1655 -0.1104  0.2055
18984W        W35831   9.822   4.260  13.357  0.0505  0.1596 -0.1195
18985W        W35832   9.557  10.416   4.211 -0.0227 -0.0587  0.0911
18986W        W35833  13.962   9.096  15.474  0.1711 -0.0901 -0.0371
18987W        W35834  17.092   1.232   0.363 -0.1470  0.3185 -0.2161
18988W        W35835  17.284  13.807   4.166 -0.0833 -0.0330 -0.1134
18989W        W35836  17.559   3.330   3.817 -0.5470  0.0366 -0.2173
18990W        W35837  11.946  12.450   1.330  0.3738  0.1914 -0.1046
18991W        W35838   0.955   6.722  12.830 -0.2347 -0.0301  0.2370
18992W        W35839  14.313   7.805   0.562  0.1585 -0.2697 -0.0819
18993W        W35840   3.533  13.945  15.413  0.1957 -0.0243 -0.1555
18994W        W35841   0.944   3.225  13.036  0.1208  0.2939  0.2400
18995W        W35842   2.726  10.457  13.269  0.1188 -0.0654  0.1732
18996W        W35843  10.642   2.864   0.020  0.0249  0.0470 -0.2860
18997W        W35844  14.791  11.237   5.487  0.5080 -0.1332  0.2175
18998W        W35845   9.303   4.584   2.056  0.2997 -0.0953 -0.1834
18999W        W35846   8.948   8.212  14.315  0.0419 -0.2108  0.0365
19000W        W35847  11.741   7.768  15.924 -0.0742 -0.3203  0.1276
19001W        W35848   8.311  14.219   3.615 -0.0741 -0.0014 -0.0276
19002W        W35849   7.081   7.342  15.590 -0.0430  0.0625  0.0998
19003W        W35850  17.023   9.096  13.130 -0.0507  0.0527  0.0406
19004W        W35851  15.438  14.724   3.594  0.0733  0.4111  0.0176
19005W        W35852   0.662   5.503   3.599 -0.0884  0.0402  0.0810
19006W        W35853   0.054   9.452  12.359 -0.0548  0.1251 -0.0770
19007W        W35854   9.101  13.708   3.951 -0.0849 -0.4769  0.0220
19008W        W35855   8.308   3.779  15.979  0.3429  0.1089  0.0492
19009W        W35856  15.991   4.515  13.438 -0.2633 -0.0073 -0.2259
19010W        W35857  11.182   7.978  15.640 -0.0017  0.0903  0.1313
19011W        W35858   9.288  17.253   5.502  0.1151 -0.2451  0.0256
19012W        W35859  16.586  16.299  12.173 -0.1391  0.2226 -0.2310
19013W        W35860   1.708   6.369  15.071 -0.0638 -0.1860 -0.1018
19014W        W35861   8.578   6.294   5.705 -0.0349  0.2977 -0.0787
19015W        W35862  10.524  16.807   4.535  0.1296 -0.0431 -0.2312
19016W        W35863   0.285  12.423  16.531  0.1451  0.1836  0.2655
19017W        W35864  16.675   0.676  11.740 -0.1432  0.0185  0.3012
19018W        W35865   9.514   3.323  14.709  0.4034 -0.0312  0.0801
19019W        W35866  17.370   9.176   3.993 -0.0524  0.2045 -0.1545
19020W        W35867  10.008   1.070  13.851 -0.0760 -0.0708 -0.3658
19021W        W35868  16.496  14.512  13.763  0.2380  0.2721  0.0053
19022W        W35869  12.584   9.824  14.375 -0.1431 -0.0776  0.1479
19023W        W35870  15.459   2.319  14.939 -0.0012  0.0234 -0.1054
19024W        W35871   5.950  12.176   4.609  0.2428  0.0349 -0.0243
19025W        W35872  16.245   7.138   4.044 -0.0315 -0.1565  0.0491
19026W        W35873  16.110  14.733  11.528 -0.0304  0.0754  0.1803
19027W        W35874  13.210  16.063   2.328 -0.0429  0.0337  0.0371
19028W        W35875   1.688   2.588   2.503  0.4629 -0.5473  0.1443
19029W        W35876   1.953   6.485  12.040  0.0492 -0.1185  0.1057
19030W        W35877  12.626  14.466  15.549  0.0554 -0.0972 -0.0168
19031W        W35878  11.293   7.286   4.889  0.1169  0.4344 -0.0265
19032W        W35879   7.674  10.472   4.394  0.3329  0.1024  0.1402
19033W        W35880   1.532   5.208  15.283 -0.1556  0.1558 -0.1628
19034W        W35881   8.289  13.405  16.221  0.1536  0.1155 -0.0124
19035W        W35882  17.937   3.725  13.069 -0.1090  0.1337 -0.1668
19036W        W35883   9.897   2.712   4.053 -0.0938 -0.0106 -0.3318
19037W        W35884   8.189  12.358   4.663 -0.1631  0.4079  0.0168
19038W        W35885   5.533   6.728   4.938  0.2534  0.1583 -0.1867
19039W        W35886   2.011  10.760   1.382 -0.0480  0.0686  0.0541
19040W        W35887   4.413  13.261  13.936  0.1300 -0.2059 -0.0375
19041W        W35888   0.834  14.103   3.424  0.0564  0.1471  0.0926
19042W        W35889   9.939  15.672   0.749  0.0320  0.2138 -0.0737
19043W        W35890  15.657   2.887  11.496 -0.1055 -0.1142 -0.3549
19044W        W35891   9.646   1.418   2.605  0.3007  0.1847 -0.0854
19045W        W35892   5.447   8.413   1.414  0.1048  0.2096 -0.1532
19046W        W35893  10.855  12.152  11.959  0.1110  0.3823  0.2238
19047W        W35894   8.499  11.878  13.779 -0.2253 -0.0138 -0.2847
19048W        W35895   3.947   2.070   3.529  0.1704 -0.3691 -0.0248
19049W        W35896  15.549  16.491   4.276 -0.1343 -0.1375 -0.1936
19050W        W35897  10.331  11.746  15.738  0.2518 -0.1179 -0.2684
19051W        W35898   9.886  13.954   3.693 -0.1350  0.0385  0.0170
19052W        W35899  14.708  16.412   5.428 -0.0878  0.3871  0.1598
19053W        W35900  15.182   7.656   5.412 -0.2112 -0.2454  0.0362
19054W        W35901   3.567   8.656  12.309 -0.0005 -0.1345  0.0707
19055W        W35902  13.290   4.818  14.825  0.1048  0.2320  0.1909
19056W        W35903   3.989  17.745   5.521  0.1874 -0.0063  0.0826
19057W        W35904   7.329   5.915   4.549  0.2528 -0.2868  0.3420
19058W        W35905   5.476   4.270  13.463  0.0993 -0.0193  0.0198
19059W        W35906  12.793  16.034   3.657 -0.0891  0.2444  0.0738
19060W        W35907  16.632  15.897   3.810  0.1385  0.1145 -0.1696
19061W        W35908  13.605   4.522  14.215  0.1921  0.2611  0.0861
19062W        W35909  11.296   4.446  15.494  0.0594  0.1768  0.2670
19063W        W35910  13.341  13.679  14.570  0.0045 -0.3312 -0.0238
19064W        W35911  13.679  11.964   2.371 -0.2340  0.1632  0.1369
19065W        W35912  11.728  12.986  10.448  0.1011  0.0514 -0.2136
19066W        W35913   0.111  17.938  12.580 -0.1528  0.1546  0.1326
19067W        W35914   7.119   2.055   2.951 -0.0944 -0.0129  0.1196
19068W        W35915   5.773   9.236  15.731  0.0656 -0.1741 -0.0275
19069W        W35916  16.493   3.616  16.188 -0.2432 -0.0335  0.0537
19070W        W35917  16.605   4.769   4.036 -0.0928  0.1071  0.2557
19071W        W35918  14.129   1.987   1.671  0.2347 -0.1582 -0.1479
19072W        W35919  12.405  14.849  15.322  0.2277 -0.1516  0.1960
19073W        W35920  14.215   4.317   3.538  0.2495  0.0741 -0.1958
19074W        W35921   0.940   6.151   5.254  0.1392  0.2555  0.2739
19075W        W35922   9.111  13.413  13.124 -0.3043  0.0475 -0.1427
19076W        W35923   1.048   6.339  12.297  0.1746 -0.1409 -0.0829
19077W        W35924   8.618   3.270  15.646 -0.2717 -0.1139  0.2239
19078W        W35925  11.689   4.637   4.822 -0.0233 -0.1135 -0.0658
19079W        W35926  16.909  14.050  12.280  0.2224  0.1549  0.1607
19080W        W35927   4.960   3.797  12.104  0.0965 -0.1480 -0.3173
19081W        W35928   1.145   6.189  16.273 -0.2467 -0.0207  0.0147
19082W        W35929   6.257   8.096  16.203  0.2784  0.0269  0.2631
19083W        W35930   3.293   6.192   6.399  0.1971 -0.0482  0.0515
19084W        W35931   4.153  16.617  14.197  0.1048  0.1170  0.0864
19085W        W35932  17.687  10.232   5.792 -0.0255  0.4821  0.0791
19086W        W35933  16.481   0.327  12.069  0.1699  0.1751  0.0822
19087W        W35934  14.719  10.660   3.653  0.1788 -0.1588  0.1685
19088W        W35935  12.528  16.507  10.979 -0.2866  0.0776  0.1282
19089W        W35936  17.478   7.398  15.834  0.1306 -0.3418 -0.2674
19090W        W35937  13.691   0.202  11.597  0.1536 -0.2387  0.0582
19091W        W35938  14.080  12.345   0.081 -0.1246  0.1582  0.2003
19092W        W35939   4.649  16.742  12.251 -0.0781  0.2378  0.2223
19093W        W35940   1.127  18.057   4.797  0.1712  0.0542  0.0090
19094W        W35941   7.526   6.103  13.422  0.0953 -0.0073  0.0057
19095W        W35942   7.295  16.530  16.660  0.0445 -0.0911  0.0205
19096W        W35943   5.986  14.956  12.649  0.0010 -0.0103  0.1102
19097W        W35944  18.040  16.352   3.750 -0.0043 -0.0909 -0.0347
19098W        W35945  11.783  12.945  15.372 -0.0757 -0.1600 -0.1773
19099W        W35946   8.076   3.344  14.571 -0.2389  0.0399 -0.0595
19100W        W35947  17.532   2.995  13.143 -0.0605 -0.2402  0.0076
19101W        W35948   6.096   1.903   3.974  0.1198  0.1578  0.1394
19102W        W35949   5.894   5.965  12.219  0.0014 -0.1476  0.0182
19103W        W35950  14.683  16.950  14.339 -0.3271  0.0267 -0.0585
19104W        W35951   7.048   0.464  15.991 -0.0914  0.0396  0.3094
19105W        W35952  14.719   9.942  12.082  0.0468 -0.1864 -0.1449
19106W        W35953  17.317   9.995  14.055 -0.0227 -0.0758 -0.1486
19107W        W35954   7.167   2.983  16.235 -0.0662  0.3504 -0.1565
19108W        W35955  10.778   4.295   2.409  0.3908  0.1817 -0.2422
19109W        W35956  16.383   9.236   1.139 -0.0049 -0.2141  0.0352
19110W        W35957  12.075   0.045   0.957  0.1375 -0.0176 -0.1919
19111W        W35958   1.060  12.829  14.218 -0.0100  0.0040 -0.1869
19112W        W35959   1.086  12.799   0.376 -0.0462  0.1465  0.1115
19113W        W35960  13.786   2.674   2.369  0.0133 -0.4650 -0.4313
19114W        W35961  16.700  13.396   5.727  0.1030 -0.0215  0.3411
19115W        W35962  16.201   8.410  15.624 -0.1409 -0.1122  0.1752
19116W        W35963   7.319  10.697  15.850 -0.1237 -0.0258 -0.1390
19117W        W35964  10.070   7.305   4.115  0.0247  0.4318  0.1893
19118W        W35965  15.247   8.743   5.426 -0.0159 -0.0455 -0.1873
19119W        W35966  16.757   6.881   5.648 -0.0950  0.0008  0.3619
19120W        W35967   1.753   9.200   4.032 -0.1310 -0.0010  0.2259
19121W        W35968   1.157  16.134  16.316 -0.2314 -0.1155  0.1155
19122W        W35969  12.690   9.023  15.798  0.1020 -0.2064 -0.0030
19123W        W35970   7.523  16.587  12.617 -0.1184  0.0530  0.0936
19124W        W35971   4.897  10.130   2.044 -0.0821  0.0059  0.2171
19125W        W35972  17.523   7.429   3.699 -0.2378 -0.4705 -0.1060
19126W        W35973  15.006  17.712  14.545 -0.1479  0.0431  0.0209
19127W        W35974  13.275   5.606   1.550  0.2410 -0.0977  0.1445
19128W        W35975   5.222  15.919   1.668 -0.0315  0.0355 -0.1853
19129W        W35976   6.130   3.339  15.097 -0.2623  0.1101  0.0398
19130W        W35977  13.545  11.547   2.681  0.1209 -0.3342  0.1980
19131W        W35978   3.878  15.299  14.968  0.0853 -0.0208 -0.0489
19132W        W35979  11.462   9.204   0.559  0.1682  0.2205 -0.0350
19133W        W35980  14.980   4.375   4.664 -0.1485 -0.1161  0.1991
19134W        W35981  18.030   6.173  14.879 -0.0493 -0.1817 -0.1204
19135W        W35982   9.513  13.843   5.774 -0.0516 -0.0180  0.0048
19136W        W35983  12.975   2.922  11.252  0.1184  0.2289 -0.0481
19137W        W35984   3.235  14.429  14.883 -0.1635  0.4920 -0.1522
19138W        W35985   6.872   6.841   0.230  0.1064  0.4444  0.1826
19139W        W35986   8.406   9.032  15.868 -0.1204  0.0534  0.0291
19140W        W35987   5.826  10.546   0.220 -0.0764  0.0611  0.0725
19141W        W35988   0.333  11.698  12.388 -0.1435 -0.0028  0.1150
19142W        W35989   1.781   3.355  14.542 -0.2134  0.2778  0.0803
19143W        W35990  13.902   0.987  12.844 -0.1803  0.2073  0.3500
19144W        W35991   1.147   0.985   2.194  0.1565 -0.2837  0.1768
19145W        W35992  17.792   3.004  13.781 -0.1320  0.1421 -0.2448
19146W        W35993  15.836  10.699  16.217 -0.0417 -0.0792 -0.0884
19147W        W35994  11.693   1.023   0.627 -0.2917 -0.2125 -0.1259
19148W        W35995   1.663   9.877   1.221  0.2125  0.2277 -0.2105
19149W        W35996  13.279   4.762  11.422  0.0008 -0.0201 -0.0198
19150W        W35997   9.811  14.155   4.464 -0.0538 -0.2368 -0.0989
19151W        W35998  12.310  14.364  12.700  0.3503 -0.3417  0.1433
19152W        W35999   9.113   5.546   0.407 -0.2034  0.0263  0.1923
19153W        W36000  13.830   8.476   0.085 -0.4011  0.3594  0.3843
19154W        W36001  12.802   5.036  12.673 -0.0258  0.3797 -0.4250
19155W        W36002   3.959   6.830  15.968  0.4898  0.0517  0.0828
19156W        W36003   3.766   1.998  16.163 -0.0773  0.2520 -0.3538
19157W        W36004   5.858   1.765   2.533 -0.0328  0.0616 -0.0741
19158W        W36005  11.527   8.318   2.062 -0.1429  0.1656  0.0198
19159W        W36006   3.602   5.373   4.469  0.2135 -0.2163  0.0548
19160W        W36007  11.560  10.990  14.700  0.1852  0.0219  0.3820
19161W        W36008   0.273   7.650  11.829  0.2278 -0.1148  0.3839
19162W        W36009   7.398  14.439  11.752  0.1432 -0.1577 -0.3606
19163W        W36010   6.127   3.468  12.566  0.1227  0.0272 -0.0817
19164W        W36011   8.090   0.303   5.439 -0.3122 -0.0452 -0.0505
19165W        W36012  12.871  17.092  15.533 -0.1784 -0.1989 -0.2445
19166W        W36013  11.055  15.323  14.454 -0.2033  0.0567  0.2213
19167W        W36014   0.442  11.045   5.379 -0.3066  0.2600  0.0756
19168W        W36015  15.314  14.250  13.083 -0.0349 -0.0908 -0.1364
19169W        W36016   9.796  16.596  14.288 -0.0748  0.1669 -0.2526
19170W        W36017   7.590   1.101   5.364  0.0574  0.0647  0.0761
19171W        W36018  10.570   5.080  11.667  0.1930 -0.0433 -0.0030
19172W        W36019  12.455  10.215  15.487 -0.0273 -0.5043  0.0270
19173W        W36020   2.238  10.704   4.055 -0.2834  0.1053 -0.0514
19174W        W36021   6.365   2.477   5.592  0.1731 -0.0187 -0.0529
19175W        W36022   4.826  17.901  12.818  0.2121  0.3777  0.0650
19176W        W36023   5.169  13.637   5.809 -0.1051 -0.3108 -0.2052
19177W        W36024  14.362   3.869   5.507 -0.1482  0.0536 -0.1301
19178W        W36025  17.279   1.411   5.489 -0.2531  0.3951 -0.1344
19179W        W36026  17.123   2.359   5.719 -0.0310 -0.1583  0.2581
19180W        W36027   8.233  17.977  14.678 -0.0214 -0.0632 -0.2294
19181W        W36028  13.708   4.954  15.093  0.2131  0.0780  0.1043
19182W        W36029  13.240  16.085   5.319 -0.0377  0.0561 -0.1707
19183W        W36030  13.314  14.647   4.662 -0.0465  0.0759  0.0295
19184W        W36031   3.358  14.616  12.600 -0.1083 -0.0187 -0.1481
19185W        W36032   9.017   0.230  12.576 -0.1289  0.0302  0.4767
19186W        W36033   0.480  15.727   4.155  0.2423  0.0398 -0.1876
19187W        W36034   5.402   9.633   2.719  0.1746 -0.1456  0.5152
19188W        W36035   4.364  14.130   0.585  0.1227  0.2314  0.1735
19189W        W36036   3.390   4.301  12.728  0.1572  0.1545 -0.2908
19190W        W36037   2.988  12.930  16.494 -0.0175 -0.0450 -0.2344
19191W        W36038   4.810   9.540  16.266  0.0881  0.1707  0.0278
19192W        W36039   2.045  16.117   3.212  0.3345  0.0327 -0.2371
19193W        W36040  11.245   0.800   2.503 -0.0405 -0.1310  0.2437
19194W        W36041  11.728  10.143  14.404 -0.0559 -0.2258  0.0350
19195W        W36042  13.041  16.221  15.508  0.3058  0.0053 -0.2016
19196W        W36043   1.544  12.738   0.096  0.3325  0.0870  0.0132
19197W        W36044  16.530   4.680  14.179 -0.1823 -0.0830 -0.1817
19198W        W36045   4.691   8.912   3.633  0.1634 -0.0422  0.1709
19199W        W36046  12.801   3.285   4.481  0.0824  0.0506 -0.0280
19200W        W36047  13.518   6.547  16.191 -0.3038  0.1175 -0.1770
19201W        W36048  14.933  17.776  12.992 -0.2782 -0.3053 -0.0993
19202W        W36049   7.265   4.861  11.698  0.0872  0.0510  0.1830
19203W        W36050   8.303  13.382   3.639  0.1893 -0.2254  0.1743
19204W        W36051  11.977  15.934  12.045  0.1557  0.2480  0.0910
19205W        W36052   5.792   1.657   3.171 -0.0043  0.1191  0.0976
19206W        W36053  11.059  13.553  11.701  0.0181 -0.0637 -0.0967
19207W        W36054   9.137   9.313   4.858  0.2391 -0.0684 -0.1710
19208W        W36055   2.519   6.390   4.670 -0.0740 -0.1178 -0.0336
19209W        W36056   3.158  13.237   0.654  0.0859 -0.2070 -0.2440
19210W        W36057   8.742   4.116   0.802  0.1061  0.3176 -0.2583
19211W        W36058   0.955  15.928   0.903 -0.1207  0.2727 -0.1117
19212W        W36059  11.313  15.497  14.997 -0.0717  0.1006 -0.0543
19213W        W36060   3.566  13.934   3.998  0.0568 -0.1372 -0.0451
19214W        W36061   9.839   3.296   1.406  0.0704 -0.1108 -0.1007
19215W        W36062   3.203  12.897  12.586 -0.2546 -0.3217 -0.2162
19216W        W36063  11.332  14.088  15.924  0.2839 -0.0516  0.0705
19217W        W36064   6.778  10.853  15.021 -0.2063  0.1304 -0.1548
19218W        W36065  13.347  17.235   4.096 -0.3705 -0.0314  0.1853
19219W        W36066  13.107   4.257  15.029  0.1882 -0.0562  0.0473
19220W        W36067  11.890  13.638  11.277 -0.1310 -0.0152 -0.1835
19221W        W36068  15.631  12.352  15.456 -0.1092  0.1524  0.0159
19222W        W36069   7.701  16.102  15.554 -0.2348 -0.2963 -0.2239
19223W        W36070  10.424   3.837   1.697  0.0833 -0.1906 -0.0482
19224W        W36071   5.029   5.332  14.808 -0.0981  0.0711  0.1537
19225W        W36072  14.318   4.188   3.981 -0.2453  0.0486 -0.0004
19226W        W36073   7.647   7.373  15.419 -0.1365 -0.0451  0.2366
19227W        W36074  17.728  16.537  16.050  0.3559 -0.1654 -0.1070
19228W        W36075  10.099  15.725  12.042 -0.1514  0.0208 -0.0289
19229W        W36076  11.722   4.488  15.762 -0.0386 -0.2378 -0.1467
19230W        W36077  13.165   0.270  11.405  0.0766  0.0490  0.2785
19231W        W36078  11.993   3.822  14.356 -0.1207 -0.1954 -0.0428
19232W        W36079   3.595   1.049   4.975 -0.1405 -0.1998  0.0449
19233W        W36080   2.659   3.230  11.634  0.0345  0.0395 -0.0051
19234W        W36081   7.120   5.540  15.504 -0.0016  0.1395  0.0607
19235W        W36082  10.018   6.313   4.742  0.3131 -0.1313  0.1223
19236W        W36083  14.511  12.274  11.738 -0.1048  0.1629  0.0589
19237W        W36084   3.076   4.696   4.651  0.0635 -0.0108  0.0249
19238W        W36085  15.367  10.962  14.599  0.2970 -0.0554  0.1447
19239W        W36086   3.494  14.725   1.390 -0.3048 -0.4256  0.3715
19240W        W36087  11.063  11.958   2.609 -0.0042  0.3548  0.3260
19241W        W36088  17.423   3.573  13.143 -0.0623 -0.0145 -0.0147
19242W        W36089  17.471   3.469   0.824  0.1346 -0.0156 -0.0512
19243W        W36090   8.080   9.470   3.909  0.1859 -0.0015 -0.0123
19244W        W36091   8.112   0.663   2.391 -0.0995 -0.2381 -0.1105
19245W        W36092   5.435   0.713  14.000  0.2250  0.1429  0.2040
19246W        W36093   7.206  17.496  13.747  0.6162  0.0983  0.3107
19247W        W36094  10.310  13.620   6.106  0.0935 -0.2552  0.1300
19248W        W36095  16.042   4.646   4.403 -0.1137 -0.2387 -0.0387
19249W        W36096  13.430  10.636   5.769  0.1039 -0.0642 -0.0512
19250W        W36097   9.477   1.493  13.522  0.1975 -0.1942 -0.0118
19251W        W36098  10.151  13.084   0.138 -0.2462  0.0357  0.1033
19252W        W36099  10.487  11.997   4.588 -0.2145 -0.0319 -0.0038
19253W        W36100   3.811  16.260   5.751  0.0905  0.0191  0.1306
19254W        W36101   8.726  17.697  16.086 -0.0461 -0.0476  0.2559
19255W        W36102   6.120   1.437   0.903  0.1534  0.1001 -0.0383
19256W        W36103   4.768   2.375   3.201  0.1543  0.1506  0.0143
19257W        W36104  17.541  16.859   3.483 -0.2154 -0.6634  0.2881
19258W        W36105  17.129  10.969   0.851  0.0359  0.1101 -0.1271
19259W        W36106  16.001  14.185   2.889 -0.0274 -0.2824  0.0793
19260W        W36107  12.489  14.941   0.806 -0.0467  0.2611  0.0370
19261W        W36108  10.166   7.516   2.725  0.2940 -0.0925  0.2941
19262W        W36109  17.136   9.916   5.272  0.1003  0.1648  0.3178
19263W        W36110  12.868  17.329  11.319  0.0698  0.1278 -0.0379
19264W        W36111  13.868   9.603   2.873 -0.2429 -0.0433 -0.1507
19265W        W36112  12.821   4.897   2.657  0.3470 -0.2100  0.0108
19266W        W36113   0.932  10.386  13.354 -0.1129  0.1408  0.0802
19267W        W36114  16.788   9.783  12.828  0.0149 -0.1973 -0.0516
19268W        W36115  11.053  10.854   0.285  0.3086  0.0524 -0.1179
19269W        W36116  15.511   2.413   5.395  0.2694 -0.2261  0.0009
19270W        W36117   9.754  17.214   1.312  0.0519  0.1151 -0.0451
19271W        W36118   9.154   4.079  16.165 -0.0051  0.1743 -0.4189
19272W        W36119  10.899  10.673   3.889  0.1310 -0.0649 -0.1659
19273W        W36120   6.260   5.849   2.791  0.1016  0.2010  0.3135
19274W        W36121   7.362   9.860   3.910 -0.0173  0.0699 -0.2408
19275W        W36122  15.536   5.304   0.824 -0.0347 -0.0331 -0.2449
19276W        W36123  10.683  10.430  12.405 -0.0579  0.1513  0.4200
19277W        W36124   2.231   3.414  15.526 -0.0852 -0.0847 -0.1119
19278W        W36125  11.482   8.928   3.649  0.0086 -0.1962 -0.2037
19279W        W36126   1.510   1.248   1.116  0.0232  0.2108  0.2052
19280W        W36127   5.508   5.083  13.163 -0.1333  0.2780  0.0425
19281W        W36128  13.224  14.947   0.160 -0.0044 -0.1027 -0.1246
19282W        W36129  11.971   0.471   1.639  0.0723 -0.2153  0.0583
19283W        W36130  16.999  10.596   4.226  0.0053 -0.1037  0.0843
19284W        W36131  17.047   9.569  13.338  0.2028  0.0334 -0.0077
19285W        W36132  12.935   5.093   4.853 -0.2076  0.0250  0.5929
19286W        W36133  16.978   1.329  13.262  0.0074 -0.1319 -0.0452
19287W        W36134   3.438  12.131   4.709 -0.1093 -0.0787  0.1975
19288W        W36135   7.216  17.424   0.523  0.0293 -0.1288  0.1576
19289W        W36136  14.971  14.657  13.050  0.0532 -0.0709 -0.1863
19290W        W36137   9.653  15.412  15.089 -0.1809  0.0857  0.0357
19291W        W36138  17.051   0.236  14.009  0.0459 -0.0109  0.2239
19292W        W36139   5.959  13.386   1.433 -0.2209 -0.2348 -0.3090
19293W        W36140  13.133  16.473   0.936  0.0936 -0.1834 -0.0970
19294W        W36141  11.299  14.862   0.174  0.2562 -0.1194  0.2019
19295W        W36142  12.039  15.789   5.919 -0.1688 -0.0216 -0.3076
19296W        W36143  12.449   7.582  11.684 -0.0813  0.3602 -0.0086
19297W        W36144  13.343  14.216   3.385 -0.0287  0.0900  0.0352
19298W        W36145   1.703  16.831   2.188  0.1931  0.3417 -0.2250
19299W        W36146   7.806  12.938  13.973 -0.2726 -0.1535  0.2070
19300W        W36147   4.313  11.625   1.533  0.0001 -0.1505  0.2763
19301W        W36148   3.840   4.780  13.498  0.0344  0.0166 -0.1256
19302W        W36149   8.407   7.731  12.889  0.0411 -0.0361  0.1792
19303W        W36150  15.141  11.856   3.156 -0.4140  0.1752  0.1152
19304W        W36151   9.848   1.392   4.156 -0.2648  0.1207 -0.0147
19305W        W36152   2.600   5.889   1.184 -0.2121 -0.1122  0.1695
19306W        W36153   9.679  12.940   3.910  0.0205  0.2222 -0.0286
19307W        W36154   6.917   3.027   0.261 -0.2814  0.0505 -0.1507
19308W        W36155   9.580  10.781   3.841  0.1035 -0.2183 -0.1281
19309W        W36156  11.369   0.305   2.831 -0.0017  0.2621 -0.1557
19310W        W36157   6.124   7.332   3.423 -0.0301 -0.0994  0.1364
19311W        W36158  13.494   2.225   2.514  0.1383 -0.1943 -0.1858
19312W        W36159   9.717   1.418   4.702  0.1048 -0.0232  0.4398
19313W        W36160  16.424   4.167  14.052  0.2112  0.0761 -0.3536
19314W        W36161   2.587   4.145  13.441  0.0568  0.1610  0.1989
19315W        W36162   8.309  13.203  14.224  0.0642  0.1223  0.2437
19316W        W36163   2.320  15.980  11.483  0.2939 -0.0336 -0.2078
19317W        W36164  18.058   9.900   2.883 -0.0355  0.0666 -0.2993
19318W        W36165   8.541   5.253  16.557  0.0107  0.2012 -0.2178
19319W        W36166   6.998   1.907   3.429  0.2389  0.1173  0.0126
19320W        W36167   7.183   5.853   3.801  0.0606 -0.0015 -0.2156
19321W        W36168  17.465   1.719   3.842  0.1158  0.0410 -0.1195
19322W        W36169  12.178   7.763   2.491 -0.1446  0.1377  0.0416
19323W        W36170  16.517   6.921  16.533 -0.0293 -0.2101 -0.0515
19324W        W36171  12.270   1.120  12.338 -0.0119  0.0573 -0.0692
19325W        W36172  12.866  15.620   1.401  0.0652 -0.2624  0.2046
19326W        W36173   0.726   7.726  15.632  0.0815 -0.2483  0.0624
19327W        W36174  16.116   6.028   0.743  0.0156 -0.1705 -0.0555
19328W        W36175   8.718   8.092  15.274 -0.0745 -0.3028 -0.1139
19329W        W36176   8.392   0.501   3.963  0.1050  0.1381  0.0363
19330W        W36177   2.510   3.770  14.652 -0.1109  0.2002  0.3137
19331W        W36178  15.289   6.714  14.269 -0.1604 -0.0739 -0.1208
19332W        W36179  10.960  17.043  14.312  0.0508  0.2908  0.0934
19333W        W36180  16.935   9.930   1.936  0.1076 -0.1264  0.1838
19334W        W36181   0.272   6.768  11.614 -0.1443 -0.3736  0.0954
19335W        W36182   0.415  17.134  13.267 -0.1020 -0.1413 -0.2159
19336W        W36183   2.831  12.262   6.262 -0.3950 -0.0303 -0.3625
19337W        W36184  15.792  13.160  12.965  0.2949  0.2156 -0.1758
19338W        W36185   5.398   0.703   4.646 -0.3077  0.0715  0.0790
19339W        W36186  13.372  15.813  12.846 -0.2739  0.0399 -0.2473
19340W        W36187   1.996  13.979   1.325  0.1909 -0.0281 -0.0311
19341W        W36188   5.549   6.319   4.642  0.1476 -0.0831  0.3613
19342W        W36189   6.587   9.862  12.051  0.0144 -0.1148 -0.0716
19343W        W36190  13.790  16.020   1.151 -0.1841  0.0748  0.1852
19344W        W36191   7.887  15.699  14.769 -0.3425  0.0619 -0.2203
19345W        W36192   1.858   3.973   4.212  0.2177  0.0366 -0.2286
19346W        W36193  17.105  14.512   4.588  0.0608  0.0567 -0.2882
19347W        W36194   2.960   8.277   5.445  0.2206  0.1471 -0.1190
19348W        W36195  10.903  10.247  11.958 -0.2566 -0.1626  0.0329
19349W        W36196   0.915  16.295   0.579  0.0727  0.0009  0.0730
19350W        W36197  13.479  14.751   3.523 -0.1134  0.1048 -0.0169
19351W        W36198   3.741   7.909  12.889 -0.0626 -0.1614  0.2038
19352W        W36199   5.716   4.030   3.635  0.0864  0.2313 -0.0905
19353W        W36200   3.363  17.983  11.932  0.3047 -0.1323  0.1471
19354W        W36201  10.731  17.246   4.209  0.0015 -0.1523  0.0564
19355W        W36202   2.786   1.742   0.885  0.1049  0.1204 -0.1021
19356W        W36203   8.367   9.602  12.689  0.1516 -0.0802 -0.3228
19357W        W36204   8.588   0.536   4.602  0.0443  0.0068  0.0979
19358W        W36205   6.693   1.210  13.401 -0.1059  0.3738  0.0238
19359W        W36206  13.932   9.477  14.153  0.0239 -0.2403 -0.0136
19360W        W36207   5.322   3.605   0.147  0.0417 -0.1653  0.0638
19361W        W36208  11.359  10.721  12.632 -0.1891  0.0356 -0.2615
19362W        W36209  17.889   5.478  12.121  0.1011  0.2177  0.1639
19363W        W36210   7.567  12.429   4.128  0.0976  0.0825  0.0385
19364W        W36211   2.999   7.694   4.060  0.1796 -0.0378 -0.1062
19365W        W36212   7.666   8.655  14.851  0.0305 -0.1815 -0.0595
19366W        W36213  11.915   3.042  14.267  0.1560  0.0432  0.3063
19367W        W36214  15.605   6.644  12.011 -0.0722  0.0114 -0.0466
19368W        W36215  13.063  13.467  14.277  0.1528  0.0461 -0.2274
19369W        W36216  11.968   2.240   0.316 -0.0257 -0.1470  0.1461
19370W        W36217  10.060   4.714  12.233 -0.2323 -0.0283 -0.0862
19371W        W36218   4.326   0.039  16.048 -0.2972  0.0861  0.2359
19372W        W36219  17.000   0.009   5.118 -0.1731 -0.2317  0.3942
19373W        W36220   5.018  15.584   4.018 -0.0296 -0.1923  0.1106
19374W        W36221  14.636   7.526   4.693  0.1111 -0.0259 -0.1957
19375W        W36222  10.807   9.858  12.321  0.0013  0.1210 -0.4665
19376W        W36223  14.486   3.612   4.567  0.2532 -0.1061 -0.0252
19377W        W36224  11.750  15.392  16.038  0.3068  0.1683 -0.1762
19378W        W36225   0.820   0.474  13.518  0.1048 -0.2336 -0.0729
19379W        W36226   9.530   1.008  13.680 -0.0738 -0.1124  0.0586
19380W        W36227   9.705   2.310  12.970  0.2020  0.1919 -0.0036
19381W        W36228   2.617  14.456   3.043 -0.1433 -0.0120 -0.1302
19382W        W36229  10.688  13.575   0.911  0.1296 -0.1177  0.0912
19383W        W36230  13.361   1.623  15.197  0.1657  0.1366  0.1785
19384W        W36231   5.430   1.538   0.857  0.2082  0.0770 -0.1584
19385W        W36232   3.083   6.378   1.873  0.2750  0.0462  0.1437
19386W        W36233   4.499   9.495  13.064  0.0670 -0.0933 -0.1067
19387W        W36234  17.404   0.779   2.101  0.0511 -0.4096 -0.0398
19388W        W36235   3.408   2.083  13.870 -0.0551  0.0980 -0.2377
19389W        W36236  10.792   5.618   2.824  0.1208  0.2230 -0.1587
19390W        W36237   2.975   4.268   4.838  0.4322  0.1375 -0.1320
19391W        W36238   3.728   6.392   4.181 -0.0125 -0.0361  0.0581
19392W        W36239  18.071   8.889   1.214 -0.0150 -0.1327 -0.0224
19393W        W36240   3.133   2.318  12.540 -0.0631  0.0822  0.0954
19394W        W36241   7.915   9.674  15.708  0.1139 -0.2298  0.0457
19395W        W36242   9.776  12.313  16.122  0.4604  0.0834  0.1796
19396W        W36243   2.893  11.470  13.355 -0.2423 -0.0311  0.0907
19397W        W36244  15.370  15.898  15.631  0.1940 -0.1687  0.1404
19398W        W36245  15.781  17.366   1.733 -0.0402 -0.1193 -0.1051
19399W        W36246   5.251   7.006  15.167 -0.0308  0.1928 -0.0088
19400W        W36247  16.185   2.970   4.548 -0.0042  0.0081  0.2335
19401W        W36248   9.132   3.247   0.198  0.1134 -0.1078  0.2622
19402W        W36249   6.862  14.978   1.843  0.0284 -0.0251  0.2113
19403W        W36250   0.563   3.698   1.084 -0.1185 -0.0093  0.0157
19404W        W36251   9.039   5.569   5.973  0.2800 -0.0794 -0.0709
19405W        W36252   5.791   5.272  13.612 -0.4741  0.0778  0.0348
19406W        W36253   1.761  13.417   0.772  0.1017  0.3607 -0.1672
19407W        W36254  14.455   3.903  11.614  0.0329 -0.2753 -0.1982
19408W        W36255  15.481   8.255   2.790  0.2023 -0.0198 -0.0901
19409W        W36256   4.077   9.665  15.238 -0.0075 -0.0238  0.1120
19410W        W36257   5.844  17.885  13.140 -0.1065 -0.3092  0.1752
19411W        W36258  12.471   0.708   3.850 -0.2885  0.2653 -0.1564
19412W        W36259   8.762   5.556  12.744 -0.3305 -0.0329 -0.0640
19413W        W36260  12.428   3.185   3.810  0.2083 -0.0264 -0.1558
19414W        W36261  16.826  14.504   0.646  0.1261  0.1912 -0.3310
19415W        W36262  16.939  10.809   1.684 -0.3852 -0.0635  0.0592
19416W        W36263   5.750   8.819   0.273 -0.3399  0.2033 -0.2433
19417W        W36264  12.223  17.784   1.306  0.1059  0.1824  0.1437
19418W        W36265  12.112  12.039  13.158 -0.0292 -0.2227  0.3956
19419W        W36266   3.957   8.036   4.113 -0.0166 -0.2975  0.0669
19420W        W36267  13.275  14.330  15.288  0.0629 -0.2269  0.0298
19421W        W36268  16.606   8.052   1.968  0.0468  0.3309 -0.2119
19422W        W36269  15.394  13.244   5.028  0.0519 -0.2884  0.0875
19423W        W36270   3.426   9.638   5.011  0.2784  0.0030  0.0776
19424W        W36271   2.743  12.297  14.156  0.0027  0.1952  0.1202
19425W        W36272   0.420  11.288  14.203 -0.0398 -0.0114  0.2300
19426W        W36273   0.413  16.136  15.059  0.0621 -0.1136  0.0363
19427W        W36274   7.364   9.732  16.687  0.3222 -0.1872 -0.0916
19428W        W36275   0.285   6.705   4.445 -0.1635  0.1347 -0.3662
19429W        W36276   1.325  11.005  11.626 -0.0489  0.0511  0.2178
19430W        W36277   3.056  16.786   2.908 -0.1001  0.2781  0.0496
19431W        W36278   4.250   9.904  13.890  0.0753 -0.0435  0.0987
19432W        W36279   2.642  15.499   5.538 -0.3767 -0.0569 -0.2083
19433W        W36280  10.746   3.384   4.154  0.1850  0.0989  0.1319
19434W        W36281   7.927  12.874  11.850 -0.2766  0.2134 -0.1197
19435W        W36282   6.303   5.257   1.027  0.1794 -0.1892  0.2034
19436W        W36283  11.335   3.075   6.139  0.0385  0.0936  0.3305
19437W        W36284  15.238   9.051  12.059  0.1237 -0.2099  0.0936
19438W        W36285  16.648  17.761  15.418  0.0013  0.2760 -0.1368
19439W        W36286  15.117  16.511   4.691 -0.1150  0.2206 -0.3792
19440W        W36287   9.907  14.869   0.683  0.2931  0.3322 -0.0904
19441W        W36288   2.792  16.667  15.488  0.2375 -0.1094  0.3193
19442W        W36289   1.947   1.858   1.853  0.0996 -0.0171 -0.1227
19443W        W36290   3.167   4.597  16.347  0.0557  0.0274  0.0848
19444W        W36291  13.116   8.449  16.634  0.0013  0.3352  0.0530
19445W        W36292   0.715  10.102   2.453 -0.1844 -0.1027  0.2825
19446W        W36293  13.153  15.028   3.135 -0.3203 -0.1452  0.0124
19447W        W36294   6.546   5.305  14.962 -0.1542  0.3223  0.0340
19448W        W36295   1.694   7.381  14.119  0.1043  0.1505  0.0187
19449W        W36296  16.442   3.253   0.883  0.2385  0.1500  0.1656
19450W        W36297   7.555  12.862  16.324 -0.0296  0.2368  0.0442
19451W        W36298  13.126   3.237  16.659 -0.0530 -0.0044  0.0811
19452W        W36299  10.462   7.694   3.298 -0.2496  0.3431  0.2965
19453W        W36300  10.913  13.557   3.494 -0.0390 -0.1799 -0.0776
19454W        W36301   1.620   8.839  15.133  0.1632  0.0154  0.0437
19455W        W36302  13.913  14.652   3.273 -0.1498 -0.1244 -0.3658
19456W        W36303   6.368  10.603   1.392  0.4335  0.0462  0.0997
19457W        W36304  13.453   9.225  12.475 -0.4016 -0.4397 -0.0508
19458W        W36305   6.663   6.047  14.361 -0.3201  0.0211 -0.0433
19459W        W36306   7.399  17.962  11.044 -0.0186 -0.1555  0.2818
19460W        W36307  13.688  11.308  15.323  0.1369 -0.2569  0.1002
19461W        W36308   6.752   5.635  11.961 -0.1387  0.1136 -0.0605
19462W        W36309  17.596  17.804   2.766 -0.2856  0.0287  0.1584
19463W        W36310   0.737  10.322  11.780 -0.2516 -0.1079 -0.0980
19464W        W36311  10.819  15.497   1.557 -0.4171  0.0340  0.1989
19465W        W36312   5.987  10.771  13.713 -0.1667  0.0025  0.0197
19466W        W36313   4.893   9.007   1.717  0.1128  0.1234 -0.1177
19467W        W36314   2.318   6.440   1.312 -0.0130  0.2098 -0.1307
19468W        W36315  12.401   8.294  15.963  0.1532 -0.0080 -0.3189
19469W        W36316  16.948  13.037   1.104  0.0084 -0.0967 -0.0395
19470W        W36317  17.064  11.420   4.732 -0.2233 -0.1425 -0.0703
19471W        W36318  16.872   2.952   0.641  0.0743 -0.0734 -0.0929
19472W        W36319   9.654  17.764   4.628  0.1488 -0.3026  0.1142
19473W        W36320  16.190  12.387   0.388  0.3793  0.1384  0.2432
19474W        W36321   0.826   0.341  12.173  0.0417 -0.3398  0.0334
19475W        W36322  12.799   2.751   4.429  0.1804  0.1875  0.2313
19476W        W36323  17.360   1.506   1.235  0.0038 -0.0535 -0.1880
19477W        W36324   2.690   7.429   0.261  0.1105  0.0069  0.1616
19478W        W36325  13.088   8.887  12.512 -0.1034 -0.3370 -0.1713
19479W        W36326  11.020   8.720  16.117 -0.2909  0.1202  0.2317
19480W        W36327   3.572  12.986  14.029 -0.0242  0.3148  0.2190
19481W        W36328   7.816  16.537   0.123 -0.2658 -0.2620 -0.0446
19482W        W36329   8.047   8.679   1.120 -0.1041 -0.0447  0.1284
19483W        W36330   8.716   8.295  11.658 -0.1193 -0.0144 -0.3954
19484W        W36331  14.676   5.965  13.876  0.0184 -0.4929  0.1808
19485W        W36332  17.206  17.940  11.615  0.4319 -0.0663  0.0177
19486W        W36333  13.627  15.175   2.292  0.0936 -0.1406 -0.0081
19487W        W36334   4.286   0.537  12.861  0.0708 -0.3986  0.1579
19488W        W36335   1.268   5.414   4.264  0.2525 -0.2258 -0.1654
19489W        W36336   3.552  14.789   3.040  0.0736  0.2063 -0.2926
19490W        W36337   0.141   3.777  12.580 -0.1640 -0.1483 -0.0317
19491W        W36338   7.191  16.937  13.395 -0.0524 -0.0340  0.2317
19492W        W36339  14.191  17.336  12.690 -0.0056 -0.0307 -0.2135
19493W        W36340  14.938  12.714  16.449 -0.1904  0.2179 -0.0472
19494W        W36341  17.833  11.340  14.872 -0.2326 -0.4013  0.2756
19495W        W36342  17.785  17.381   2.178  0.1276  0.0697 -0.2220
19496W        W36343  15.788   7.783   1.434 -0.2339 -0.0658 -0.0263
19497W        W36344   4.536   0.154  13.114  0.0094  0.0276 -0.1727
19498W        W36345  10.290   7.714  13.539  0.0075  0.3715 -0.0904
19499W        W36346  13.352   7.076  13.653 -0.1814  0.2235 -0.0550
19500W        W36347   0.255   0.269  14.967 -0.2231 -0.0104 -0.1047
19501W        W36348  15.091   0.892   3.186 -0.0326  0.0386 -0.1613
19502W        W36349   7.768   7.042   4.252  0.3132 -0.1973 -0.0984
19503W        W36350  16.205  14.742   3.420 -0.0577 -0.1200  0.1199
19504W        W36351  10.424   8.169   3.503  0.1048 -0.0995  0.5104
19505W        W36352  13.474  10.781  11.930  0.2190 -0.0015 -0.5636
19506W        W36353   0.461  12.984   1.438  0.0458  0.2854  0.0077
19507W        W36354   9.378  16.045  10.381 -0.0491  0.4315 -0.1996
19508W        W36355  13.569   3.410   1.939  0.3532 -0.1948 -0.1856
19509W        W36356   1.395   3.260   3.808 -0.0101 -0.0067  0.2132
19510W        W36357   6.783  10.222  13.202 -0.1247 -0.0824  0.2375
19511W        W36358  10.028   9.814  14.485 -0.0835  0.0311  0.2446
19512W        W36359  13.552   1.227  15.523 -0.1118 -0.1920  0.4177
19513W        W36360  13.606  12.266   4.125 -0.1831 -0.2510 -0.1198
19514W        W36361  17.510   8.205  11.947  0.2167 -0.4825  0.0104
19515W        W36362  10.794   1.379  15.303 -0.3289 -0.0034 -0.0754
19516W        W36363  14.718  14.034  11.459 -0.1790 -0.0600  0.2377
19517W        W36364  13.575   5.910   5.057 -0.2139  0.1377  0.0048
19518W        W36365   7.851  12.400   1.461 -0.0646  0.3671  0.0620
19519W        W36366  10.413   0.738   0.894  0.2632 -0.2070  0.0155
19520W        W36367   2.406  16.830   5.360  0.3111 -0.3446  0.3359
19521W        W36368  14.699   5.204   0.550 -0.0085  0.0174 -0.0215
19522W        W36369  10.248   0.333   4.106  0.0341  0.1526  0.0780
19523W        W36370   5.940   8.858   4.159 -0.3146  0.2316  0.0726
19524W        W36371   7.462  17.850   4.260  0.1757  0.0705  0.1221
19525W        W36372  17.284   8.449   1.025 -0.0508 -0.2290  0.2807
19526W        W36373   8.387   6.948   2.231 -0.0170  0.1823 -0.2455
19527W        W36374  17.060  17.503  11.455  0.2112  0.2479 -0.1564
19528W        W36375   6.747   8.343   2.375 -0.0338 -0.2960 -0.1529
19529W        W36376   9.531   5.545  14.452  0.2515  0.0163  0.1391
19530W        W36377   4.431  13.789  13.223  0.2590 -0.0163  0.0746
19531W        W36378  15.417  12.028   2.339  0.1463 -0.1212 -0.1637
19532W        W36379   4.386  14.013  14.503  0.0975  0.1537  0.0523
19533W        W36380   3.716   8.719  15.051  0.4238  0.3191  0.1900
19534W        W36381   4.837   4.403  13.448 -0.1670  0.2684 -0.0169
19535W        W36382  14.268  11.686  12.296  0.0536  0.0998 -0.1127
19536W        W36383  12.600   8.702  13.642 -0.0346  0.0465  0.0432
19537W        W36384   7.590   8.229  13.324 -0.1341 -0.1019  0.0053
19538W        W36385  12.216  10.615  15.960  0.0777  0.0466 -0.1500
19539W        W36386  17.116   9.531  16.022  0.3097 -0.0618  0.0956
19540W        W36387   6.866  16.478  16.016 -0.0501 -0.0824  0.4009
19541W        W36388   7.538  10.295   5.700 -0.1643 -0.1205  0.0532
19542W        W36389  17.448   5.193   3.218 -0.2080  0.1570  0.1236
19543W        W36390   1.227  14.593  16.472 -0.0421  0.2100 -0.1527
19544W        W36391  16.600   8.338   3.359  0.2382 -0.0241 -0.0419
19545W        W36392  15.083   8.248  12.633 -0.2216  0.2557 -0.0208
19546W        W36393  12.613   4.869  15.577 -0.0904 -0.1903 -0.0747
19547W        W36394  17.405  11.092  16.164  0.1248 -0.0401  0.0859
19548W        W36395   9.768  12.427  15.622  0.2996 -0.0857 -0.4251
19549W        W36396   9.997  16.971  11.263  0.2127 -0.0796  0.1960
19550W        W36397  13.928   4.206   2.265  0.1704  0.3765 -0.3718
19551W        W36398   0.805  13.523  13.168  0.0811 -0.1010 -0.1863
19552W        W36399   7.540  11.243   3.441 -0.0841 -0.1937  0.0063
19553W        W36400   8.689   0.497   0.564 -0.0661 -0.1044 -0.1638
19554W        W36401   0.323   6.066   1.504  0.2057 -0.1805 -0.1070
19555W        W36402  13.501  11.245  15.828 -0.0682 -0.1578  0.1237
19556W        W36403  15.087  11.326   1.816 -0.3676 -0.1949  0.3690
19557W        W36404  17.292   6.446  16.336 -0.0788  0.1148 -0.0233
19558W        W36405  13.991   5.507  16.577  0.0680  0.1269 -0.0652
19559W        W36406   6.664  11.186   2.747 -0.0850  0.0819 -0.2115
19560W        W36407   6.681  12.304  15.932  0.2587 -0.1254  0.1424
19561W        W36408  17.502   4.464  13.119 -0.1882  0.0726  0.1360
19562W        W36409  18.032   9.957  12.261 -0.0879  0.1252 -0.1562
19563W        W36410  17.937   8.181   2.476  0.0300  0.0473 -0.2049
19564W        W36411   3.339   9.578  11.659 -0.1336 -0.2978 -0.0514
19565W        W36412  12.276   4.442  11.497  0.0320 -0.0101  0.1145
19566W        W36413   4.537  12.886   6.171 -0.0266 -0.3922  0.3122
19567W        W36414  14.348   6.239  16.308 -0.2346  0.1129  0.2100
19568W        W36415   8.037  16.524  15.017  0.1593 -0.0702 -0.1293
19569W        W36416   4.374  13.618   2.324  0.0034 -0.2075 -0.1315
19570W        W36417   8.109   2.707  12.677  0.0306 -0.0066  0.0535
19571W        W36418   7.697   7.857   2.794 -0.2443 -0.0081 -0.0135
19572W        W36419   6.552   3.895   3.556  0.0226 -0.2644  0.3513
19573W        W36420  11.346   7.597   5.283  0.0285 -0.0286 -0.0396
19574W        W36421  16.517   2.032   4.392 -0.0120 -0.4318  0.2390
19575W        W36422  11.447   3.046   2.283 -0.1315 -0.0896  0.1476
19576W        W36423  16.726   4.578   1.599  0.1344 -0.4138  0.0804
19577W        W36424   7.214  10.010  14.310  0.0177  0.0803  0.0022
19578W        W36425  14.433   7.941  16.640  0.0449 -0.0218 -0.0098
19579W        W36426   6.344  17.145  13.790 -0.2415 -0.2274  0.0072
19580W        W36427   7.559   2.614  14.180  0.2375 -0.3215  0.0033
19581W        W36428   1.253   9.270  13.784 -0.0252 -0.3310 -0.0924
19582W        W36429   0.027   0.160   5.340 -0.3573 -0.2507  0.2612
19583W        W36430  16.662   5.584  14.590 -0.1911  0.1031  0.3162
19584W        W36431   0.131   4.646   3.711 -0.0274  0.0407 -0.0872
19585W        W36432   7.446  13.684   4.840 -0.0315 -0.1603  0.0561
19586W        W36433  17.411   5.038   2.685  0.2644 -0.0335  0.3550
19587W        W36434   7.819   0.736   4.797 -0.1083 -0.1559  0.1572
19588W        W36435   0.685  12.584  14.450  0.1241  0.0705 -0.0148
19589W        W36436   9.694   6.979   5.431 -0.0146 -0.0820 -0.2794
19590W        W36437  10.759   2.886  15.297 -0.2303 -0.2709 -0.3230
19591W        W36438   7.780   3.028  13.445 -0.1551 -0.0872 -0.1929
19592W        W36439  13.889   7.145  12.782 -0.1668 -0.1914 -0.0815
19593W        W36440   4.308  14.088   3.856 -0.1233 -0.1488 -0.0813
19594W        W36441  17.589   3.473  16.061  0.0636  0.0169  0.1530
19595W        W36442   3.960   4.406  13.179  0.1231 -0.1068 -0.0232
19596W        W36443  12.272  14.932   0.111 -0.0427  0.1635  0.0266
19597W        W36444  10.855  15.974   5.247  0.2235  0.2648 -0.0257
19598W        W36445  14.942   7.571  15.959  0.4395  0.2146 -0.0185
19599W        W36446   7.575   6.538   1.736  0.0247  0.1274 -0.0526
19600W        W36447  11.649   9.442  14.217  0.1194  0.0341 -0.0932
19601W        W36448   1.963  13.908  16.557  0.0849  0.4582 -0.1530
19602W        W36449   3.180  17.434   1.197 -0.0826 -0.0142 -0.2453
19603W        W36450  10.042  14.362  14.188 -0.0579 -0.3169 -0.2924
19604W        W36451   4.191   6.613   0.768 -0.1207 -0.0131 -0.4290
19605W        W36452   3.910  10.766   5.190 -0.1895 -0.0714  0.3099
19606W        W36453   1.334   9.973   4.180  0.1120 -0.0186 -0.1488
19607W        W36454  12.345  17.895  11.592  0.0255 -0.0970  0.0608
19608W        W36455  18.032  14.760   2.453 -0.0994  0.2193 -0.2149
19609W        W36456   0.880  17.626  15.488 -0.2553 -0.1191  0.0555
19610W        W36457  11.859   5.419  12.104 -0.0512  0.0566 -0.1111
19611W        W36458  11.420   1.471  13.679  0.0094 -0.1620  0.0157
19612W        W36459   6.663  15.770   1.527  0.1849  0.0032 -0.0834
19613W        W36460  10.632   5.740   5.392  0.0887  0.1316 -0.3231
19614W        W36461   5.821  11.112  12.583 -0.1299  0.1239 -0.0785
19615W        W36462  17.410  12.452   3.490 -0.2319 -0.1885  0.3822
19616W        W36463   0.794   1.193  16.648 -0.2052 -0.0834  0.1555
19617W        W36464   2.009  12.670  16.198 -0.3415  0.0447 -0.2282
19618W        W36465   9.952   4.085   3.087 -0.2008  0.1719  0.1106
19619W        W36466   9.631   2.952   0.325 -0.0526  0.0119 -0.0892
19620W        W36467   6.207  15.112  13.084  0.0026  0.0024  0.0927
19621W        W36468  18.019  10.826   4.334 -0.2811 -0.2599  0.1155
19622W        W36469   3.416   0.234  16.029  0.2770  0.1545 -0.1718
19623W        W36470   4.160  11.297   0.773 -0.2571  0.1231 -0.2150
19624W        W36471   9.741  14.335   3.960 -0.3478  0.2562 -0.1085
19625W        W36472   8.730  11.740   5.300  0.1381 -0.1967 -0.2202
19626W        W36473   9.668   2.824   2.234  0.1265 -0.2738  0.1793
19627W        W36474  14.650  10.288  15.012  0.1127 -0.1981  0.0019
19628W        W36475   5.539  13.118  12.375  0.1057  0.0500  0.2170
19629W        W36476  17.799  16.428   3.324  0.2591 -0.0957 -0.4934
19630W        W36477   2.473  12.660  16.006  0.1064  0.1475 -0.0769
19631W        W36478  12.801   5.384   4.489  0.3068 -0.1373  0.1751
19632W        W36479   1.608  15.221  12.699 -0.2667  0.1276 -0.2623
19633W        W36480  15.440   7.614  15.877 -0.3332  0.2671  0.2758
19634W        W36481  14.824   3.923   1.819  0.1110 -0.1680  0.0899
19635W        W36482  13.765   0.708  11.750 -0.0221  0.3892  0.3009
19636W        W36483  13.211   8.331  11.666 -0.3268 -0.0378 -0.0425
19637W        W36484  10.141   3.552  14.492  0.0111 -0.1169  0.0653
19638W        W36485   1.271   5.237  13.799  0.0457 -0.1452  0.0190
19639W        W36486  10.117   9.390  16.286  0.1141 -0.2360 -0.1372
19640W        W36487   3.083   0.380  11.742  0.1023  0.0265  0.1059
19641W        W36488   4.079   0.056   2.045 -0.0518 -0.2034 -0.1763
19642W        W36489  15.870   0.190   1.443  0.1227  0.0747  0.2081
19643W        W36490  13.852  12.398   3.112 -0.2029 -0.0366 -0.1081
19644W        W36491   2.458   9.091   1.303  0.0536  0.1515 -0.1526
19645W        W36492  13.737   0.691   0.289 -0.1385  0.2080 -0.0476
19646W        W36493  17.597  14.195   1.025  0.1456  0.1027  0.1013
19647W        W36494   0.672   8.211  16.639  0.1088  0.2420  0.2877
19648W        W36495   4.574  16.893  13.245 -0.0877 -0.2441 -0.2095
19649W        W36496  16.990  17.530   4.976  0.0050 -0.0112  0.2259
19650W        W36497  17.431  16.099  15.917 -0.1307 -0.0275 -0.0557
19651W        W36498   7.468   9.660  13.438 -0.2050  0.1264 -0.4053
19652W        W36499  15.235  16.655   3.850  0.3274  0.1997 -0.3241
19653W        W36500  11.899  10.111   4.555  0.2305 -0.0468  0.2065
19654W        W36501  17.829   7.531   0.105  0.0473 -0.0199 -0.0458
19655W        W36502   5.930   7.023   1.182  0.1517 -0.1216 -0.1805
19656W        W36503   2.211   8.774   6.046 -0.0692 -0.0327  0.3630
19657W        W36504   4.060   4.435  11.875  0.1906  0.0864  0.2144
19658W        W36505   4.282  10.168  14.365  0.3330  0.0030  0.1872
19659W        W36506   4.318   6.790   3.139 -0.0034  0.0605 -0.1361
19660W        W36507   0.130   8.179   5.031 -0.0084  0.0118 -0.1084
19661W        W36508  17.915   9.819   0.366 -0.0146 -0.1313 -0.3446
19662W        W36509  10.534  15.524   2.040  0.0477 -0.0139  0.1200
19663W        W36510   9.872  12.628   0.370  0.0196  0.0325 -0.2114
19664W        W36511  12.078   2.642   3.196  0.1158 -0.1318  0.0122
19665W        W36512  15.186  10.908   3.429 -0.2239 -0.2495  0.0522
19666W        W36513   8.227   5.125  13.749  0.2085 -0.1052  0.2007
19667W        W36514  17.644   2.910   2.577 -0.3633  0.1494 -0.3933
19668W        W36515  10.284  13.030  15.440 -0.0723 -0.1975  0.0329
19669W        W36516   3.763  10.648   0.079  0.0795 -0.1911  0.2477
19670W        W36517  13.627   4.957  11.077  0.2707  0.0869  0.0122
19671W        W36518  12.374   5.335   4.796  0.0722  0.2385 -0.1851
19672W        W36519  12.677  10.219  13.286 -0.0114 -0.2556  0.0492
19673W        W36520   9.266  10.861  15.054 -0.0336 -0.0892  0.2513
19674W        W36521   8.390   8.443  15.524  0.1243 -0.0152  0.1501
19675W        W36522   6.852  13.586   0.064 -0.2865 -0.2462  0.3455
19676W        W36523   3.069   0.287  12.667 -0.0902 -0.1756 -0.2320
19677W        W36524   1.560   0.900  12.645  0.1155  0.0534  0.0345
19678W        W36525   9.255   7.306   5.408 -0.3445  0.0028 -0.2265
19679W        W36526  17.863  17.787   0.906 -0.1967  0.1052  0.1518
19680W        W36527   2.368   6.187  12.392 -0.0860  0.0865  0.0090
19681W        W36528  12.335   0.439   3.142 -0.0795  0.0775 -0.2368
19682W        W36529   5.510  15.609   2.276  0.1670 -0.1565  0.2212
19683W        W36530  15.580   9.168   4.223 -0.2161 -0.1187  0.3067
19684W        W36531  12.937   8.719   0.321 -0.3642  0.1375 -0.2097
19685W        W36532   4.706  15.233  13.902 -0.1292 -0.0648  0.2648
19686W        W36533  12.803   3.605   5.050 -0.1368  0.1448 -0.0651
19687W        W36534   0.770   2.728   1.425 -0.2166 -0.0975  0.3197
19688W        W36535  16.497   4.233   0.838  0.1038  0.0351 -0.1439
19689W        W36536   3.102   2.806  10.860  0.0615 -0.0960  0.0093
19690W        W36537   5.532  11.856   5.461  0.0739 -0.0011  0.2143
19691W        W36538   1.519   8.033   4.478 -0.0612  0.3605  0.0789
19692W        W36539   9.261  13.463  14.106  0.0759 -0.0668  0.0548
19693W        W36540  14.418   3.364   0.276  0.3465  0.1123  0.1410
19694W        W36541   9.899  14.161   6.041 -0.3110  0.1407  0.4507
19695W        W36542  17.661   3.082  16.357  0.0212 -0.1790  0.1020
19696W        W36543  13.957  16.753   3.495 -0.1564 -0.1573 -0.1804
19697W        W36544  14.233  11.064   4.470  0.2843  0.2317  0.1652
19698W        W36545   8.758   4.901  13.847 -0.1368 -0.2068  0.4244
19699W        W36546   4.834  12.141  13.193  0.0714 -0.3055  0.1530
19700W        W36547  11.840   7.876  13.076  0.2461  0.6851 -0.0931
19701W        W36548  17.577   4.106  11.776  0.0378 -0.1832  0.0536
19702W        W36549   2.546  12.668  13.064 -0.3847  0.4070 -0.3257
19703W        W36550  15.080  10.953   0.100  0.2390 -0.1724 -0.3103
19704W        W36551   5.968   8.441  15.375 -0.0539 -0.0929 -0.0120
19705W        W36552   2.661   3.342  14.833  0.0893 -0.1428 -0.3307
19706W        W36553  17.968   0.505   4.427  0.0753  0.0478 -0.2001
19707W        W36554  17.451  17.429  13.493  0.2335  0.0058 -0.1331
19708W        W36555  11.729  15.919   5.443  0.0237 -0.0295 -0.5540
19709W        W36556   6.043   3.908   0.969  0.1962 -0.1301  0.1209
19710W        W36557   7.653   1.193  11.476  0.0456  0.1127  0.1887
19711W        W36558  16.898  16.515  16.563  0.2406  0.5641 -0.0450
19712W        W36559   7.323   3.997  15.370  0.1186 -0.0157  0.1151
19713W        W36560  17.889  15.543  13.991  0.1719 -0.3895  0.3829
19714W        W36561  10.419  12.932  11.964  0.0060 -0.0149 -0.0107
19715W        W36562  12.990   8.978  15.323  0.1432 -0.1197  0.1011
19716W        W36563   6.255   1.506   3.780  0.0455 -0.1171 -0.2268
19717W        W36564   9.305  12.431  12.614  0.0230 -0.2879 -0.2598
19718W        W36565   1.782   4.772  14.362  0.2918 -0.1724 -0.0402
19719W        W36566   4.610   7.858  11.891  0.2177  0.0076  0.1707
19720W        W36567   9.082   0.064   3.332  0.1156  0.0360  0.0103
19721W        W36568  15.685   2.897  12.004  0.0935 -0.2994 -0.4714
19722W        W36569  14.855   0.876   4.102  0.3390  0.0060 -0.0122
19723W        W36570  14.606  16.645  16.241 -0.3759 -0.1617 -0.2112
19724W        W36571   2.289   5.522   2.481 -0.2163 -0.3165  0.3412
19725W        W36572  12.763  10.735   5.503 -0.1852 -0.0824 -0.1955
19726W        W36573  16.567  13.752  15.351  0.1653  0.0926  0.0604
19727W        W36574  17.931  16.766   5.105 -0.3460 -0.3069 -0.4499
19728W        W36575   1.264   6.331  15.709  0.0053 -0.1324  0.2605
19729W        W36576   1.600  14.367   1.601 -0.0922  0.1692  0.0082
19730W        W36577   7.942   7.430   3.519  0.3026  0.0344  0.1183
19731W        W36578   5.853   3.801   3.128  0.1023  0.2613 -0.0815
19732W        W36579  13.317   7.985   1.474  0.0740 -0.0807  0.2240
19733W        W36580   0.419   0.888   1.533  0.1619  0.5052 -0.1830
19734W        W36581   8.336   2.066   3.799 -0.1332 -0.1214  0.1107
19735W        W36582  17.976   7.188   2.246 -0.0677 -0.1476 -0.0839
19736W        W36583   8.293   2.557  14.630 -0.0110 -0.1339 -0.3334
19737W        W36584  17.255   3.670  13.612  0.0569  0.3189 -0.0912
19738W        W36585   1.647   9.009  13.733 -0.0034 -0.0132  0.1020
19739W        W36586   6.860  13.674   2.307 -0.0557  0.0974 -0.3858
19740W        W36587   2.072   1.324   3.035  0.0300 -0.0021  0.0742
19741W        W36588   0.002  13.595   3.331  0.3711 -0.1104  0.1352
19742W        W36589   5.303   1.268   4.538 -0.3412 -0.4015 -0.2859
19743W        W36590  15.778  13.063   4.854  0.1868 -0.0102  0.3217
19744W        W36591   4.205  11.826   1.948  0.0279 -0.1390 -0.1435
19745W        W36592  15.277   2.113   3.199 -0.0340 -0.2578  0.0884
19746W        W36593  13.746  10.907   2.481  0.0151 -0.0488 -0.2169
19747W        W36594   4.750   4.889   4.027  0.4105  0.3472 -0.4530
19748W        W36595   0.025   1.632   1.493  0.0121  0.1144 -0.0531
19749W        W36596   9.657  15.020   2.276 -0.1126  0.0548  0.1627
19750W        W36597   0.522   9.324   6.149 -0.3799 -0.0286  0.4341
19751W        W36598  17.051  17.395  13.798  0.1595  0.4134  0.1765
19752W        W36599  11.936   5.915   5.855  0.0255  0.2073 -0.2753
19753W        W36600  10.711   4.778  12.000 -0.1670 -0.1337  0.1233
19754W        W36601   5.396  14.649  12.109 -0.0919 -0.0362 -0.0357
19755W        W36602   8.882   2.846  15.641 -0.1902  0.1053 -0.5223
19756W        W36603   2.554   3.888   2.892 -0.2012 -0.0250 -0.0056
19757W        W36604  17.213   5.647   1.465  0.0178 -0.0840  0.0991
19758W        W36605   5.614  15.625  15.031 -0.1195 -0.3011 -0.0973
19759W        W36606   8.320  14.098   5.048  0.0246 -0.0668  0.1164
19760W        W36607   4.595   4.076  13.821 -0.2035  0.0689  0.1821
19761W        W36608  12.425  14.457  16.652  0.3011 -0.0434 -0.0785
19762W        W36609  14.421  14.446  11.383 -0.2620 -0.0618 -0.0433
19763W        W36610   4.242   6.772  14.840  0.0194 -0.3083  0.1641
19764W        W36611  13.424   3.153  14.460  0.2985 -0.1956 -0.0900
19765W        W36612  11.548   0.063   4.616  0.2499 -0.2733  0.0945
19766W        W36613   2.213   4.689  11.164 -0.0263 -0.1916 -0.1168
19767W        W36614   9.432  13.218  11.672 -0.0642 -0.2037 -0.0360
19768W        W36615   7.922  15.684  16.664 -0.3106 -0.1294 -0.0670
19769W        W36616   0.927   8.038   0.659  0.0118 -0.1211 -0.1568
19770W        W36617   4.217   8.459   3.014 -0.0482  0.1948 -0.3862
19771W        W36618  17.210  14.799   1.296  0.0471 -0.3941  0.1683
19772W        W36619  17.476   7.389  13.937 -0.0518 -0.0012 -0.0977
19773W        W36620  12.050   0.839  15.285 -0.1773 -0.1068 -0.0872
19774W        W36621   5.702  16.042   5.230  0.3139  0.2668  0.2325
19775W        W36622   3.927   1.371   1.336  0.0633  0.0571 -0.0612
19776W        W36623   8.840  14.340  13.664  0.1596 -0.0657 -0.0033
19777W        W36624  17.628   0.045  14.907  0.0523 -0.0755  0.2579
19778W        W36625   5.817   7.111  13.042  0.4543 -0.1255  0.3442
19779W        W36626  13.083  16.734  14.218 -0.0615 -0.2273  0.0737
19780W        W36627   4.629  16.152  11.041  0.0289 -0.2786 -0.0737
19781W        W36628  15.860   5.907   4.315  0.1042 -0.0466  0.1731
19782W        W36629  16.395   2.787   0.954 -0.1527  0.1108 -0.1639
19783W        W36630  14.570  11.503   2.659  0.0789  0.1241  0.0901
19784W        W36631   8.151  13.879   5.479 -0.3893  0.2509  0.2070
19785W        W36632   2.528  15.383   1.879 -0.1135  0.0253 -0.0145
19786W        W36633   6.737   7.578  14.192 -0.0590  0.4306  0.2462
19787W        W36634  10.570   1.793   5.253  0.1297 -0.0483  0.2304
19788W        W36635   0.021  16.913   2.118 -0.0098 -0.2197  0.1745
19789W        W36636  13.423   7.795   2.217  0.0874 -0.0286 -0.4208
19790W        W36637   5.780  15.573   4.875  0.0155  0.1123 -0.2560
19791W        W36638   2.680   6.135   4.251  0.0514 -0.1762 -0.1903
19792W        W36639  10.188   2.638   1.809 -0.0743  0.0191 -0.0440
19793W        W36640  11.962   5.604   4.614  0.1193  0.1037 -0.2035
19794W        W36641   7.665   2.049   3.105  0.0079 -0.3673 -0.1560
19795W        W36642   6.733  16.022  14.216 -0.1395 -0.0412 -0.2809
19796W        W36643   7.121  14.805   3.103 -0.0967 -0.1362  0.0560
19797W        W36644  17.906  12.674  12.909 -0.2076 -0.0379  0.4892
19798W        W36645   0.291  13.076  14.659 -0.1999  0.0433 -0.0684
19799W        W36646  11.539  11.279   2.669  0.0069  0.3173 -0.0304
19800W        W36647   9.453  13.143  13.804  0.2137  0.4238  0.0434
19801W        W36648   2.794   9.431   3.214 -0.0572  0.1939  0.4141
19802W        W36649   1.438  17.613  11.739 -0.1859  0.0402 -0.0916
19803W        W36650   1.777   9.804   5.780 -0.0386  0.0815 -0.3393
19804W        W36651  15.190   6.126   1.794  0.0566  0.0603  0.1201
19805W        W36652  16.473   9.869  12.048  0.3117  0.1652 -0.0862
19806W        W36653  13.632   3.497  13.808  0.0988 -0.2100 -0.0938
19807W        W36654  12.596   8.100  11.620 -0.1152 -0.0775 -0.0960
19808W        W36655   2.892  16.559  12.101  0.2469 -0.0447  0.0472
19809W        W36656  11.176  15.704   6.153  0.0949  0.0735 -0.1678
19810W        W36657   6.110   0.386   1.881  0.1357  0.1216  0.0310
19811W        W36658  15.314  13.132   3.969  0.2325  0.1235 -0.1682
19812W        W36659   9.553   9.989  13.775 -0.0261 -0.1693  0.0875
19813W        W36660   3.776  10.398  12.075 -0.4538  0.1449  0.0026
19814W        W36661  10.680   2.413  11.736 -0.0363  0.1418 -0.3971
19815W        W36662   9.042   3.548   5.624 -0.0389  0.2761  0.0216
19816W        W36663   2.771  11.177  12.955 -0.0616  0.0374 -0.0233
19817W        W36664   9.259  12.711  12.066 -0.0287 -0.1897  0.1637
19818W        W36665  11.974   9.845  12.383  0.3307  0.0343  0.1931
19819W        W36666   0.995   4.950  13.264 -0.0714  0.0087  0.3847
19820W        W36667  15.820   8.831   3.349 -0.0517  0.2258 -0.1485
19821W        W36668  16.936  16.448   5.859 -0.2750 -0.2424  0.1483
19822W        W36669   7.133   4.799   1.736 -0.2286  0.1518 -0.0798
19823W        W36670  14.905   5.107  15.797 -0.0869  0.0210 -0.0002
19824W        W36671   4.507  16.393   3.023 -0.0367 -0.1351  0.0149
19825W        W36672   1.513   8.940  12.818  0.0726 -0.3273 -0.0289
19826W        W36673   2.452   3.650  11.801 -0.1872 -0.1502 -0.1249
19827W        W36674   3.098  14.414   2.211  0.2491 -0.0143 -0.0392
19828W        W36675   5.533   2.436   3.756 -0.0176 -0.0813  0.2553
19829W        W36676   2.684   0.189  14.315  0.2130 -0.0622  0.0140
19830W        W36677  17.660   7.918   5.618  0.0969 -0.2991 -0.3905
19831W        W36678  16.850   9.220   3.190 -0.0231 -0.0472 -0.1645
19832W        W36679  13.701   5.210  12.210  0.0044  0.0536 -0.3626
19833W        W36680  17.954   5.696   1.039 -0.0916  0.0575  0.0417
19834W        W36681   5.273   2.346  13.394 -0.1202  0.1637  0.1041
19835W        W36682   7.869   7.169  12.686  0.0212 -0.0655 -0.1882
19836W        W36683  17.761   2.058  16.120  0.2666  0.4423  0.0789
19837W        W36684   2.996   2.356   1.321  0.0406 -0.1683  0.0180
19838W        W36685  17.172   6.779  14.662  0.3492  0.0188  0.1318
19839W        W36686   7.068  14.132  13.764  0.0176 -0.1019  0.2250
19840W        W36687   4.434   6.241  13.175  0.1376 -0.0648 -0.0844
19841W        W36688  13.592  10.756  16.470  0.0073 -0.2309  0.2135
19842W        W36689  12.734  16.204  11.310 -0.1645  0.1689  0.0833
19843W        W36690   4.380  12.093  15.557 -0.0770 -0.1756 -0.0151
19844W        W36691  10.957  13.309  14.798  0.2005  0.3066  0.0170
19845W        W36692   0.930  14.785   1.128  0.2297 -0.0433 -0.1297
19846W        W36693  16.386  17.670   0.684  0.0970 -0.3930  0.4171
19847W        W36694   8.154   2.569  15.887 -0.1350 -0.1619 -0.3793
19848W        W36695  17.596   1.453   2.141 -0.0811 -0.0294  0.0577
19849W        W36696   8.745   8.693  13.894 -0.3637  0.3144  0.0820
19850W        W36697   4.663   0.439  16.108 -0.0965  0.3202  0.1066
19851W        W36698   6.083  16.020  12.850 -0.2399  0.0246  0.0324
19852W        W36699   1.257   8.003   3.093  0.0250  0.1963  0.1721
19853W        W36700  15.753  12.063  15.086  0.0924 -0.2683 -0.0317
19854W        W36701  10.434  10.842  13.434  0.0676 -0.1711 -0.0662
19855W        W36702  11.500  13.907  15.087 -0.0308  0.0980 -0.0171
19856W        W36703   6.967   7.614   4.521 -0.1600 -0.0785  0.0174
19857W        W36704   6.548  13.132   4.484  0.0802  0.1302 -0.0317
19858W        W36705  17.405  15.089   4.067  0.0144  0.1433  0.0211
19859W        W36706  10.062  10.372   1.320  0.1731  0.0633 -0.1211
19860W        W36707   7.425   4.714  14.227 -0.0007 -0.1506 -0.1161
19861W        W36708  14.448  15.264   4.583 -0.3257  0.0049  0.0854
19862W        W36709   1.438   0.944   0.590 -0.1841 -0.1113  0.0548
19863W        W36710   1.894  11.752   1.376 -0.2026 -0.2810 -0.0773
19864W        W36711  15.181  14.434   3.955 -0.1886 -0.0731 -0.0306
19865W        W36712   7.741   3.689   2.854 -0.0026 -0.1757  0.3722
19866W        W36713   6.696  11.613   1.413  0.0042 -0.0819  0.3534
19867W        W36714  12.060  12.602   0.424  0.1712  0.1551 -0.0036
19868W        W36715   3.698  10.095  15.034  0.1673  0.2725  0.0757
19869W        W36716  10.596   8.261   5.512  0.1430 -0.0960 -0.1116
19870W        W36717   7.724  17.827   3.854 -0.2122  0.1351 -0.1858
19871W        W36718  14.029   6.401   0.886  0.0076  0.0563 -0.0415
19872W        W36719  15.044   8.209  14.431 -0.3668  0.1792 -0.1211
19873W        W36720   3.930   3.128   5.364 -0.1260 -0.0656  0.0083
19874W        W36721  17.778  16.530  16.673  0.1043  0.1207 -0.3432
19875W        W36722   4.616   2.759  15.094 -0.3654  0.2152 -0.0587
19876W        W36723   0.987  16.678  12.230  0.1004  0.1423 -0.0962
19877W        W36724   7.648  14.586  14.229  0.2916 -0.0123 -0.1767
19878W        W36725   7.866  11.402  16.310 -0.0399  0.0368 -0.3288
19879W        W36726  10.307  17.191  13.753  0.0027  0.1772  0.1113
19880W        W36727  12.293   2.009  13.993  0.2331  0.5280  0.0657
19881W        W36728   0.489   1.028  13.407 -0.0477  0.3014 -0.2285
19882W        W36729  16.854  15.417  12.590 -0.2709  0.1690 -0.1011
19883W        W36730   5.313   1.526  13.062 -0.3938 -0.1357 -0.0908
19884W        W36731   5.875   1.733  15.805 -0.0446  0.0491  0.0238
19885W        W36732   7.598  13.942  14.053  0.0638  0.1561  0.1881
19886W        W36733   3.698   1.541   2.916  0.2113  0.0745 -0.0259
19887W        W36734   6.293   9.372  12.849  0.1076  0.1047  0.2446
19888W        W36735  13.912  15.540  13.669 -0.0728  0.2068  0.1444
19889W        W36736  17.129  13.337   0.175 -0.0058 -0.0693 -0.1926
19890W        W36737  12.491   0.919  15.523  0.0101  0.0174  0.0367
19891W        W36738   3.507  15.963  12.710 -0.0244 -0.0282  0.0173
19892W        W36739  16.249   0.163  16.601  0.1886  0.0321 -0.0784
19893W        W36740  16.219  14.942  13.922  0.1332  0.1092 -0.0039
19894W        W36741  10.879   9.900  13.174  0.2117 -0.0396 -0.1186
19895W        W36742  17.723  10.247   3.030 -0.2499 -0.0603 -0.0601
19896W        W36743  16.669   1.859  12.224 -0.1127  0.1646  0.0549
19897W        W36744   4.843  10.911   4.734 -0.0355  0.2550  0.0195
19898W        W36745   9.076   7.312   0.481 -0.0685 -0.1304  0.1038
19899W        W36746  16.720   9.798   2.387  0.0676  0.1076 -0.2293
19900W        W36747   3.359   9.677   1.521 -0.2604  0.0513  0.1336
19901W        W36748   5.837  12.388  16.596 -0.0343 -0.0906  0.2189
19902W        W36749  11.267   0.927  12.209  0.0268 -0.1319 -0.0108
19903W        W36750  15.881  17.130   0.572 -0.1436 -0.0740  0.0335
19904W        W36751  15.827   9.726  16.122 -0.2188  0.1544  0.0396
19905W        W36752  10.890  10.001   1.830 -0.0376 -0.1426  0.0162
19906W        W36753  17.094  15.808   2.354  0.0393  0.0287  0.0922
19907W        W36754   1.652   1.094   4.338 -0.0034 -0.0757 -0.0342
19908W        W36755   2.054  17.834   0.397 -0.0787  0.0087  0.2157
19909W        W36756  12.385   1.580  16.330  0.2656 -0.0355 -0.1002
19910W        W36757   0.000   6.858   0.759  0.4243  0.0717 -0.2070
19911W        W36758   6.649   6.396  12.922 -0.1137 -0.3832  0.1368
19912W        W36759   4.105  15.319  16.448 -0.1352  0.2346  0.0978
19913W        W36760   2.473   0.570  13.648 -0.3127  0.1685 -0.3155
19914W        W36761  10.741   7.923   4.262  0.0253 -0.0820  0.0536
19915W        W36762   3.674   9.121  15.749  0.0642 -0.0262  0.0162
19916W        W36763   9.593   2.244   0.428  0.2887 -0.1627  0.1869
19917W        W36764   4.751   7.982  12.842 -0.1797  0.1194  0.0081
19918W        W36765  14.840  11.069   0.511  0.4621  0.1708 -0.0262
19919W        W36766   5.627   8.509  12.166 -0.0408  0.1121 -0.1096
19920W        W36767  13.865   3.732   0.971 -0.3173  0.0552  0.1814
19921W        W36768   6.705   3.141  13.263 -0.0227 -0.0890  0.1211
19922W        W36769   9.039   2.217   1.705  0.3185 -0.0239 -0.0400
19923W        W36770   9.540  15.643   3.011  0.1204  0.2064  0.2563
19924W        W36771  16.195   0.398  11.651  0.1459 -0.0844 -0.0826
19925W        W36772   5.281  12.167  13.489  0.0032 -0.1389 -0.2657
19926W        W36773  13.108   0.796   1.072  0.0631 -0.0731 -0.2193
19927W        W36774   3.123   3.659   2.225  0.2286 -0.0737  0.1591
19928W        W36775   4.431   9.848   1.898  0.0717  0.1842  0.0301
19929W        W36776   5.166   1.575  16.013  0.5455  0.0702  0.1315
19930W        W36777  12.199   0.052   5.235  0.0191  0.0845  0.2136
19931W        W36778  14.714   1.503   0.743  0.3280 -0.0649 -0.0677
19932W        W36779  11.880   4.901   1.587  0.0683  0.0950 -0.3586
19933W        W36780   0.063  16.533  12.159 -0.0172  0.2427 -0.0481
19934W        W36781  14.297   3.475   3.234  0.0135  0.0988  0.0286
19935W        W36782  12.026   6.880   1.293 -0.1400  0.0453  0.1805
19936W        W36783   3.775   3.430  13.267 -0.1976 -0.0454 -0.0572
19937W        W36784  10.293  13.490   5.153  0.0836  0.1610 -0.1357
19938W        W36785   7.815  18.041  15.948  0.1260  0.4368  0.2756
19939W        W36786   0.383  15.964   5.210  0.0848  0.1056  0.1595
19940W        W36787   4.678  10.850  13.630 -0.1034  0.0918 -0.2970
19941W        W36788  16.380  16.886  11.451  0.0555 -0.0210 -0.2342
19942W        W36789  17.318   4.055  12.820  0.2300 -0.0460  0.1398
19943W        W36790  17.872   8.347   3.781  0.2595  0.3289  0.1402
19944W        W36791  13.074  15.892   4.865  0.3757  0.1469 -0.1607
19945W        W36792  14.969   2.379   1.786  0.1682  0.0797  0.1084
19946W        W36793  12.679   5.986   2.929 -0.1455 -0.1866 -0.0058
19947W        W36794  12.668  12.374  14.373 -0.1638 -0.2017 -0.1822
19948W        W36795  14.008  10.118  13.249  0.1804 -0.0113  0.1378
19949W        W36796  11.642   6.704  13.411  0.4325  0.1755  0.1637
19950W        W36797   8.663   3.059  15.178  0.1736 -0.0872 -0.0153
19951W        W36798   3.005   8.419   4.982  0.0279 -0.2851  0.0627
19952W        W36799   8.179  17.434   2.409 -0.2512  0.0057 -0.0622
19953W        W36800   3.843   9.108   5.661 -0.1834 -0.1841  0.0038
19954W        W36801  17.142   8.915   2.615  0.1615  0.0597  0.0927
19955W        W36802  13.339  12.792   0.008  0.0638  0.2474 -0.0639
19956W        W36803   5.227  11.829  15.415 -0.0882  0.0158 -0.0418
19957W        W36804   9.125  17.369  12.213 -0.0131 -0.1106 -0.2222
19958W        W36805  14.305  12.746   4.421  0.2059 -0.1079  0.0622
19959W        W36806   4.073   8.377   1.394 -0.3898  0.0945  0.1630
19960W        W36807  16.912  11.842   5.199  0.1139 -0.0824  0.1174
19961W        W36808   5.575   5.799   6.170  0.2317 -0.0595 -0.1969
19962W        W36809  10.931   8.336  11.979 -0.1159 -0.2848  0.2552
19963W        W36810   2.233   5.995   1.591  0.2930 -0.0161  0.2626
19964W        W36811  15.382   7.524  11.467  0.0706  0.0165  0.0379
19965W        W36812   8.561   3.211  14.638 -0.2541 -0.0536  0.3216
19966W        W36813  11.704  14.284  13.069  0.0578 -0.1446 -0.3363
19967W        W36814  13.369  13.485  15.019 -0.1594  0.0695 -0.0114
19968W        W36815  11.406   0.116   3.258  0.2732 -0.1407  0.0881
19969W        W36816  16.642  13.285  16.391 -0.3211  0.1446  0.0139
19970W        W36817  10.788  16.288  13.450  0.0915 -0.2439 -0.3573
19971W        W36818  12.749   5.140  13.212  0.0111  0.1375 -0.1840
19972W        W36819  10.371  11.738  13.910  0.3809 -0.0070  0.1925
19973W        W36820  13.816  10.348   1.683  0.2660 -0.1035  0.1583
19974W        W36821  14.232   1.174   3.970  0.2488 -0.1316  0.0187
19975W        W36822  11.706   7.459   4.195  0.1629 -0.0245 -0.1304
19976W        W36823   1.603  12.825   0.597 -0.0515 -0.1263  0.0033
19977W        W36824  15.680   3.662   1.917 -0.0100 -0.2054  0.0418
19978W        W36825   2.257  16.433   1.638  0.2996 -0.1535  0.1104
19979W        W36826  13.827  12.325  13.503 -0.2197 -0.1694 -0.0187
19980W        W36827   6.407  11.953   4.545  0.0152  0.0685  0.1001
19981W        W36828  13.332   3.296  13.360 -0.1277  0.0610  0.0090
19982W        W36829  17.865  11.404   5.206 -0.4103 -0.2819 -0.0204
19983W        W36830  12.128   4.007  11.725 -0.0499  0.3510  0.0138
19984W        W36831   3.979   3.394   0.190  0.4306 -0.1170  0.1348
19985W        W36832   6.069  16.078   4.903 -0.1795 -0.0731 -0.0307
19986W        W36833  10.641  17.351  14.570  0.1175 -0.2708  0.1157
19987W        W36834  11.510  13.980  13.473  0.3143  0.2012 -0.0707
19988W        W36835  12.054  17.744  13.637  0.2633 -0.1944 -0.0827
19989W        W36836  12.548  16.860   1.371 -0.1310  0.0186 -0.0671
19990W        W36837   0.196  14.406   2.798  0.0846 -0.1657 -0.1391
19991W        W36838   5.917   4.469  12.697 -0.0139  0.0194 -0.2197
19992W        W36839   9.819  10.977  14.713  0.1184 -0.3452  0.2820
19993W        W36840   7.165  12.615  14.767 -0.2620  0.1828  0.3503
19994W        W36841   4.412  11.108   2.861  0.2947 -0.3943 -0.0159
19995W        W36842   3.520  13.285   2.449 -0.6754 -0.0551  0.0393
19996W        W36843  17.396  13.764  14.017 -0.3595 -0.5796 -0.0084
19997W        W36844  11.600  15.577  11.906  0.3811  0.1640  0.0768
19998W        W36845   8.221   4.981   2.525 -0.0245  0.1261  0.1013
19999W        W36846  14.083  14.207  12.451  0.1019  0.0424  0.1884
20000W        W36847  16.485   6.493   3.504  0.0923 -0.0483 -0.0410
20001W        W36848  13.380  11.073   2.729 -0.3924 -0.0231 -0.0407
20002W        W36849   4.084  14.276   5.622 -0.1146 -0.0034 -0.0690
20003W        W36850   4.001  11.449  14.290  0.0469 -0.1474 -0.0442
20004W        W36851  11.998   8.896   1.802  0.1531 -0.1853 -0.2793
20005W        W36852   9.128  10.812  12.197 -0.2520  0.0917  0.0822
20006W        W36853   8.487   4.565   1.647 -0.2090  0.0311 -0.5378
20007W        W36854   8.578  13.553  15.718 -0.1254  0.1096 -0.1071
20008W        W36855  12.423   1.751   1.417 -0.2290 -0.1246 -0.1948
20009W        W36856  15.257  14.389  14.453  0.0063  0.4015 -0.0661
20010W        W36857  16.814  10.295   2.328 -0.0407  0.0910 -0.1943
20011W        W36858  15.427  14.815  12.887  0.0480 -0.2273  0.0090
20012W        W36859  15.941   2.101  14.339  0.0658 -0.0726 -0.0493
20013W        W36860  10.825   9.510   5.539  0.0054 -0.1439  0.0913
20014W        W36861   1.846  15.930  11.593 -0.2860 -0.2841  0.1859
20015W        W36862  11.205  17.313  15.421  0.3642 -0.4096  0.0387
20016W        W36863   0.573  15.037   0.801 -0.0339  0.0207 -0.1326
20017W        W36864   4.344   7.404   5.377 -0.1624  0.2017  0.2914
20018W        W36865  13.990   0.969   1.183 -0.1117 -0.1180 -0.0620
20019W        W36866  14.974   4.837  13.586  0.0653  0.1290 -0.0361
20020W        W36867  13.624  10.145  10.675  0.0174  0.2093 -0.1817
20021W        W36868   0.421  13.198   2.129  0.0296  0.4079 -0.0240
20022W        W36869  17.031   4.475  13.226  0.1070 -0.2643  0.1729
20023W        W36870  10.363  15.467  14.789  0.0864  0.0716  0.0962
20024W        W36871  17.318   7.117   5.484 -0.0822  0.1570  0.1511
20025W        W36872  13.131  14.398   5.478  0.2003 -0.1396 -0.0887
20026W        W36873  17.828   8.778  15.869  0.0249 -0.3065 -0.0045
20027W        W36874  12.639   8.546  11.385 -0.1925 -0.2621  0.0641
20028W        W36875  16.412   9.438   4.860  0.4058  0.0974 -0.3158
20029W        W36876   8.619   7.536  16.423 -0.0096 -0.3190  0.4130
20030W        W36877   1.920  14.656  14.624  0.0696  0.1751  0.0959
20031W        W36878  13.753   2.324   1.591  0.0240 -0.0878  0.1128
20032W        W36879   5.346   1.596   2.903 -0.0072 -0.0723  0.1457
20033W        W36880  13.557   7.079   5.307  0.0654 -0.1203 -0.0258
20034W        W36881  10.832   3.775   2.623 -0.0084 -0.3319  0.1783
20035W        W36882   9.224   1.383   4.457  0.3029 -0.1303 -0.0629
20036W        W36883   7.344   9.718   2.833 -0.0827  0.0260  0.0388
20037W        W36884  15.609   5.743  13.548  0.0171  0.1583 -0.0534
20038W        W36885  13.316   5.528  12.060  0.0562 -0.0563  0.0889
20039W        W36886  12.607  17.329   4.014 -0.1106  0.2172 -0.1081
20040W        W36887  17.688  15.041   3.359  0.1209  0.4028 -0.1061
20041W        W36888  17.145   1.297  14.183  0.3059  0.1082  0.2830
20042W        W36889   8.976  14.324  12.896 -0.0137  0.2947 -0.0481
20043W        W36890   1.727  12.739  13.895 -0.0852  0.0393 -0.1238
20044W        W36891  16.264   3.583  13.064 -0.0808 -0.0272 -0.0708
20045W        W36892  17.629  15.530   4.199 -0.0931 -0.0367 -0.1509
20046W        W36893   0.447  16.678   4.015 -0.3773  0.0885 -0.2051
20047W        W36894   5.704   1.280  13.390 -0.2946 -0.0321 -0.2444
20048W        W36895  13.966  17.149   0.401  0.1934  0.1820  0.1948
20049W        W36896  13.303  10.273  16.555 -0.1077  0.1083  0.1388
20050W        W36897  14.729   8.052   4.057  0.4298  0.0639  0.3810
20051W        W36898   0.862  14.288   2.184 -0.0021 -0.3010  0.1022
20052W        W36899   1.364   6.439   4.457 -0.0608  0.0017 -0.1373
20053W        W36900  12.761  11.190   2.042  0.0363  0.0675  0.1694
20054W        W36901   2.782   6.214  12.793  0.1124 -0.1518 -0.0412
20055W        W36902   4.334   0.627   6.020  0.2880  0.0565  0.1161
20056W        W36903   3.103  16.930  15.132  0.2635 -0.0138  0.0542
20057W        W36904  16.118  13.900   0.164  0.0222  0.2159  0.0527
20058W        W36905   9.912   5.351   4.325  0.1910 -0.0465 -0.1910
20059W        W36906  13.636   1.252   2.010  0.4799 -0.2806 -0.0187
20060W        W36907   3.625   0.708  16.205  0.4375 -0.5605 -0.1958
20061W        W36908  10.074  16.061  15.889  0.0751 -0.0151  0.1542
20062W        W36909  12.504  15.273   0.413  0.1651 -0.0279 -0.0364
20063W        W36910   9.311  16.914  16.022 -0.0044  0.1395  0.0919
20064W        W36911  12.496   0.421   5.016 -0.1051  0.3145  0.0798
20065W        W36912   9.329  13.494   1.618  0.0243  0.1138 -0.1871
20066W        W36913  12.885   8.392   2.829  0.0973 -0.3730 -0.3327
20067W        W36914   0.213   1.318  13.053 -0.1433 -0.1803  0.1789
20068W        W36915  15.037   0.109   0.559 -0.1880  0.0660  0.0813
20069W        W36916  12.554  10.339  11.672 -0.2887 -0.3175 -0.1194
20070W        W36917   5.855   5.517   5.865 -0.1748 -0.3135 -0.0461
20071W        W36918  13.328   0.605   4.880  0.3002  0.1023 -0.0373
20072W        W36919  10.259  11.096   5.050  0.3452 -0.0938 -0.1753
20073W        W36920   1.298   1.150  14.747 -0.1799 -0.0608  0.0869
20074W        W36921  14.159   5.119  14.844 -0.2276  0.0483  0.2971
20075W        W36922   8.091   3.299   1.601 -0.0151 -0.0057  0.0998
20076W        W36923   6.318  10.252   3.224  0.0940 -0.1103 -0.1305
20077W        W36924   2.454  16.835  16.061  0.1272  0.1947 -0.1602
20078W        W36925   8.894   6.488   3.754  0.1713  0.2008 -0.0551
20079W        W36926   3.025  14.958   6.239  0.0771  0.0630  0.2271
20080W        W36927  12.555   3.711   3.052 -0.0419 -0.0114  0.1490
20081W        W36928  11.464   2.663   1.367  0.0829  0.2071  0.2400
20082W        W36929  11.136   9.801  12.771 -0.1130 -0.1397  0.1256
20083W        W36930  13.276  10.195  14.264 -0.1131  0.2068  0.1870
20084W        W36931  16.443   4.859  12.603  0.2557 -0.1308  0.0732
20085W        W36932   8.987  10.139  11.460  0.2463 -0.2972  0.1219
20086W        W36933  10.035   1.129  14.941  0.3135 -0.1488  0.0879
20087W        W36934  14.064   8.067  16.273 -0.2678  0.1347  0.1448
20088W        W36935  13.353  16.386   0.524 -0.0437 -0.2753  0.2858
20089W        W36936   3.474  10.301   2.000  0.2172  0.1692  0.1102
20090W        W36937   0.611  14.235   2.971 -0.2559 -0.1736 -0.0931
20091W        W36938   1.035  16.019   3.426 -0.1510 -0.0687  0.3803
20092W        W36939   0.513   8.462  15.075  0.0397  0.0864 -0.1952
20093W        W36940   6.886   7.313  13.740 -0.0138 -0.1269 -0.0124
20094W        W36941  13.296   5.399  15.957 -0.2053 -0.2285  0.2971
20095W        W36942   4.277  15.428  15.633  0.0531  0.0672  0.2559
20096W        W36943   8.203  12.572   0.870  0.1735 -0.3963  0.0254
20097W        W36944   2.052  11.699   5.822  0.3437 -0.3811  0.1382
20098W        W36945  14.279   1.054  12.495 -0.2681 -0.0184  0.0820
20099W        W36946  10.306  13.701  12.198 -0.1479 -0.3430 -0.0985
20100W        W36947   8.239   6.873  16.648 -0.0753  0.2488  0.1354
20101W        W36948  14.047  12.333  13.062  0.0348 -0.4147  0.0166
20102W        W36949  15.523  13.712  16.284 -0.1897  0.1259  0.3717
20103W        W36950   7.818  12.878  15.847  0.1454 -0.2164  0.0769
20104W        W36951  16.286  11.185  13.982 -0.0763  0.1118  0.2286
20105W        W36952  15.000  14.429   1.286  0.0374  0.1038  0.5038
20106W        W36953   0.753  10.676   5.119  0.1956  0.1538  0.0485
20107W        W36954  15.939   5.717   0.412  0.0650 -0.2480 -0.4009
20108W        W36955   2.391   3.627   5.456  0.0798 -0.0816 -0.3660
20109W        W36956  14.673   8.834   1.465 -0.2929 -0.0839 -0.0361
20110W        W36957  14.501  13.813  16.247  0.1184  0.0231  0.0500
20111W        W36958  13.804   5.288   4.108 -0.0955 -0.1449 -0.2015
20112W        W36959   1.641   6.087   0.872 -0.1187 -0.0375  0.1362
20113W        W36960   0.907  16.379   2.109 -0.0366 -0.0821 -0.2011
20114W        W36961  14.985   4.766   3.740  0.0164 -0.0702  0.0876
20115W        W36962  10.695   1.596   2.923 -0.2211  0.0179  0.0265
20116W        W36963  14.605  10.614  14.027 -0.1668 -0.1477 -0.2661
20117W        W36964   7.497   4.234  12.196 -0.0307  0.0537  0.0208
20118W        W36965   3.277  11.164   5.008  0.1737 -0.2205 -0.1749
20119W        W36966   6.722   8.661   0.094 -0.1800 -0.2366  0.0587
20120W        W36967   1.454  16.617   4.817  0.0784 -0.0001  0.2142
20121W        W36968  13.838   9.226   1.474 -0.0624  0.0421 -0.0857
20122W        W36969   9.817   2.968   1.758 -0.0875  0.0374  0.2745
20123W        W36970   0.463  17.507   4.491  0.0086 -0.1660  0.1784
20124W        W36971  10.036   7.827   4.855 -0.0997  0.2409 -0.0538
20125W        W36972   2.618  16.288  11.706 -0.0433  0.0725  0.0752
20126W        W36973   1.044   4.328  12.676 -0.4337 -0.1438  0.1392
20127W        W36974  16.371  15.186   5.255  0.1395 -0.0914  0.2646
20128W        W36975  16.481   2.948   4.922  0.2149  0.0761 -0.0191
20129W        W36976  12.623   8.101   1.101 -0.0972 -0.0078 -0.1936
20130W        W36977  13.820   7.503   0.361 -0.0259 -0.1176 -0.2603
20131W        W36978  14.828   6.259  16.261  0.1250  0.1473 -0.0097
20132W        W36979   5.753  10.469  14.192  0.1952 -0.3148 -0.0830
20133W        W36980   3.496  18.057   1.820 -0.3325 -0.0120 -0.0548
20134W        W36981   7.338  10.462  12.270 -0.0973  0.1438  0.0649
20135W        W36982   8.291  16.206  13.234 -0.0603  0.0703  0.1124
20136W        W36983  14.506  14.544  13.305 -0.0932  0.1267 -0.1954
20137W        W36984   2.993   3.892  14.376  0.1817  0.1740  0.0125
20138W        W36985  11.898   4.969   3.297  0.0240  0.3230  0.0268
20139W        W36986   3.571   4.860   0.480 -0.1043 -0.3354  0.1129
20140W        W36987  13.244   4.056   1.457 -0.2835  0.0744 -0.2207
20141W        W36988  13.882   9.133   1.998 -0.1622 -0.3266  0.1408
20142W        W36989   9.602  14.137   0.294  0.0976  0.0407 -0.2751
20143W        W36990   1.154  17.043  16.633  0.0701 -0.0155 -0.1866
20144W        W36991   1.412   3.972   0.516 -0.1222  0.0010  0.2109
20145W        W36992   1.302  11.352  14.236  0.2534 -0.2798 -0.3527
20146W        W36993  17.846  13.064   2.137  0.1854  0.3214 -0.0759
20147W        W36994   0.225  10.330   2.681 -0.0599 -0.0740  0.0023
20148W        W36995  15.496  13.841  14.457  0.1926 -0.0549 -0.0965
20149W        W36996   0.202  11.799   4.016 -0.1731  0.0391 -0.0603
20150W        W36997   7.598   7.426  16.278 -0.1243 -0.0454 -0.0597
20151W        W36998   5.834   5.194   3.923  0.3405 -0.0508 -0.1735
20152W        W36999   2.752  14.210   0.730 -0.0933 -0.1463 -0.0971
20153W        W37000  14.414  13.387  12.181 -0.0329  0.0255 -0.3176
20154W        W37001  11.498   3.749  14.223 -0.1285 -0.0217 -0.0937
20155W        W37002  14.956  13.497  12.264 -0.1793  0.1451  0.1335
20156W        W37003  14.730  14.997  14.030 -0.0705  0.1533 -0.1826
20157W        W37004  13.291   0.695  12.866 -0.1425  0.0002  0.1196
20158W        W37005  14.215   1.688   4.143 -0.2104  0.2189 -0.2336
20159W        W37006   8.045   9.377   0.595 -0.0632 -0.0508  0.3820
20160W        W37007  17.657  13.434  16.210  0.2447  0.2038  0.0360
20161W        W37008  17.400  10.819  13.058  0.3775 -0.0538 -0.1298
20162W        W37009   8.145   1.235  15.021  0.1512  0.0213 -0.0023
20163W        W37010  11.713   1.853  13.807 -0.3353 -0.0405  0.0527
20164W        W37011  14.050   0.807   3.601 -0.0420 -0.1088  0.1036
20165W        W37012  11.118  10.141   5.134 -0.2233 -0.1117 -0.0246
20166W        W37013  13.665   5.037   5.388  0.1614  0.1000  0.2864
20167W        W37014   6.670  10.342   2.365 -0.2200 -0.0988 -0.1165
20168W        W37015   5.569  15.677   2.764  0.0463 -0.0606  0.0173
20169W        W37016   4.160   6.579  15.561 -0.0946 -0.0619 -0.1186
20170W        W37017  14.731   8.112  15.372  0.0784  0.2296 -0.0894
20171W        W37018  14.512   1.312  16.569 -0.2444 -0.3243  0.1815
20172W        W37019   6.957  12.798  12.825 -0.3343 -0.0312 -0.2974
20173W        W37020  11.521  11.939  14.564  0.0142 -0.0425  0.2386
20174W        W37021  11.933   6.118  13.985  0.1765  0.1370  0.1270
20175W        W37022   4.858   3.104  12.123  0.0382 -0.2225 -0.1550
20176W        W37023   6.533   6.911  16.055  0.1966 -0.2453  0.2131
20177W        W37024  12.730   3.745   1.916 -0.2333 -0.0179 -0.0887
20178W        W37025  16.341   7.614  12.843  0.2890  0.0808 -0.0706
20179W        W37026   9.820  13.368   1.696  0.0173  0.1088 -0.1625
20180W        W37027  12.576  14.023  13.515 -0.1001  0.0021  0.0318
20181W        W37028   4.686  11.483   4.159 -0.1987  0.1232 -0.0920
20182W        W37029  12.896   2.767  14.035 -0.0584  0.1125  0.1292
20183W        W37030  13.856  11.894  13.832  0.3164  0.2027  0.0235
20184W        W37031  10.339  16.779  13.524  0.0443 -0.0675 -0.2360
20185W        W37032  13.666  14.469   1.395 -0.1096 -0.2311 -0.0559
20186W        W37033  13.381   7.090   3.970 -0.0253  0.2323 -0.0437
20187W        W37034   8.203  12.324   5.445  0.2983  0.0908 -0.2676
20188W        W37035  13.099   7.417   0.019  0.1963 -0.0504  0.0240
20189W        W37036  12.016   9.769  14.698  0.0932  0.0176 -0.0419
20190W        W37037  10.228   0.263  14.453 -0.1153  0.0707  0.0546
20191W        W37038  12.365  17.224   0.368  0.1026  0.0227 -0.4167
20192W        W37039   7.678  11.099  11.997  0.0708 -0.1684 -0.0292
20193W        W37040   1.353   3.740   3.924 -0.0519 -0.2896 -0.0401
20194W        W37041   4.100   7.223  13.363 -0.1793  0.0109 -0.0829
20195W        W37042   8.218   2.520  15.159  0.4515  0.0693 -0.1020
20196W        W37043   0.030  10.034   4.315  0.0190  0.0433 -0.4005
20197W        W37044  10.916  11.076   2.996 -0.1589 -0.4805  0.0415
20198W        W37045   5.207  14.220   2.812  0.0832 -0.3041 -0.0045
20199W        W37046   9.143   3.538   1.990  0.3385  0.2724 -0.0921
20200W        W37047   1.289  10.550  13.661  0.0464  0.0532  0.2845
20201W        W37048  15.611   0.948  15.331  0.1077  0.6011 -0.0093
20202W        W37049  12.834  10.966   0.192 -0.1390 -0.3475  0.1402
20203W        W37050  14.575  14.315  15.231 -0.0262  0.1777 -0.1626
20204W        W37051  10.488   5.151  13.382 -0.3542 -0.3350 -0.1201
20205W        W37052   8.231  17.123   5.551 -0.0288  0.0738 -0.2331
20206W        W37053   8.005  13.463  14.812  0.0303  0.0209 -0.0311
20207W        W37054  11.083   8.275   1.018  0.2802  0.0152  0.0068
20208W        W37055  16.438   9.386   3.611 -0.1038 -0.3598  0.0041
20209W        W37056   3.661  13.000  14.580  0.0554 -0.3666 -0.1549
20210W        W37057  11.090   5.342  12.167 -0.2229  0.2032 -0.1048
20211W        W37058   8.109  16.560   2.601  0.0821 -0.2920  0.1020
20212W        W37059   9.238  15.872   4.606  0.0453 -0.0070 -0.1533
20213W        W37060   1.301  13.856   4.027 -0.1279  0.0853 -0.0299
20214W        W37061   7.131  13.660   0.936 -0.0502  0.1496  0.0064
20215W        W37062  10.048  15.618  15.206 -0.0572  0.2952  0.5272
20216W        W37063  14.780  17.396   0.286 -0.0591  0.0367  0.0456
20217W        W37064   1.775   6.967   0.873 -0.0285 -0.0904 -0.1869
20218W        W37065  11.612   0.729   3.872  0.0084  0.0432  0.0481
20219W        W37066  13.676  18.020   4.620  0.0603 -0.3480 -0.1321
20220W        W37067   1.329   9.799  16.670 -0.1610 -0.0783  0.0632
20221W        W37068   3.315   3.912   5.004 -0.2607  0.0895 -0.0540
20222W        W37069  17.738   5.814  16.103 -0.1370 -0.2236  0.1540
20223W        W37070   3.873   3.667  16.432  0.4501 -0.0366  0.0927
20224W        W37071   8.079  17.862  13.696 -0.1530 -0.1119 -0.0481
20225W        W37072  10.847   6.352   4.495 -0.0504  0.2131  0.2004
20226W        W37073   9.251  14.136   3.723  0.2503 -0.0009 -0.4596
20227W        W37074  16.521   5.038   0.798  0.2157 -0.0867  0.0948
20228W        W37075   4.860   2.394  13.112  0.1846  0.1237 -0.1075
20229W        W37076  15.306  10.488  14.890  0.0240  0.1018 -0.1928
20230W        W37077  14.066   6.873   2.201 -0.1104  0.0264 -0.4664
20231W        W37078   5.889  13.797   5.524 -0.0914 -0.3382  0.1463
20232W        W37079   1.483  11.511  14.955 -0.0470 -0.1922 -0.0208
20233W        W37080  15.132   4.851  12.282 -0.0642  0.0045  0.4032
20234W        W37081   7.814   9.076   2.814  0.4456  0.3333  0.3440
20235W        W37082   9.099   8.646  16.063  0.0212 -0.0303 -0.2811
20236W        W37083   7.172   2.200   0.063  0.0866  0.0926 -0.1796
20237W        W37084  13.998   2.324  12.155 -0.1337  0.1792 -0.2087
20238W        W37085   3.678  17.176  15.186 -0.0754 -0.0665 -0.2154
20239W        W37086   7.208  11.971   5.715  0.1347  0.3274  0.3418
20240W        W37087   6.897   1.423  11.315  0.3678 -0.2361  0.0830
20241W        W37088   0.424  10.370  13.169 -0.1531  0.1313  0.4229
20242W        W37089   7.658   1.115   1.065  0.2494 -0.1595 -0.0192
20243W        W37090   3.094   7.135  10.868  0.1262 -0.1006  0.1092
20244W        W37091   0.646   6.842   1.485  0.1494  0.0445  0.1018
20245W        W37092  15.407   2.202   4.433  0.3734  0.0347 -0.1668
20246W        W37093   7.560   6.253   6.038  0.1241  0.3423  0.0263
20247W        W37094   0.509  12.918  14.158  0.0277 -0.3413 -0.1837
20248W        W37095  17.563   2.389   1.358 -0.1491 -0.4434 -0.0266
20249W        W37096   5.695   9.296   4.188 -0.4517 -0.2951  0.1552
20250W        W37097   2.472  11.588   1.235 -0.3289  0.0382 -0.1187
20251W        W37098  11.247  12.737   6.127 -0.1897 -0.0351 -0.2896
20252W        W37099  15.861  11.821   1.555 -0.0773 -0.1410 -0.1809
20253W        W37100   2.135   0.454  16.689  0.0295  0.2705  0.1665
20254W        W37101   1.709  17.519   0.936 -0.2853 -0.0430 -0.3973
20255W        W37102   1.551  12.630   2.707 -0.3218  0.0967 -0.2196
20256W        W37103  17.338   1.364   6.008 -0.0219  0.0375 -0.1504
20257W        W37104   5.728   2.580  14.677 -0.0673  0.4483 -0.0860
20258W        W37105   6.939  15.411   0.537 -0.0321 -0.4927 -0.0871
20259W        W37106   0.530   0.076  13.182 -0.1901 -0.1703  0.0880
20260W        W37107  17.507   5.429   4.091 -0.2965 -0.2836 -0.1823
20261W        W37108   2.686   2.703   1.971  0.2114  0.0154  0.0192
20262W        W37109  16.844   5.342   2.773 -0.3530  0.1137  0.0321
20263W        W37110  11.108   1.920   4.316  0.2715  0.4044  0.1777
20264W        W37111   2.296   4.266  13.839  0.3045  0.3050 -0.2096
20265W        W37112   1.087   4.238   3.356 -0.2325  0.2386 -0.3021
20266W        W37113   1.108  15.031   0.546  0.2140  0.2466 -0.2084
20267W        W37114   1.585  12.162   4.369  0.0208  0.0871 -0.1643
20268W        W37115  17.582   6.369  12.906 -0.2140 -0.2400  0.3339
20269W        W37116  14.786  11.504   4.426 -0.0013  0.1797 -0.2382
20270W        W37117   5.518   2.431  12.978  0.1341  0.0300  0.3222
20271W        W37118   9.439   4.716  15.515  0.2178  0.2554  0.0339
20272W        W37119  17.477  14.570   1.959 -0.0397 -0.2598  0.0542
20273W        W37120   9.436  14.347   2.648 -0.0054 -0.1380  0.3851
20274W        W37121  16.393  15.791  11.864  0.1034 -0.3517 -0.1850
20275W        W37122   3.975   8.928   2.964  0.0517  0.0724 -0.1511
20276W        W37123  17.159   4.909  13.037  0.1462 -0.0914 -0.2328
20277W        W37124  14.878  14.089   4.819  0.2037  0.1330  0.0957
20278W        W37125   9.155   6.559  11.637 -0.1010 -0.2232  0.0841
20279W        W37126  12.349  12.366  11.135 -0.1731 -0.1359  0.0096
20280W        W37127  16.968   9.038   1.741  0.2429 -0.0328 -0.0453
20281W        W37128   9.213   7.994   5.218 -0.3219  0.0858 -0.3523
20282W        W37129   7.028   9.838  13.343  0.1042 -0.0359  0.0816
20283W        W37130   3.377   7.110   2.504  0.1508  0.2064  0.0642
20284W        W37131   8.802  14.638  11.615 -0.2528  0.0769 -0.1470
20285W        W37132  12.188  11.087  16.263 -0.1645 -0.1831 -0.2203
20286W        W37133  13.096  15.843   1.788 -0.1488 -0.0703  0.0948
20287W        W37134  12.603   4.427   5.251 -0.0286 -0.1910  0.2033
20288W        W37135  14.920   3.176   4.062  0.3109  0.0136  0.0697
20289W        W37136  10.512   1.311   2.101  0.1291 -0.1836  0.2588
20290W        W37137  15.740  11.582   3.223  0.4311 -0.2404  0.4374
20291W        W37138   7.247   3.693   1.528  0.0645  0.0224 -0.1315
20292W        W37139  16.621   1.452   2.848 -0.1861 -0.2156 -0.0776
20293W        W37140   9.988  12.563  14.287 -0.0989  0.0179  0.0244
20294W        W37141   7.045  12.913  16.614 -0.0466  0.0435 -0.1085
20295W        W37142  13.160  16.429  13.100 -0.1625  0.1903  0.2608
20296W        W37143   6.055   8.718   3.080  0.2260  0.2827  0.0160
20297W        W37144   1.587  12.132  15.762 -0.2205 -0.1571  0.4166
20298W        W37145  13.242   2.410  12.710  0.0209  0.1032 -0.0203
20299W        W37146  14.033  17.428   2.965 -0.0134  0.1004 -0.1538
20300W        W37147  15.184   0.155   4.976  0.1219 -0.0533 -0.4537
20301W        W37148   9.799   3.062  16.183  0.0751 -0.0805 -0.1191
20302W        W37149  16.518   7.348   5.034  0.3529  0.2372  0.1576
20303W        W37150   2.611  12.688  15.516  0.1785 -0.2496  0.0163
20304W        W37151   7.521  10.688  13.235 -0.1598  0.0297 -0.0231
20305W        W37152  16.862   0.086   3.951  0.2732 -0.0976 -0.1205
20306W        W37153   0.338   5.439   3.240  0.1410  0.0668 -0.2316
20307W        W37154  11.708  16.558   5.044  0.0024 -0.0499  0.0009
20308W        W37155   5.025  11.024  15.838  0.0709 -0.1305 -0.0410
20309W        W37156  15.250   4.824   2.712  0.0576  0.0041 -0.0260
20310W        W37157   3.093   1.998   3.791  0.2024  0.0498 -0.0366
20311W        W37158   3.222   8.111  13.696  0.0697 -0.1062 -0.1240
20312W        W37159  15.673  13.654   0.124 -0.0059 -0.2115 -0.1446
20313W        W37160  12.906   6.813  12.002 -0.0548 -0.2379  0.0980
20314W        W37161   2.765   6.859   5.316 -0.1832 -0.3129 -0.1502
20315W        W37162   3.656  12.515   0.180  0.1485 -0.1767 -0.2492
20316W        W37163   6.541   5.861  13.281 -0.2079 -0.3270 -0.2116
20317W        W37164   4.397   2.634  13.746 -0.0969 -0.3109 -0.1679
20318W        W37165  12.023   1.624   3.710  0.0927 -0.1388 -0.1965
20319W        W37166   6.483   0.022  15.020 -0.2351 -0.0787  0.0873
20320W        W37167   0.154   4.220   4.615  0.0289 -0.0843  0.1869
20321W        W37168   7.035  14.251   0.636 -0.1283  0.1031  0.1529
20322W        W37169  11.266  12.349   3.540 -0.2612  0.0196  0.0476
20323W        W37170  13.591  14.586   0.882  0.1252  0.2881  0.1198
20324W        W37171   5.937   6.268   3.385  0.1023 -0.2372  0.0684
20325W        W37172  10.651   8.786  16.481 -0.2787  0.1527  0.0749
20326W        W37173  12.672  11.346   5.380 -0.1004 -0.0562 -0.1622
20327W        W37174   6.084  15.945  16.060 -0.1997  0.0684 -0.1690
20328W        W37175  15.312   2.419  16.478 -0.1209  0.0677  0.1611
20329W        W37176   3.773   9.233   3.952  0.3051  0.0420 -0.0837
20330W        W37177   2.833   9.869   0.205  0.2120  0.2703  0.2195
20331W        W37178   6.746  17.896   2.748 -0.0786 -0.1015  0.1359
20332W        W37179  11.225  15.575  13.622 -0.1670 -0.0259 -0.0249
20333W        W37180  12.657  12.498   1.158 -0.2059  0.2827  0.1059
20334W        W37181  14.094  12.848   4.930 -0.0698 -0.1629 -0.3074
20335W        W37182  15.519   1.094   0.988 -0.2288  0.1252 -0.1414
20336W        W37183  11.550   0.500  16.606 -0.0395 -0.1499 -0.4016
20337W        W37184  10.358   7.609  15.272  0.0433  0.3763 -0.2452
20338W        W37185   3.170   2.003   0.952  0.2655  0.0051 -0.1061
20339W        W37186   3.266  13.475  15.700  0.0337  0.0651 -0.0048
20340W        W37187  13.207  16.946  15.139  0.2281  0.2818  0.1077
20341W        W37188   2.964   6.469  13.151 -0.1119 -0.0534 -0.1082
20342W        W37189  15.425  13.186  12.029 -0.0851  0.0630  0.2641
20343W        W37190   2.508   9.424  11.819 -0.2267 -0.0148 -0.0445
20344W        W37191   5.841  14.188  11.421  0.0443  0.0997 -0.2661
20345W        W37192  15.617   9.665   3.286  0.0215  0.0362 -0.4298
20346W        W37193   0.923   0.387   4.737 -0.1173 -0.1847  0.0252
20347W        W37194  17.844  13.580  12.201  0.0577 -0.0035  0.1243
20348W        W37195  12.957   9.908  14.027  0.0565  0.2088 -0.3330
20349W        W37196  17.016   2.886   3.028 -0.1061 -0.0902 -0.1126
20350W        W37197  10.738   6.707  13.827 -0.1028 -0.0912  0.0295
20351W        W37198  10.806   2.914   6.110  0.0795  0.0904 -0.0898
20352W        W37199  14.593  15.386   1.344  0.0191  0.2696 -0.0471
20353W        W37200  15.210   2.064   1.443  0.3276  0.1280 -0.0032
20354W        W37201  11.925   2.742   0.378  0.1096 -0.1250 -0.2518
20355W        W37202   9.448  11.054  12.575  0.0294  0.0779 -0.1351
20356W        W37203  10.873  14.959   4.857  0.1037 -0.0230 -0.1287
20357W        W37204   3.091   2.923   4.507  0.0385  0.1393 -0.1071
20358W        W37205   4.858  12.781   5.179  0.0698  0.1726  0.0605
20359W        W37206  14.487   4.248  12.969  0.0014  0.0756 -0.0982
20360W        W37207  13.035  16.928   0.987 -0.2312  0.0338 -0.2158
20361W        W37208  15.089   2.141  15.638  0.0640  0.0880 -0.4284
20362W        W37209   1.757   0.526  12.328 -0.0424  0.0597 -0.1528
20363W        W37210  15.808  10.791  13.793  0.1845 -0.3884 -0.2108
20364W        W37211  11.528   8.897  14.694 -0.2218  0.0353  0.0520
20365W        W37212   0.866   9.642  14.793 -0.3444  0.0765  0.2237
20366W        W37213  10.410  15.222   1.330  0.0408  0.2432 -0.0252
20367W        W37214   2.725   3.515   1.351 -0.0027 -0.0226  0.2569
20368W        W37215   0.837   5.731   4.285  0.1658  0.1858  0.0063
20369W        W37216   7.398   2.531  16.383 -0.0232 -0.0416  0.0424
20370W        W37217   5.795   9.991   0.952  0.0077 -0.0785  0.1603
20371W        W37218  11.089   9.991   3.137 -0.1350 -0.0344 -0.1930
20372W        W37219   2.652  15.708  15.154  0.1405  0.3112  0.1072
20373W        W37220   6.811   8.492   3.403 -0.3206 -0.1241  0.1537
20374W        W37221   1.529   9.673   0.431 -0.0960 -0.2908 -0.3241
20375W        W37222  18.069  12.353   4.624  0.2696  0.2603  0.1412
20376W        W37223   0.245  11.433  16.579  0.1132 -0.1980  0.0335
20377W        W37224  12.589   3.535  12.231 -0.0350 -0.0912  0.0541
20378W        W37225   4.006   2.658  11.153 -0.2449 -0.0585 -0.3532
20379W        W37226   7.483   6.989   4.700  0.3060  0.1225  0.1615
20380W        W37227   2.415  12.513   0.534  0.0260  0.0657 -0.0013
20381W        W37228   7.965  13.467  16.619  0.1757 -0.2680 -0.0925
20382W        W37229   6.407   0.093   4.193 -0.3228  0.2287  0.0441
20383W        W37230   6.962   3.786  13.162  0.0287 -0.2603 -0.0917
20384W        W37231   4.356  15.525  13.168 -0.3682  0.0248  0.2022
20385W        W37232  17.345  14.243  14.265 -0.0321  0.0466 -0.0477
20386W        W37233  14.517   5.094  13.118 -0.2776  0.0497  0.2316
20387W        W37234   3.960   5.953  15.844 -0.1001  0.0257  0.3142
20388W        W37235  14.236   1.873   2.257 -0.0477 -0.0330  0.1658
20389W        W37236   2.481  11.185   4.239  0.1426 -0.2645  0.2400
20390W        W37237   8.183   5.365   4.749 -0.0395 -0.1284  0.0776
20391W        W37238   6.717   8.315  14.222 -0.2174  0.0085 -0.4823
20392W        W37239   9.111   2.279   5.226  0.0275 -0.0219 -0.1402
20393W        W37240   1.502  17.809   2.331 -0.3732 -0.0337 -0.0366
20394W        W37241   3.279   7.620  15.828 -0.1825 -0.1166  0.3054
20395W        W37242   6.980   5.921  12.872  0.1662 -0.0634 -0.0310
20396W        W37243   3.577   0.561  15.275  0.0015  0.0181 -0.2159
20397W        W37244  16.681   1.639   2.375  0.3258  0.0174  0.1234
20398W        W37245  16.562  16.948  12.298  0.0887 -0.2588 -0.2702
20399W        W37246  15.450   8.784   3.006 -0.1732 -0.0782 -0.3941
20400W        W37247   7.930  11.486   4.323  0.0504  0.2292  0.1973
20401W        W37248   9.733   9.008  15.409  0.0443  0.0853 -0.0783
20402W        W37249  14.302  11.874  13.706 -0.0158 -0.1322  0.1593
20403W        W37250   1.400   3.753  16.686  0.1171 -0.2147  0.2045
20404W        W37251  11.158   0.215  14.407 -0.1626 -0.3745 -0.0468
20405W        W37252   9.915   5.676   2.676 -0.0443 -0.4339  0.0297
20406W        W37253  17.682  12.907  14.843  0.0090  0.3305  0.0381
20407W        W37254   2.514  16.345   0.714 -0.1284  0.2530 -0.2413
20408W        W37255   3.155   3.072   5.866 -0.1261  0.1738 -0.2518
20409W        W37256   9.428   7.498  11.446 -0.0713 -0.1162 -0.1007
20410W        W37257  12.514  10.738  16.557 -0.1318 -0.0776 -0.2500
20411W        W37258   6.829   2.889  11.628  0.0627 -0.1789  0.2785
20412W        W37259  13.277   6.695   3.729 -0.0225 -0.1043 -0.0547
20413W        W37260  17.327   3.888   0.618 -0.0693 -0.0762  0.0621
20414W        W37261  16.065   8.956   2.471 -0.1945 -0.1223 -0.0391
20415W        W37262   5.819   9.309  13.112 -0.2571  0.0333  0.0393
20416W        W37263  13.434   1.232  14.156 -0.3332  0.0835  0.1131
20417W        W37264  13.196   2.364  11.768 -0.0058  0.2266 -0.1610
20418W        W37265   2.985   9.242  16.224 -0.1887  0.0544  0.3849
20419W        W37266   8.300   6.333   5.052  0.1371 -0.1327  0.0285
20420W        W37267   9.295   8.780   4.826 -0.1585  0.3235 -0.1022
20421W        W37268  16.308   6.768  13.330  0.0980 -0.0180  0.3044
20422W        W37269   1.052   4.038   0.847 -0.2568  0.1382 -0.3738
20423W        W37270   8.558   2.466   3.447  0.2213 -0.0735 -0.4337
20424W        W37271  15.873  15.098  15.993 -0.0318 -0.1321  0.0597
20425W        W37272  16.887   8.428   5.143  0.0023 -0.1688  0.0175
20426W        W37273   6.881   2.717  13.523  0.1231  0.2052  0.2482
20427W        W37274   8.860  15.727  13.677  0.0750 -0.4072 -0.2648
20428W        W37275  16.589  13.428  14.633  0.2232 -0.1805 -0.1585
20429W        W37276  14.486   1.424  15.802  0.0477 -0.1396  0.2577
20430W        W37277  14.924   5.771  14.364  0.1230  0.2193 -0.2777
20431W        W37278  15.196   9.532   1.578 -0.1763 -0.1446 -0.1623
20432W        W37279   8.879  16.548  15.346 -0.1523 -0.2409  0.0247
20433W        W37280  12.666  12.178  11.650 -0.0661 -0.1150  0.0283
20434W        W37281  15.355   2.464  11.458 -0.0456  0.1554  0.0635
20435W        W37282  10.627   1.868  16.181 -0.1719 -0.0638  0.3139
20436W        W37283   6.214  13.882   4.922  0.1258  0.1074 -0.0094
20437W        W37284   5.060   1.400   5.001 -0.1041 -0.2142 -0.3307
20438W        W37285  10.552  10.483   1.274  0.0391  0.0249 -0.1084
20439W        W37286  13.978   4.641  15.928 -0.0856 -0.3673  0.3229
20440W        W37287  15.272   2.438   0.924  0.1067  0.0263  0.1570
20441W        W37288  10.167  14.337  13.213 -0.1870 -0.2498 -0.0225
20442W        W37289   1.457   5.061   2.650  0.1823  0.0295  0.1369
20443W        W37290   8.837  16.286   5.306  0.1246  0.2575  0.0570
20444W        W37291   9.399   0.151   4.479  0.0574 -0.1474 -0.1703
20445W        W37292  10.848   4.781   3.597  0.3985 -0.1915 -0.1956
20446W        W37293   4.505  10.929   3.414 -0.3323  0.0394  0.0441
20447W        W37294  15.609  15.796  12.091 -0.2878 -0.2250 -0.2630
20448W        W37295   8.589  18.060   5.542 -0.0356 -0.1040  0.2889
20449W        W37296   4.812  14.787   1.298 -0.1009  0.2026  0.1128
20450W        W37297  11.150  17.338   1.463  0.1967 -0.1221 -0.2648
20451W        W37298  17.663  12.965   1.622 -0.1971  0.2933  0.0977
20452W        W37299  17.588   0.749   3.705 -0.0457 -0.0512  0.0687
20453W        W37300   9.182   3.179   4.854  0.0829  0.0410  0.2412
20454W        W37301   7.470   7.375   1.826  0.0216  0.0071  0.4489
20455W        W37302   9.515   9.607   0.176 -0.1897 -0.0244  0.2015
20456W        W37303  10.329  14.091   4.991 -0.2340 -0.2104  0.0301
20457W        W37304   1.101   4.581   5.092  0.0230  0.1170 -0.1110
20458W        W37305  13.545   7.196  14.627 -0.0686 -0.0662  0.1420
20459W        W37306  14.981   5.912   5.177 -0.1198  0.1225 -0.2017
20460W        W37307  13.661  17.253   5.300  0.1151 -0.3193  0.1836
20461W        W37308   7.197   7.704   4.056  0.0385  0.2054  0.4394
20462W        W37309  16.235  15.644   2.333 -0.0072 -0.5166 -0.1566
20463W        W37310   0.807  17.283  13.597  0.0456 -0.4401  0.0183
20464W        W37311   8.397   9.540  11.722 -0.1649  0.0029 -0.3805
20465W        W37312  15.090  15.282   5.158  0.1360 -0.2430 -0.0356
20466W        W37313  14.739  10.994  15.466 -0.0445  0.1985  0.2182
20467W        W37314  13.030   3.403  12.410 -0.4518 -0.0190  0.0407
20468W        W37315  11.419   7.106   5.462  0.1737 -0.2522 -0.2138
20469W        W37316   3.627   1.091  14.424  0.0707 -0.1001 -0.3190
20470W        W37317  14.433   2.218   0.332  0.0681  0.1406  0.2235
20471W        W37318  14.411   7.921   3.616  0.0546 -0.0202 -0.3398
20472W        W37319  11.468  15.054  12.553  0.0536  0.0070 -0.2196
20473W        W37320   2.666  17.865   5.780 -0.1082  0.2331  0.0448
20474W        W37321   6.434   7.189  14.241  0.0586 -0.1249  0.2642
20475W        W37322   1.984   7.245   4.820  0.1561 -0.1366 -0.0512
20476W        W37323   7.448   6.176   0.089 -0.1942  0.0443  0.3221
20477W        W37324   7.187  16.188  15.239 -0.0328 -0.1328  0.0902
20478W        W37325   0.938   1.300  16.160 -0.1626  0.2994 -0.1927
20479W        W37326  13.170  14.311  12.137  0.1444 -0.2736 -0.1842
20480W        W37327  11.072  11.816   1.139 -0.0648 -0.0106 -0.0177
20481W        W37328   7.274  17.740   2.328 -0.2375 -0.4740  0.0217
20482W        W37329   1.938   7.384  12.613 -0.0029 -0.4289 -0.0408
20483W        W37330  14.013  15.091   2.004  0.0464 -0.0888 -0.1150
20484W        W37331   1.785   6.525  14.607  0.0580  0.1505  0.1419
20485W        W37332  14.920   6.247  15.138  0.1951  0.0132  0.2549
20486W        W37333  14.090   2.711  13.347  0.4870 -0.1094 -0.0755
20487W        W37334  15.909   3.752  15.625 -0.1056  0.0235  0.3081
20488W        W37335   5.171   9.610  14.160  0.2300 -0.0951  0.4513
20489W        W37336  13.483  15.793   3.563  0.1029 -0.0334  0.1074
20490W        W37337   2.409   7.612  15.656 -0.1657 -0.2588  0.1614
20491W        W37338   6.206  13.352  16.600  0.1646  0.0769 -0.0428
20492W        W37339  15.126   3.302   0.662 -0.0741 -0.1239 -0.1858
20493W        W37340  10.861  12.395   0.268 -0.1490  0.4040  0.2884
20494W        W37341   7.390  10.573   1.016 -0.0676  0.0831  0.3407
20495W        W37342   0.052  15.990   3.411 -0.0464 -0.0469 -0.0964
20496W        W37343   1.324   0.190   5.694  0.2153  0.1151 -0.2627
20497W        W37344  11.974   7.385  16.125 -0.1122  0.1741  0.1095
20498W        W37345   5.133   8.244   5.499 -0.0220  0.2276 -0.0349
20499W        W37346   1.155  12.247  13.058  0.0232  0.0660  0.1126
20500W        W37347  11.235   6.983  15.687  0.0270  0.1790  0.2991
20501W        W37348  17.710   6.447   3.540 -0.3579  0.0791 -0.0967
20502W        W37349   0.265  11.951  15.593 -0.2501  0.0067 -0.2764
20503W        W37350  12.799  13.985  11.830  0.1233  0.2580  0.2744
20504W        W37351   6.483   1.233  14.301 -0.0273  0.3470 -0.0982
20505W        W37352  14.235  13.394  12.703  0.0184  0.2755 -0.5124
20506W        W37353  11.098   0.650  13.161  0.0936  0.1480 -0.2487
20507W        W37354   5.025   4.208  14.826  0.1874 -0.2625 -0.4080
20508W        W37355   1.444  12.757  15.161  0.0190  0.1771  0.0131
20509W        W37356   9.000   1.552  12.195 -0.0786  0.0997  0.1532
20510W        W37357   9.470   8.446   1.275  0.0654 -0.1091 -0.0627
20511W        W37358  15.886   0.649  16.367  0.0090  0.0955 -0.0572
20512W        W37359  13.358  11.318   1.386  0.3607 -0.3150  0.1390
20513W        W37360  11.664   2.372  15.601 -0.0517 -0.1518 -0.0639
20514W        W37361   0.034   9.342   1.400 -0.0510 -0.2172 -0.4678
20515W        W37362  12.704  15.094  11.770 -0.2357  0.0678  0.1073
20516W        W37363   6.464   0.623  14.882 -0.0923  0.1719  0.2217
20517W        W37364   7.812   5.221   0.851 -0.1184  0.2474 -0.3167
20518W        W37365   8.307   0.677  14.483  0.1874  0.1239 -0.1042
20519W        W37366  14.520   2.678  10.833 -0.2295  0.0549  0.1215
20520W        W37367  17.238   7.186   1.118  0.2501 -0.4825  0.0543
20521W        W37368   3.745   3.217  14.423  0.0547  0.0516 -0.2444
20522W        W37369  11.451   2.358   4.379 -0.0146 -0.1224  0.1189
20523W        W37370   8.030  11.396   2.610  0.0802 -0.1014 -0.1563
20524W        W37371   2.793   0.977   2.449  0.2087 -0.2081  0.2445
20525W        W37372   0.642   8.657  12.579 -0.3090  0.0688  0.1691
20526W        W37373   4.766   4.733   3.187 -0.0028 -0.0089 -0.0943
20527W        W37374   6.391   3.795  14.844 -0.1263  0.3442 -0.0708
20528W        W37375   5.864  11.291   4.875  0.1265  0.1847  0.0545
20529W        W37376   8.074   8.636   0.313 -0.1297 -0.1077  0.0546
20530W        W37377  13.232   1.389  11.614 -0.2276  0.0917  0.2296
20531W        W37378   0.528   6.804  14.499 -0.0044 -0.0568 -0.1045
20532W        W37379   7.685  13.597  13.187  0.2893  0.0698 -0.0662
20533W        W37380   9.195   6.660  13.673 -0.0399  0.0659  0.2473
20534W        W37381   8.162  11.896  11.767  0.0403  0.0431  0.2616
20535W        W37382   7.052  18.063   1.831 -0.0390  0.0969  0.1073
20536W        W37383   7.558   0.044  12.689 -0.1258  0.2153  0.2675
20537W        W37384   2.831  16.556  16.233  0.1084  0.2555  0.2056
20538W        W37385  12.226  16.486   1.336  0.1339  0.0517  0.0936
20539W        W37386   9.154   2.048  14.208  0.0059  0.0554  0.2749
20540W        W37387  18.001   3.522   1.665 -0.2428 -0.0138 -0.2650
20541W        W37388   3.883  12.697  15.570 -0.0295  0.1340 -0.0554
20542W        W37389   5.889  10.389  15.587 -0.0032 -0.0976 -0.0035
20543W        W37390   0.573   7.352  16.567 -0.1010 -0.1068  0.4498
20544W        W37391  11.542   3.054  12.697  0.0639 -0.0083 -0.0296
20545W        W37392   2.342  13.316   4.031  0.0990  0.0311 -0.0808
20546W        W37393   5.102   4.197   4.179 -0.0923  0.0811 -0.2793
20547W        W37394  15.398   4.166  14.964  0.2384 -0.1552  0.0660
20548W        W37395   6.661   4.220  14.728 -0.1002  0.1312  0.3619
20549W        W37396  15.124  17.819  15.628  0.1609 -0.4631 -0.0231
20550W        W37397  12.827   2.072  11.900 -0.2176  0.0062  0.0687
20551W        W37398  13.260  11.819   3.055 -0.0909  0.1246  0.2752
20552W        W37399   7.891   8.638   5.507 -0.4845 -0.1312 -0.2227
20553W        W37400   0.476   8.417   3.846  0.1757  0.0621 -0.0984
20554W        W37401  14.671  11.145  13.937 -0.2904 -0.0616 -0.1141
20555W        W37402  17.809   9.130  14.531  0.0118 -0.0627 -0.0298
20556W        W37403  14.569  13.894   3.460 -0.0350  0.0682  0.1548
20557W        W37404   6.448  16.676   5.235 -0.0308 -0.2246 -0.0712
20558W        W37405  10.820  11.424   1.611  0.1560  0.1003 -0.1969
20559W        W37406   7.411   9.999   4.433  0.1446  0.1843 -0.2422
20560W        W37407  14.736   9.408   2.301 -0.0377  0.3034  0.1076
20561W        W37408   0.855  17.985   0.157 -0.0536  0.2432 -0.1935
20562W        W37409   8.832  13.546  13.526  0.1581  0.1372  0.2818
20563W        W37410   2.753   5.623  15.687 -0.1039 -0.2780 -0.0361
20564W        W37411   9.397  12.917   0.764  0.1466  0.0462  0.0732
20565W        W37412   3.343  14.345   5.356 -0.1427 -0.1236  0.2766
20566W        W37413  13.218  13.829  15.406 -0.2241  0.0014 -0.4505
20567W        W37414  14.962   2.920   2.794  0.0317 -0.0946 -0.2425
20568W        W37415  13.925   7.687   4.753  0.0239  0.0889 -0.2668
20569W        W37416   1.131  11.051   0.255 -0.0790  0.0843  0.0441
20570W        W37417   2.894  16.061  12.078 -0.0653  0.2263 -0.2464
20571W        W37418   5.052  13.184   5.584 -0.0721 -0.0038 -0.2492
20572W        W37419  15.989  10.086  13.195 -0.0328  0.0451 -0.2184
20573W        W37420  13.025  11.942   6.107 -0.1225  0.1451 -0.3032
20574W        W37421  10.689   5.528  15.568 -0.0796  0.2547  0.2406
20575W        W37422   8.180   7.330  13.052 -0.2169  0.0271  0.0084
20576W        W37423   4.260  15.773   3.878 -0.0459  0.3310 -0.2112
20577W        W37424  16.221  12.795  13.015  0.1402  0.0710  0.0755
20578W        W37425  16.882   6.484   5.960 -0.0133 -0.2223  0.1786
20579W        W37426   6.100  15.713   2.933  0.0661  0.1435  0.1221
20580W        W37427   3.293  12.262  16.374  0.0023 -0.0010 -0.0578
20581W        W37428   1.202  15.942  13.977  0.1200  0.0026  0.1088
20582W        W37429  11.178  17.104  12.060  0.2167  0.1241  0.0379
20583W        W37430  13.990  16.033   2.606 -0.3375 -0.2651 -0.0033
20584W        W37431  14.436  14.115   2.184  0.2528  0.1612  0.0255
20585W        W37432   7.372  17.349  14.308 -0.0074 -0.1788  0.0120
20586W        W37433   4.710   2.378   2.584 -0.1309  0.0712 -0.0374
20587W        W37434   5.735  11.621   1.948  0.0432 -0.3314  0.0190
20588W        W37435   2.961  14.999   4.378 -0.2283 -0.1315  0.2079
20589W        W37436   3.207  10.717   1.724 -0.3199 -0.0605 -0.2726
20590W        W37437   5.087   7.760  14.051 -0.0959  0.1644 -0.1924
20591W        W37438   6.010  10.403   5.454  0.3505  0.1161 -0.3409
20592W        W37439  15.675  15.320  11.956  0.1364 -0.0334  0.3954
20593W        W37440   1.688   5.275   0.393  0.0855 -0.1147  0.1094
20594W        W37441   2.671   8.556  13.068  0.0580  0.0883 -0.1469
20595W        W37442   2.510   4.042   4.659 -0.0220  0.1649 -0.2600
20596W        W37443  10.765   9.273  13.112 -0.1035  0.0439  0.0034
20597W        W37444   2.482   1.147   5.830 -0.0146 -0.2083 -0.1370
20598W        W37445   8.335   2.316   4.203 -0.2625  0.0668  0.4303
20599W        W37446  14.422  16.789   1.696  0.0675 -0.1021 -0.1364
20600W        W37447  10.310  12.845   0.538 -0.0473  0.0866  0.2197
20601W        W37448  10.368   3.134  14.951 -0.2204  0.0113 -0.2740
20602W        W37449  14.523   6.508  14.864 -0.0778  0.0881 -0.0973
20603W        W37450  13.806   0.987   3.246  0.0097  0.2357 -0.2313
20604W        W37451   5.403   4.208   1.394  0.2544  0.0106 -0.0113
20605W        W37452  10.050   4.605  14.461  0.2268  0.1484  0.1201
20606W        W37453   7.086   0.029   0.997  0.2300 -0.0272 -0.0339
20607W        W37454  10.497   3.784  11.947  0.0509 -0.1120 -0.3065
20608W        W37455   9.306  16.650   3.341  0.0319 -0.0609  0.0240
20609W        W37456   6.355   3.951  14.341 -0.1757  0.1783 -0.1703
20610W        W37457  10.795  16.013   1.437  0.1038 -0.2440  0.0815
20611W        W37458   0.672  10.815  13.358 -0.1352  0.0245 -0.1960
20612W        W37459  14.933   6.014   4.332 -0.1052 -0.0340  0.0668
20613W        W37460   6.886  10.624  14.551 -0.1275 -0.0864 -0.4880
20614W        W37461  12.208   3.477   1.948 -0.1247  0.0098 -0.1055
20615W        W37462   4.225   5.749  14.546  0.1296 -0.0302 -0.1070
20616W        W37463   9.880   7.149  12.535  0.2379  0.0409 -0.0037
20617W        W37464  12.364  13.025  13.404  0.2048  0.0997 -0.1236
20618W        W37465  10.836   2.194  13.168 -0.0897 -0.1080  0.0033
20619W        W37466   5.737   1.979   3.542 -0.0431  0.1657 -0.1618
20620W        W37467   5.189  14.382   1.554 -0.0023 -0.0772  0.2118
20621W        W37468  16.607   4.108  16.217  0.2548  0.1831  0.0955
20622W        W37469  16.989   9.455   5.052 -0.3294  0.0749 -0.2901
20623W        W37470   0.682   0.031  14.256 -0.0030 -0.0634 -0.0348
20624W        W37471  12.136   1.578  13.769  0.1345  0.0409 -0.4027
20625W        W37472  15.724   5.489   4.796  0.1287 -0.0341  0.0226
20626W        W37473  12.376  11.157  15.247  0.1497 -0.0237  0.2663
20627W        W37474  16.298  12.533   1.467 -0.2728  0.0293 -0.0161
20628W        W37475   9.854   3.049  13.014 -0.0947  0.0089 -0.2225
20629W        W37476   3.583  14.447   4.933 -0.0570 -0.2016  0.2337
20630W        W37477   6.167  16.984   3.084 -0.1388  0.0162 -0.0800
20631W        W37478   3.928  11.751   5.374  0.0005 -0.2783 -0.3482
20632W        W37479  11.929   5.259   0.136 -0.1967 -0.3348 -0.0514
20633W        W37480   2.196   3.624   4.416 -0.0193 -0.2217  0.2699
20634W        W37481   7.467   9.039  16.237  0.1514  0.2066 -0.0542
20635W        W37482   1.849  12.949  13.152 -0.0627 -0.1800 -0.1873
20636W        W37483   6.043   5.027   4.740  0.0788 -0.2528  0.0129
20637W        W37484  17.755   3.224   1.316  0.0142  0.2508 -0.4184
20638W        W37485  13.348   8.772   2.034 -0.0949 -0.0785 -0.2897
20639W        W37486   4.871  17.194  13.970  0.1529  0.0383 -0.2840
20640W        W37487  17.976   7.994   0.071 -0.0291 -0.0325  0.0224
20641W        W37488  16.426  11.664   1.921  0.2593 -0.0548 -0.1618
20642W        W37489   5.097  10.410  14.547 -0.0269  0.2402 -0.0989
20643W        W37490  14.465  17.262   1.919 -0.1342  0.0967  0.0719
20644W        W37491  12.778   9.392  13.226 -0.0411  0.1049 -0.3607
20645W        W37492  17.485  11.325   2.325  0.0310  0.1457 -0.0312
20646W        W37493   5.399   6.021   2.198  0.2500 -0.1815  0.2624
20647W        W37494   8.376   0.168  15.474  0.0961  0.2155 -0.0302
20648W        W37495  13.006  16.106   1.299  0.2671 -0.4038 -0.0754
20649W        W37496   3.287  11.144  12.147 -0.2181 -0.1502  0.2532
20650W        W37497   1.262   4.020   4.771 -0.1113 -0.0188  0.2014
20651W        W37498  12.820   9.843  15.242  0.1157  0.1137  0.1737
20652W        W37499  10.688  14.148   0.137 -0.1283  0.2026  0.2420
20653W        W37500   3.509   7.788  16.359  0.1196  0.1015  0.2205
20654W        W37501   7.551  11.130   4.975  0.0791 -0.0043 -0.1419
20655W        W37502  17.830   1.856   2.544 -0.0860 -0.3580 -0.0316
20656W        W37503   6.048   5.500  12.041 -0.0747 -0.1583  0.1582
20657W        W37504  12.392  11.533  13.274  0.1230  0.2454 -0.0488
20658W        W37505   8.106  17.538   3.716 -0.1278  0.1799 -0.2210
20659W        W37506  13.161  12.042  16.213  0.3166  0.1046  0.0002
20660W        W37507   7.120   4.230   3.051  0.0891 -0.1255 -0.0060
20661W        W37508   0.256   6.768   5.341  0.0117  0.2029  0.1016
20662W        W37509  17.031  15.638  12.185  0.3109 -0.0278  0.4169
20663W        W37510  10.731   2.615  12.288  0.3430  0.3347  0.2602
20664W        W37511  17.638  12.911  12.569  0.2526  0.0613 -0.4643
20665W        W37512   5.192   2.356   0.522  0.0172 -0.3138  0.4138
20666W        W37513   4.844  12.345   0.351  0.2950 -0.2868 -0.0912
20667W        W37514   6.909   2.654  16.607 -0.0550 -0.1724 -0.0059
20668W        W37515   8.826  15.023   2.446  0.0054 -0.0885 -0.1959
20669W        W37516   9.097  17.330  16.207  0.0413  0.1658 -0.0898
20670W        W37517   5.766  15.773  12.521 -0.1812 -0.2893  0.3029
20671W        W37518  14.184  10.782  12.710  0.1907 -0.1548  0.0173
20672W        W37519  11.599   9.892   3.836  0.1129 -0.2829  0.1959
20673W        W37520  12.148   7.910  12.664  0.0410  0.4146 -0.0302
20674W        W37521  12.214   8.455  15.214 -0.0038 -0.1910 -0.2382
20675W        W37522  16.717   6.739  15.634  0.2393  0.3181  0.2957
20676W        W37523   6.615   6.734   2.082 -0.0215  0.1462 -0.3023
20677W        W37524   8.661   6.726  16.225 -0.0974  0.4169  0.0059
20678W        W37525   2.639   7.051  15.554  0.0616 -0.0178  0.0161
20679W        W37526   9.193  11.549   3.008 -0.0478  0.2298  0.0126
20680W        W37527  10.371   5.606  13.735  0.0089 -0.4237 -0.0806
20681W        W37528   1.680  15.559  14.676  0.0785  0.0408 -0.1146
20682W        W37529  10.591  11.825   1.422 -0.0662 -0.0432  0.3266
20683W        W37530  10.798   9.091   1.263  0.0786  0.1746  0.1199
20684W        W37531   1.544   2.118  11.774  0.0948  0.0968 -0.1757
20685W        W37532   0.321   3.745   2.030 -0.0373  0.2000  0.1666
20686W        W37533   3.428   8.148  15.876  0.0447 -0.2270  0.1540
20687W        W37534  17.351   5.015  16.345  0.2336  0.2261 -0.0484
20688W        W37535   1.456   8.960  12.045  0.0752 -0.0152  0.1352
20689W        W37536   9.232   7.904  13.562  0.0393  0.2222  0.1157
20690W        W37537   3.614  12.076  15.978 -0.5832 -0.2352 -0.2073
20691W        W37538  13.638  14.769  11.340 -0.2682 -0.0040  0.3803
20692W        W37539  18.046  13.173   4.800 -0.0928 -0.1046 -0.1262
20693W        W37540  10.435  15.707   5.339  0.1031 -0.2620  0.0276
20694W        W37541   2.946  12.900  13.028 -0.1268 -0.2249 -0.1569
20695W        W37542  11.908   1.684   4.801  0.0428 -0.1952 -0.1013
20696W        W37543  15.828  12.408   2.256  0.2548 -0.0928 -0.0056
20697W        W37544   2.279  12.760   5.144  0.2461 -0.0755  0.1609
20698W        W37545  14.089   5.797   1.686  0.0826  0.1204 -0.0656
20699W        W37546  16.353  17.186  14.195  0.0903 -0.1653  0.2834
20700W        W37547   0.275  14.582   6.399 -0.1925  0.0365 -0.4299
20701W        W37548   0.160  11.102  12.275  0.0161  0.0684 -0.1010
20702W        W37549  13.028  13.697  13.307  0.0283 -0.1013  0.0235
20703W        W37550   5.875   7.253   2.900 -0.0885  0.0352  0.0483
20704W        W37551  17.238   4.955   5.699 -0.2564  0.1001 -0.0131
20705W        W37552   9.080  12.190   4.988  0.2634 -0.0233 -0.0258
20706W        W37553   0.640   8.616   2.827 -0.0339 -0.3515  0.2133
20707W        W37554   8.765   6.102   5.213 -0.2036 -0.4143 -0.0959
20708W        W37555   0.310   8.429   0.628 -0.1035  0.1001 -0.0974
20709W        W37556  15.455  13.263  11.485  0.0026  0.3876 -0.2183
20710W        W37557  16.389  14.029  13.816  0.1187  0.0891  0.0070
20711W        W37558  10.785  10.314   4.268  0.2413  0.1566 -0.1160
20712W        W37559   2.924  11.779   1.887  0.1736  0.0310 -0.0279
20713W        W37560   8.610  17.813  13.913 -0.2538  0.0479  0.3316
20714W        W37561  15.583  17.789   1.939  0.0402  0.0629 -0.1233
20715W        W37562   2.019  14.968   4.208 -0.0549 -0.0807 -0.2125
20716W        W37563   0.965   5.508  16.603  0.1769 -0.2425  0.0648
20717W        W37564   6.746   5.280   1.664 -0.0073  0.0754 -0.0121
20718W        W37565   7.425   9.139  11.257  0.1109  0.2564  0.0604
20719W        W37566  17.504  17.945  12.817  0.1219 -0.0401 -0.3397
20720W        W37567  16.259  10.716   0.703  0.2753  0.3132 -0.0717
20721W        W37568  17.455  16.053  12.259  0.0168  0.2903  0.0493
20722W        W37569   7.556  13.494   3.543  0.0336 -0.2758 -0.0913
20723W        W37570   9.020  17.788   3.764 -0.2590 -0.0852  0.1116
20724W        W37571  16.518   3.574  10.369 -0.1248  0.1579 -0.1032
20725W        W37572   4.744  15.634  14.200  0.3498  0.1930  0.2097
20726W        W37573   5.849  16.462   5.878 -0.1467  0.0826 -0.0848
20727W        W37574   8.249   5.499  11.971  0.0131  0.1148 -0.3410
20728W        W37575   6.363   0.601   4.097  0.1124 -0.0763 -0.1635
20729W        W37576  13.820   0.973  12.183 -0.2076 -0.0534  0.0579
20730W        W37577   4.068   4.654   0.274  0.4452  0.0815 -0.0944
20731W        W37578   4.003  11.942  12.522  0.0814 -0.2077 -0.1735
20732W        W37579  15.969   2.935  12.476  0.2792 -0.1434  0.0483
20733W        W37580  15.723  11.264   4.784  0.0150 -0.1031  0.1848
20734W        W37581   4.572  16.222   3.497 -0.0824  0.2005 -0.1857
20735W        W37582  13.733  10.811  15.364 -0.0556  0.0658 -0.0662
20736W        W37583  12.358   3.990  15.297  0.1749 -0.3397 -0.1382
20737W        W37584   2.204   2.659   2.328  0.3578 -0.3608 -0.0071
20738W        W37585  15.039   7.234   0.148  0.1795  0.1742 -0.1765
20739W        W37586   2.340   8.858   4.658  0.0198 -0.0705  0.2922
20740W        W37587  12.787   1.294  16.303 -0.4031 -0.2244 -0.0384
20741W        W37588   5.267  15.960   3.444  0.0081  0.0290 -0.1750
20742W        W37589   8.490  16.835  15.492  0.0181 -0.2164  0.0432
20743W        W37590   3.626  15.553   1.590  0.3876  0.3494 -0.0894
20744W        W37591  12.926   9.513   0.165 -0.0986  0.1350  0.0786
20745W        W37592   2.905   7.172  16.560 -0.2338  0.2015  0.1892
20746W        W37593   3.381   1.816  14.298  0.2908  0.0052 -0.0072
20747W        W37594  15.967   5.748  16.026 -0.0910 -0.1444 -0.3412
20748W        W37595   7.487  13.105   5.745  0.3714  0.3173 -0.1568
20749W        W37596  17.569   8.044   0.874 -0.1059  0.1241 -0.3109
20750W        W37597  10.651   0.056  15.152 -0.0116 -0.2107  0.0889
20751W        W37598  16.921   3.378   2.225 -0.0578  0.0433 -0.0438
20752W        W37599  18.042   7.317   0.622 -0.1037 -0.1060 -0.1905
20753W        W37600  15.269  10.643  11.783  0.4962  0.2568 -0.0902
20754W        W37601  13.647  12.388   1.137  0.0151 -0.2063  0.0986
20755W        W37602   2.888  14.426   3.462 -0.0585  0.0388 -0.0724
20756W        W37603  13.802   5.420  12.684  0.1010 -0.0738 -0.0139
20757W        W37604  10.954  14.966   5.798 -0.1724 -0.1504  0.0938
20758W        W37605  13.165   1.703  13.696 -0.0290 -0.1001  0.2807
20759W        W37606  17.082   5.672   4.972  0.1499  0.0058 -0.3818
20760W        W37607   3.205   2.633   5.155  0.0413  0.0317 -0.3137
20761W        W37608   7.528  14.203   2.687 -0.0254 -0.2972 -0.0073
20762W        W37609  13.687  11.509  13.547 -0.0219  0.0217 -0.1147
20763W        W37610   9.117   8.166   2.189 -0.2753  0.3042  0.4052
20764W        W37611  16.711   6.160  11.598  0.3225  0.1385  0.0424
20765W        W37612   2.502   0.083   4.234 -0.0739  0.1416  0.1675
20766W        W37613  12.479   9.673  14.854  0.4464 -0.0765 -0.2090
20767W        W37614  15.860  10.139   1.230  0.1592 -0.0260  0.0509
20768W        W37615  17.958   2.739  16.685  0.1527 -0.1389  0.1971
20769W        W37616   6.517   4.152  13.375  0.0112  0.1125 -0.0072
20770W        W37617   5.839  14.293  16.547  0.3274  0.1079 -0.4001
20771W        W37618   3.256  14.296   4.590  0.1821  0.2830 -0.0885
20772W        W37619  14.074  12.200   0.987  0.1110  0.0536 -0.0295
20773W        W37620  11.266   7.062  11.576  0.3085 -0.2330 -0.0163
20774W        W37621   7.882  10.604  16.524 -0.0909  0.0285 -0.0935
20775W        W37622   2.574   0.890   1.989 -0.0835 -0.0247  0.0522
20776W        W37623   1.014  14.675  13.698 -0.2446 -0.3097 -0.0361
20777W        W37624  15.331   5.000  16.100 -0.2444 -0.2141 -0.0260
20778W        W37625   6.711   8.417  15.310 -0.1459  0.1621 -0.0788
20779W        W37626   9.811   0.836  13.025  0.3798  0.1255  0.1940
20780W        W37627   1.481   0.151   5.136 -0.0589 -0.1364 -0.0810
20781W        W37628   4.145  15.052  14.082 -0.0463 -0.1740  0.2211
20782W        W37629   8.183  14.336  16.622 -0.1722  0.0536 -0.3791
20783W        W37630  12.177   4.490  12.311  0.3412 -0.2669 -0.0758
20784W        W37631   9.874   7.252   6.214 -0.1105 -0.2754 -0.1193
20785W        W37632   9.249  12.026   0.843 -0.3116  0.0121 -0.1325
20786W        W37633   9.757  16.579  12.367  0.0222  0.1284 -0.1357
20787W        W37634  14.836   0.199  16.419 -0.1981  0.3700  0.1201
20788W        W37635  16.266   3.748   0.762 -0.0484 -0.0034 -0.1835
20789W        W37636  13.444   9.489   1.301 -0.2087  0.1688 -0.1103
20790W        W37637  13.256  15.973   0.195  0.1237 -0.0093  0.0064
20791W        W37638  12.081  17.204   3.856  0.1572 -0.1946  0.2080
20792W        W37639   7.158   4.291  14.620 -0.0984 -0.0684 -0.0457
20793W        W37640   1.811  14.457   5.533  0.1052 -0.0364 -0.0495
20794W        W37641  14.568   8.367  14.579  0.1881 -0.1055  0.1797
20795W        W37642  13.205  15.395  15.087 -0.0787  0.2131 -0.0464
20796W        W37643  16.478  17.533  16.458 -0.2307 -0.2610 -0.1158
20797W        W37644   1.829  17.876   3.009 -0.0944  0.1345 -0.0950
20798W        W37645   3.379  10.899  15.874  0.0389 -0.0154  0.2557
20799W        W37646  15.450   8.107  12.925 -0.2672  0.1102 -0.0403
20800W        W37647   3.868   5.075  15.864  0.0286 -0.1935  0.1057
20801W        W37648   1.048   8.087  15.509 -0.1388 -0.3093 -0.0944
20802W        W37649  17.102   9.705   1.059 -0.0004 -0.0232  0.1754
20803W        W37650   3.586  16.754   3.000 -0.1452 -0.1927  0.1342
20804W        W37651   5.724   0.261   1.048 -0.0482  0.1281 -0.0939
20805W        W37652  14.204  10.593   0.837 -0.0020 -0.0098 -0.1190
20806W        W37653  14.245   3.085   1.508  0.0366  0.2542  0.3518
20807W        W37654  11.720   3.879   2.904 -0.0701 -0.1482  0.0741
20808W        W37655   4.326  11.989  12.189  0.2362  0.0189 -0.2820
20809W        W37656   5.007   0.626  14.271  0.1731  0.0335 -0.0675
20810W        W37657  11.941   0.846   1.301 -0.1460  0.1981 -0.0029
20811W        W37658  12.576  16.541   2.350  0.1582  0.0774  0.1965
20812W        W37659  14.772   6.606  12.945 -0.1701 -0.2392 -0.1509
20813W        W37660  10.058   5.470  15.176 -0.1469 -0.1489  0.0543
20814W        W37661  11.945  11.730   4.653  0.4417  0.2659  0.0707
20815W        W37662   2.709   1.791  15.741 -0.0995  0.0097 -0.0603
20816W        W37663  10.846   3.749   3.172  0.0443 -0.1593  0.3590
20817W        W37664   7.621   9.175   1.437 -0.2186 -0.1620  0.0873
20818W        W37665   7.305   6.382  15.637 -0.1009 -0.0981  0.1684
20819W        W37666   4.178   6.969   5.542  0.1726  0.1341  0.1048
20820W        W37667   9.821   6.128  13.479 -0.0787 -0.4124 -0.0590
20821W        W37668   9.715  15.056  13.045  0.2123  0.1346  0.0523
20822W        W37669  17.635   8.746  12.024  0.3659  0.0747 -0.0678
20823W        W37670  13.788   7.342  12.335  0.0116  0.0164 -0.1397
20824W        W37671   1.668   6.405   5.787  0.1439  0.3366 -0.1868
20825W        W37672  11.232  12.259  12.861  0.0780 -0.0618  0.1597
20826W        W37673  13.451   6.574  14.716 -0.0306 -0.0870 -0.3551
20827W        W37674  17.636  16.535   2.854  0.1342  0.2276 -0.0821
20828W        W37675   0.871  15.864   6.289 -0.3612  0.0083 -0.1794
20829W        W37676  15.437   0.925   5.366 -0.0982  0.2333 -0.0125
20830W        W37677   8.101  17.172   4.529 -0.3572  0.0424  0.1818
20831W        W37678  16.382   1.603   0.818  0.0966  0.0756  0.0095
20832W        W37679   1.503   4.783  13.280 -0.1487  0.3445  0.1809
20833W        W37680   4.519   5.875   2.811  0.1174  0.0499 -0.0293
20834W        W37681  11.043   3.590   3.620 -0.0510 -0.3268 -0.0121
20835W        W37682  12.536   1.975  12.302  0.2926 -0.0352  0.2422
20836W        W37683  15.660   3.868   0.019  0.1322  0.1951 -0.0061
20837W        W37684   7.292   5.603  11.811  0.1706 -0.5523  0.1643
20838W        W37685  13.647  14.093  15.616  0.0760 -0.2078  0.2120
20839W        W37686  11.206  17.016   1.009  0.0060  0.0414 -0.0577
20840W        W37687  14.984  14.798   3.293 -0.1947 -0.0618  0.3592
20841W        W37688  12.151  18.051  13.017 -0.1800  0.2479 -0.0935
20842W        W37689  10.474   6.241  16.589 -0.1543  0.4286  0.1206
20843W        W37690   5.479   7.843   2.955  0.0404 -0.2861  0.0875
20844W        W37691  14.901   8.043   3.552  0.0413 -0.1930 -0.0779
20845W        W37692  12.276   6.589   5.341 -0.0375 -0.1976 -0.4579
20846W        W37693  12.836   3.502  13.329  0.0050  0.2979  0.0214
20847W        W37694  17.163   8.889   1.272 -0.0949  0.2457  0.1513
20848W        W37695  11.938   7.013   2.203  0.0204  0.2793 -0.0658
20849W        W37696   8.867   3.621   4.676  0.0184 -0.3000  0.0659
20850W        W37697   4.733   9.779  15.761  0.2801 -0.0052  0.0655
20851W        W37698   3.676   9.270  14.347 -0.1083 -0.1946  0.1448
20852W        W37699  17.767  13.615  13.102  0.1929 -0.0466 -0.3830
20853W        W37700   4.224  16.150  15.086 -0.1515  0.2270  0.0917
20854W        W37701  14.637   6.128   0.069  0.0643  0.3500 -0.0521
20855W        W37702   3.180   0.648   2.676  0.0407 -0.2266 -0.2783
20856W        W37703  10.332  10.809  12.431  0.1435  0.0096 -0.0790
20857W        W37704   8.359  15.458  15.664 -0.0298  0.0603 -0.1598
20858W        W37705   7.733  12.975   2.669  0.1767 -0.2791 -0.0282
20859W        W37706  10.560   6.020   0.843 -0.0468 -0.1349  0.1800
20860W        W37707  15.124  11.470  13.417 -0.1609 -0.1479 -0.1459
20861W        W37708  10.001   9.962   2.497 -0.0829  0.0730  0.1246
20862W        W37709   7.122   1.326   3.580  0.1612  0.0465  0.1912
20863W        W37710   4.159  16.157   2.085 -0.1051  0.3298  0.1571
20864W        W37711   1.379  10.502  11.590  0.0249 -0.0308  0.0196
20865W        W37712   8.768   8.823   4.963 -0.2705 -0.1428 -0.1169
20866W        W37713  13.112  13.570   4.443  0.0956 -0.3929 -0.0606
20867W        W37714   9.488   0.210  15.186 -0.0913  0.0436 -0.0069
20868W        W37715   5.844  12.603   3.994 -0.0489  0.1461 -0.1118
20869W        W37716   5.706  15.670   1.034  0.1581 -0.0182 -0.2158
20870W        W37717   8.651   2.917   0.896 -0.2275 -0.0179  0.3869
20871W        W37718  13.101  12.453  11.694  0.0985 -0.0901 -0.1477
20872W        W37719   4.568  16.450   1.830  0.1593 -0.1124 -0.0918
20873W        W37720  11.964   5.937   1.035  0.1944  0.0528 -0.1937
20874W        W37721   3.151   0.435   1.427  0.0330 -0.1764 -0.0455
20875W        W37722   7.698   8.557  13.897 -0.2224  0.3229 -0.0299
20876W        W37723  12.533   4.258  14.887  0.0599 -0.0950  0.1880
20877W        W37724   0.605  11.169  12.917 -0.0841 -0.1317 -0.0511
20878W        W37725   2.573  11.491   5.714  0.2799 -0.0630  0.0452
20879W        W37726   7.413  12.070   1.724 -0.0306 -0.1430  0.1634
20880W        W37727  16.803   1.185   2.486 -0.1388 -0.0085  0.1606
20881W        W37728   8.864  11.668  12.116 -0.0302 -0.0994  0.0895
20882W        W37729  17.137   1.315   2.902  0.0730  0.0163 -0.4273
20883W        W37730   2.292   0.214   2.491 -0.0922  0.2176  0.0200
20884W        W37731   5.409   3.372  13.287  0.1852 -0.0861 -0.1172
20885W        W37732   9.310   4.983   2.932 -0.1750 -0.2072  0.1262
20886W        W37733   2.854   0.512  12.213 -0.0164  0.1142  0.0039
20887W        W37734  15.717   5.318  16.062 -0.0670 -0.0082  0.2982
20888W        W37735   4.625  17.284  13.555 -0.2052  0.1153  0.2375
20889W        W37736  16.232  14.445   5.163  0.2053 -0.0713  0.3507
20890W        W37737  16.583   2.505   3.709 -0.1511 -0.2825 -0.0170
20891W        W37738   9.073   1.488  14.967 -0.0433 -0.1047 -0.1496
20892W        W37739   0.684   5.276  13.048  0.0342 -0.1468 -0.1221
20893W        W37740   8.939  17.793  13.417  0.0503 -0.1156 -0.0057
20894W        W37741  10.974  17.475  13.596  0.1073 -0.0425 -0.1113
20895W        W37742  10.707   2.838  16.215  0.0052  0.0963  0.1942
20896W        W37743   0.230   2.876   3.350 -0.2425  0.0937 -0.0298
20897W        W37744  13.921   3.870   3.273  0.0286  0.2669  0.0242
20898W        W37745  17.960   5.521   3.965 -0.2398 -0.0318  0.0545
20899W        W37746   0.753  10.762   2.762  0.2248 -0.0138  0.1371
20900W        W37747   8.659   8.059  15.828 -0.0382 -0.1156 -0.0616
20901W        W37748   8.513  12.075  13.330  0.1381  0.1826  0.0567
20902W        W37749   3.169  15.715  15.248  0.1035 -0.0387 -0.1132
20903W        W37750  15.091  15.301  16.563  0.0706  0.2120 -0.2331
20904W        W37751   6.520  18.041  13.042  0.1745 -0.0547 -0.0364
20905W        W37752   3.230   3.392   1.728  0.1396  0.0365 -0.0001
20906W        W37753   6.428   6.373  12.441 -0.3594 -0.1053  0.0105
20907W        W37754  16.784   1.023  15.778 -0.2676  0.1025  0.0619
20908W        W37755   1.136  10.408   4.077  0.0314  0.0736  0.1183
20909W        W37756  11.049   7.996  12.334 -0.0637  0.2727 -0.2587
20910W        W37757   8.718  10.483  13.402 -0.3504  0.0758  0.1475
20911W        W37758   5.502  18.057   0.328 -0.0159  0.1166  0.0711
20912W        W37759  14.439   9.375  15.600  0.0108  0.1743 -0.1908
20913W        W37760  16.957  12.266   5.423  0.2811 -0.3132 -0.0898
20914W        W37761  13.746  11.815   4.844 -0.1110  0.1943  0.1454
20915W        W37762  14.452   4.416   4.873  0.0170  0.0184  0.0219
20916W        W37763  15.305  13.211  15.200 -0.0915 -0.0210 -0.0053
20917W        W37764   5.318   0.255   2.886  0.2172  0.1276 -0.0042
20918W        W37765   3.112   9.997   1.791  0.0240 -0.4664  0.1647
20919W        W37766  17.984   7.416  12.109  0.1902 -0.2822 -0.1486
20920W        W37767   2.372  11.872  15.603 -0.0618 -0.0857  0.4407
20921W        W37768   9.992  12.973  13.947 -0.0754  0.0806  0.2253
20922W        W37769   2.943   8.682  15.396 -0.0034  0.1024 -0.1168
20923W        W37770  13.951   6.159  11.650  0.0431 -0.1809  0.1413
20924W        W37771   5.758   7.156   5.147  0.2258 -0.0741  0.0886
20925W        W37772   3.289  13.934   1.101 -0.2087  0.1684  0.1449
20926W        W37773   9.430   6.480  14.773  0.0455 -0.1501 -0.1147
20927W        W37774  16.174  11.852   0.167 -0.0527  0.1918  0.2666
20928W        W37775  15.591   8.395   3.240 -0.1391  0.1650 -0.1171
20929W        W37776   7.693  11.942   4.376 -0.2965 -0.2148  0.1754
20930W        W37777   4.259   7.097   3.537  0.1319  0.1278  0.0419
20931W        W37778   3.531   2.525   1.824 -0.1358 -0.0026 -0.2353
20932W        W37779  14.626   9.333  14.789 -0.1134  0.0857 -0.1603
20933W        W37780   9.195   4.798   4.339  0.0140 -0.0739 -0.2844
20934W        W37781   5.514  10.426  16.491  0.0932 -0.0206 -0.1427
20935W        W37782  12.173   2.112   1.677  0.1973 -0.2262 -0.3037
20936W        W37783  16.086   0.114   0.544  0.0708  0.0980  0.0398
20937W        W37784  13.180  15.314   4.819 -0.4202  0.2190 -0.0675
20938W        W37785  13.079  12.073  12.920 -0.1146 -0.1905  0.3279
20939W        W37786  14.302  13.442   1.838 -0.2200 -0.1716  0.0317
20940W        W37787   2.017   2.516   2.838  0.1265  0.0736 -0.0716
20941W        W37788   5.169   8.324  12.857 -0.1595 -0.1189  0.0105
20942W        W37789   9.272   7.708   4.370 -0.0921  0.0787  0.0166
20943W        W37790   2.944  13.833  11.906  0.1071 -0.1182 -0.0841
20944W        W37791  17.288   6.735   0.497  0.3205  0.1976 -0.0096
20945W        W37792  13.723  10.579   2.862  0.2387  0.0989  0.1391
20946W        W37793   2.405   2.001   4.569  0.1303  0.1836 -0.1478
20947W        W37794  15.112  13.610  15.627  0.1572 -0.1238 -0.2148
20948W        W37795  17.750   9.280   1.847 -0.4499 -0.0982  0.2622
20949W        W37796  13.670  17.611   4.889 -0.0255  0.3300  0.2972
20950W        W37797  12.796   5.915  13.878 -0.2743  0.3594  0.0570
20951W        W37798  14.570  11.914   0.673 -0.1165 -0.0825  0.1846
20952W        W37799  13.679   9.629  15.372 -0.1693  0.4425  0.2323
20953W        W37800   4.780   7.267  15.267 -0.1260 -0.1151 -0.0470
20954W        W37801   1.721   0.942  14.005  0.1791  0.0824 -0.3102
20955W        W37802   4.740  13.298   0.119 -0.0789  0.3595  0.0065
20956W        W37803   0.170   9.472  11.878 -0.0848  0.1186  0.2116
20957W        W37804   5.833   3.301  14.169 -0.0562  0.0670 -0.0940
20958W        W37805   2.414   9.895   5.078 -0.0523 -0.1189 -0.0627
20959W        W37806   9.211   0.234   0.468 -0.0453  0.0991  0.1442
20960W        W37807  14.944  13.878  13.575  0.0974 -0.1657 -0.1271
20961W        W37808   8.690   9.741  15.266  0.2986  0.1563 -0.0225
20962W        W37809  15.517  16.166   0.533  0.1326 -0.0871  0.0261
20963W        W37810  13.864   7.565  14.402 -0.1860 -0.2615 -0.3583
20964W        W37811  14.489   4.256  12.014 -0.2379 -0.1967  0.1639
20965W        W37812   9.907  16.982  15.081 -0.2180 -0.0796  0.2437
20966W        W37813   2.089  17.406  14.881  0.0476 -0.2703  0.1689
20967W        W37814  15.945  13.704  16.009 -0.1202 -0.1182  0.2087
20968W        W37815   4.808   9.171  13.369  0.0818  0.1316  0.0935
20969W        W37816   7.181   5.557   3.425 -0.0201 -0.2235 -0.1702
20970W        W37817  11.693  12.311  11.608  0.2759  0.1284 -0.2800
20971W        W37818  13.128   5.785   2.072  0.2852  0.0129 -0.1422
20972W        W37819   6.961  13.931   1.834 -0.0353  0.0986  0.2522
20973W        W37820  11.063   7.045   1.864  0.2555 -0.1132  0.0710
20974W        W37821  18.027  13.160   5.285 -0.0069  0.0759 -0.1342
20975W        W37822  16.411  12.204   3.432  0.1257 -0.1923 -0.1169
20976W        W37823   5.732   7.015  14.348 -0.0499  0.4715 -0.1890
20977W        W37824  11.252   4.437   3.527 -0.0929 -0.2329  0.1191
20978W        W37825   5.060   1.440  15.144 -0.1355 -0.0724  0.1253
20979W        W37826  14.298   1.791  15.411 -0.5011 -0.2177  0.1307
20980W        W37827   6.302  10.648   4.001  0.2318  0.0882  0.0598
20981W        W37828   8.884   0.492   4.149 -0.0230 -0.0343  0.2251
20982W        W37829   0.411   9.809  12.217 -0.0058  0.2111 -0.2125
20983W        W37830  10.402   8.710   1.795 -0.2441  0.1664  0.1970
20984W        W37831  16.429   5.839   0.312 -0.0653  0.3274  0.3974
20985W        W37832   8.211  14.511   2.277 -0.0804 -0.0420  0.3278
20986W        W37833   3.991  11.956  14.379 -0.1546  0.0184 -0.0262
20987W        W37834  14.743  15.840  14.221  0.1604 -0.3828 -0.1337
20988W        W37835  11.955  14.621   5.059  0.5026 -0.1263 -0.0027
20989W        W37836   9.615  11.304   6.012 -0.2514 -0.0581  0.0816
20990W        W37837   8.898   5.624   5.203 -0.1816  0.1217  0.1533
20991W        W37838   0.207  17.618   1.971 -0.2480  0.1434 -0.2068
20992W        W37839   8.050   6.064   4.618 -0.0573  0.1465  0.1790
20993W        W37840  14.465  15.872   3.746  0.1830 -0.0775 -0.0855
20994W        W37841  16.381  17.333  12.699  0.0710 -0.1335 -0.0419
20995W        W37842   9.899   9.279   1.303 -0.1306 -0.0902  0.4704
20996W        W37843   0.650   5.670   1.392  0.0854 -0.2370 -0.0126
20997W        W37844  12.273  15.521  10.129 -0.0207 -0.1244 -0.2208
20998W        W37845   4.606   7.334   4.959 -0.0849 -0.0222  0.1307
20999W        W37846   4.871  13.731   6.193  0.0458 -0.0714  0.2178
21000W        W37847  13.905   3.188   3.430  0.1066 -0.1086 -0.0748
21001W        W37848   1.876   4.049   1.783  0.0438 -0.2075  0.2659
21002W        W37849   3.328   8.294   5.835  0.3069  0.2636 -0.2230
21003W        W37850   9.810  10.420  11.640  0.0060 -0.1489 -0.0543
21004W        W37851  16.712   2.267  11.818 -0.0449 -0.1963  0.1899
21005W        W37852   5.562   5.844  15.999 -0.1143  0.1378 -0.0483
21006W        W37853  14.475  15.110  12.451  0.3359 -0.0596 -0.3539
21007W        W37854  10.093  12.715  11.664 -0.1195  0.0699  0.1843
21008W        W37855  13.450   3.967   4.396 -0.0790 -0.1138  0.1103
21009W        W37856   0.157  16.129  12.559 -0.1578 -0.0449 -0.1501
21010W        W37857  10.320   4.012  16.273  0.1814  0.0109  0.4301
21011W        W37858  14.296  16.125   5.463  0.1346 -0.2917 -0.0655
21012W        W37859   7.838   0.900   1.484 -0.0130 -0.1013 -0.1214
21013W        W37860  14.244  15.940  12.032 -0.2649  0.0746  0.1715
21014W        W37861   8.319  10.081  12.523 -0.2185 -0.0578 -0.0290
21015W        W37862   8.898   9.600   0.644  0.1375  0.1999  0.1580
21016W        W37863   2.638  13.843   6.000 -0.2471 -0.0401 -0.2604
21017W        W37864  10.914   5.211   3.824 -0.0479 -0.0731 -0.3161
21018W        W37865  12.937   4.920  15.144  0.0006 -0.3063  0.2123
21019W        W37866  14.265  15.433  16.153 -0.1110  0.1517 -0.4456
21020W        W37867   7.671  10.085   2.794 -0.2322 -0.2576  0.0891
21021W        W37868   2.481  15.013   5.532 -0.0477 -0.2460 -0.1131
21022W        W37869  16.651  13.090   3.828  0.0102  0.0851  0.0757
21023W        W37870  17.847   5.333  15.198 -0.2288 -0.0023 -0.1395
21024W        W37871   7.115  11.753  13.967 -0.0426  0.1747  0.1515
21025W        W37872  12.893   9.891  11.960 -0.1326 -0.1408 -0.1887
21026W        W37873   0.478  15.245   1.720  0.2230 -0.0026 -0.0860
21027W        W37874  12.236  14.004  11.407 -0.2610  0.2281  0.2395
21028W        W37875   3.424   6.705  15.827 -0.0929  0.0356  0.1425
21029W        W37876   4.028   8.197  14.007 -0.1416  0.3343  0.1444
21030W        W37877  10.910   5.082  14.793 -0.0044  0.1876  0.0626
21031W        W37878   7.482  14.934   6.008 -0.1881 -0.0670  0.2679
21032W        W37879   8.118  10.794   4.404  0.0647 -0.1360 -0.0247
21033W        W37880  13.347  13.168   3.563  0.1684  0.3341  0.2965
21034W        W37881  14.190  13.612  14.841 -0.0408 -0.0347  0.0046
21035W        W37882  11.015   1.727  16.584  0.2656  0.2880 -0.0083
21036W        W37883  13.944  16.444   3.049  0.2002 -0.4013 -0.5073
21037W        W37884  16.930  13.377  15.183 -0.2212 -0.1042  0.0006
21038W        W37885   7.852   3.968  12.421  0.2460 -0.0463 -0.2261
21039W        W37886  17.761   2.315  15.132  0.0884  0.0117 -0.0495
21040W        W37887   4.698  16.077   2.096  0.2207  0.0227 -0.1791
21041W        W37888  10.553  16.486   1.428 -0.1373  0.0474  0.0620
21042W        W37889  14.846   5.687  11.777 -0.0348  0.0043  0.3451
21043W        W37890  11.372   5.636  12.874  0.1416  0.0616  0.0256
21044W        W37891  16.749  14.114   4.204  0.3921 -0.1015 -0.1680
21045W        W37892   6.907   3.844  14.440  0.0031 -0.0488  0.1750
21046W        W37893  14.094   7.821  12.609 -0.1257 -0.2432  0.3174
21047W        W37894  16.773  10.171   1.020 -0.0390  0.2049 -0.2057
21048W        W37895   9.870   1.852  16.022 -0.0583  0.0698  0.2356
21049W        W37896  16.764   9.360  16.510  0.3646  0.0496  0.1511
21050W        W37897   2.302  10.471  12.815  0.1893  0.0532  0.0584
21051W        W37898   2.953  10.197   0.548 -0.0686 -0.0557 -0.0820
21052W        W37899   7.936   9.469  14.544 -0.1924  0.0710  0.0028
21053W        W37900   7.748  14.311  13.292 -0.4088 -0.0356  0.0172
21054W        W37901  14.375   7.280   1.734  0.0869 -0.0636 -0.1062
21055W        W37902   6.480  12.839  13.086  0.2071  0.2222 -0.3546
21056W        W37903  15.349  15.276  15.681  0.0630  0.1173  0.1580
21057W        W37904  14.538  14.496   1.535  0.0435  0.3510  0.0590
21058W        W37905  17.712   1.302   4.289 -0.0278  0.0744  0.1141
21059W        W37906   5.729   3.039  11.666  0.1101 -0.0897 -0.1101
21060W        W37907   8.472   5.446   3.936 -0.0646  0.4589 -0.0959
21061W        W37908  14.837  11.791   1.065 -0.3797  0.1665  0.0878
21062W        W37909   6.118   1.116   5.081  0.1497 -0.1958 -0.1348
21063W        W37910   2.287  14.842  13.867 -0.0838 -0.3496 -0.1770
21064W        W37911   8.674  14.621  14.037 -0.0014  0.0643  0.0786
21065W        W37912  17.773   2.809   5.066  0.2656 -0.0599  0.1928
21066W        W37913  15.307   4.355  13.542 -0.3986 -0.2338  0.4546
21067W        W37914   9.892   6.086   5.586 -0.0626 -0.0247  0.0391
21068W        W37915   9.791   6.796  14.993  0.1192 -0.0446  0.2164
21069W        W37916   2.723   7.953   0.293 -0.1771 -0.2633 -0.3495
21070W        W37917  15.452  14.830  14.500 -0.1483  0.0521 -0.3340
21071W        W37918   1.900   1.268  12.891  0.2924 -0.1034  0.2162
21072W        W37919  14.911  17.035   2.023 -0.1792  0.0205 -0.0337
21073W        W37920  15.757  17.560  12.581 -0.0365 -0.1995  0.1341
21074W        W37921   8.348   4.665   4.006 -0.1172 -0.0798  0.1682
21075W        W37922  11.917  17.407   5.053 -0.1801  0.1376 -0.1053
21076W        W37923   6.754  15.620   3.824 -0.0977  0.1094  0.0830
21077W        W37924   9.760  13.517   0.834 -0.0255  0.0278 -0.1056
21078W        W37925   1.847   4.350  14.055  0.0844 -0.2220 -0.1344
21079W        W37926   7.425  17.287   2.409  0.1151  0.2661 -0.1164
21080W        W37927  16.436   9.452  11.682  0.2320 -0.3110 -0.1305
21081W        W37928  13.314  17.281  13.553 -0.0330 -0.1848 -0.1846
21082W        W37929   2.508  15.889   3.191 -0.0974  0.1887 -0.0788
21083W        W37930  15.283   2.508  13.175  0.1325  0.0581  0.0376
21084W        W37931  11.611  10.643  15.047  0.0155 -0.2633 -0.0614
21085W        W37932  17.070   2.400   2.322 -0.1075  0.2483 -0.4101
21086W        W37933   7.367   3.641   5.045  0.0821  0.1217 -0.0544
21087W        W37934   8.489   6.072   3.089 -0.2038 -0.1062  0.0183
21088W        W37935  17.162  17.238   5.297 -0.2494  0.0335  0.2620
21089W        W37936  18.029  15.830   3.882  0.1192 -0.0320 -0.3927
21090W        W37937   8.325   6.177  14.148  0.0493 -0.1787  0.0183
21091W        W37938  11.031  13.489  12.849  0.1371 -0.1669 -0.0750
21092W        W37939  11.670  17.170   0.977 -0.1950 -0.2716 -0.2483
21093W        W37940  16.620  14.936   3.004 -0.0710 -0.0235  0.3145
21094W        W37941   6.064  10.997   4.331  0.0928  0.0963  0.0496
21095W        W37942  10.654   2.303  13.705 -0.0852 -0.1414  0.2196
21096W        W37943  12.905  17.954   2.016  0.0273  0.1085 -0.4918
21097W        W37944   8.675   1.220  11.695 -0.1981  0.3393  0.2206
21098W        W37945   6.726   2.013  11.961  0.1008  0.0827  0.2641
21099W        W37946   5.388  14.282   4.541 -0.0558  0.2713 -0.0496
21100W        W37947   5.285  12.211   5.253  0.0975 -0.4653 -0.0650
21101W        W37948   5.030  10.504  13.598  0.1089 -0.4080  0.1521
21102W        W37949   1.998   1.524   0.955 -0.2556  0.1997 -0.1058
21103W        W37950   3.858  15.943   5.299  0.1150  0.1373  0.1451
21104W        W37951   1.108   3.553   5.554 -0.0438  0.0705 -0.1067
21105W        W37952   1.969   3.890   2.264 -0.1799  0.1578 -0.0723
21106W        W37953   5.053   1.629  12.595  0.1194 -0.0536 -0.3291
21107W        W37954  16.100  10.635   2.434  0.0396  0.1002  0.1313
21108W        W37955   9.583   7.282  12.116 -0.0516 -0.0035 -0.0406
21109W        W37956  10.928  14.619  13.715  0.2490  0.1267 -0.1025
21110W        W37957   1.705   9.774  12.315  0.0603  0.1523  0.0029
21111W        W37958   0.933   2.674  12.676  0.0290 -0.0241  0.2147
21112W        W37959   9.627   1.376   0.147 -0.2573  0.0682 -0.1406
21113W        W37960   3.561   0.415  14.421 -0.1397 -0.2494  0.0810
21114W        W37961  10.327   6.608   1.737  0.1038  0.1387  0.2206
21115W        W37962  17.374   4.894  15.774 -0.0104  0.1144 -0.1822
21116W        W37963  16.985   9.440  15.426  0.0582  0.2984 -0.0392
21117W        W37964   7.494   6.901   2.070 -0.1462 -0.1144 -0.0770
21118W        W37965   8.062  13.919   6.061  0.0997 -0.0383 -0.0744
21119W        W37966  11.534  12.264   3.090 -0.0929  0.1445  0.2514
21120W        W37967  12.646   4.011  15.743  0.0179  0.0474  0.1648
21121W        W37968  12.576  15.303  16.469 -0.0659  0.2907  0.0561
21122W        W37969  11.508   1.776   3.963  0.1286  0.0007  0.0557
21123W        W37970  17.720   0.160   1.617  0.2192 -0.0272  0.0080
21124W        W37971   0.628  17.215  14.135  0.1640 -0.1143  0.0053
21125W        W37972  17.973  13.462  15.790 -0.1322  0.1557 -0.3845
21126W        W37973  10.339  12.535   2.540 -0.1982  0.0699 -0.0911
21127W        W37974  16.820   4.216   3.312 -0.1374  0.2934 -0.1267
21128W        W37975  12.040  11.695   0.222 -0.1292  0.0188 -0.1515
21129W        W37976   2.595  16.400   4.496 -0.2245 -0.0496  0.2362
21130W        W37977  14.596   8.326   3.250  0.0285  0.2011 -0.1060
21131W        W37978   4.648   3.534   5.253  0.0845  0.1707 -0.4250
21132W        W37979   5.178  17.807  16.062 -0.0770 -0.0033  0.1863
21133W        W37980  15.325   6.312   4.895  0.3336  0.1528 -0.2106
21134W        W37981  15.929   5.530  16.649 -0.0523 -0.1489  0.0787
21135W        W37982  15.835   8.624   2.769 -0.1719  0.0038  0.0413
21136W        W37983  12.761  16.885  12.317 -0.0277 -0.1173 -0.0374
21137W        W37984  15.082   9.426  13.029 -0.1155 -0.0288  0.1671
21138W        W37985   6.738   7.926   3.976  0.1152  0.1030  0.3247
21139W        W37986  11.156  15.371   3.358 -0.2312 -0.0134  0.2040
21140W        W37987   6.244   1.735  14.186  0.0164 -0.0932 -0.2153
21141W        W37988  15.323  16.855   1.582 -0.1146  0.3327  0.1529
21142W        W37989   9.785   7.055   2.896  0.4219 -0.2129  0.1304
21143W        W37990   0.951  15.713   4.509  0.0397 -0.2938  0.1053
21144W        W37991  11.988  14.746  15.046  0.1466  0.0990 -0.2296
21145W        W37992   4.325   0.854  11.955  0.2464 -0.1734  0.1350
21146W        W37993  12.316   6.345  16.271 -0.1118 -0.2136 -0.1394
21147W        W37994   2.978   4.064  13.078 -0.0919 -0.3070 -0.0758
21148W        W37995  15.150   6.719   3.119  0.0368  0.0561 -0.1575
21149W        W37996  12.113  15.766   3.250  0.0502  0.0040  0.0300
21150W        W37997  16.059  12.008  15.474 -0.0144 -0.1661 -0.1038
21151W        W37998   0.456  12.551  14.894 -0.1060 -0.0585  0.3405
21152W        W37999   0.115   4.570  13.565  0.0013  0.1871  0.4373
21153W        W38000  10.031  13.725  12.586  0.0070 -0.0117  0.1965
21154W        W38001   9.576  17.347  12.479  0.1510  0.1328 -0.1190
21155W        W38002   4.427   1.584   1.238  0.0666  0.0168  0.1894
21156W        W38003   9.573  17.085  14.363  0.0101  0.0292  0.0331
21157W        W38004  11.105   0.186   4.831 -0.2103 -0.2437  0.0099
21158W        W38005   0.465  15.406  13.847 -0.4225 -0.0749  0.2124
21159W        W38006  11.924   9.362  13.234 -0.0861 -0.0415  0.1206
21160W        W38007  10.177   0.645   0.218  0.0061  0.0841 -0.2823
21161W        W38008   7.380  14.306   3.927 -0.0276  0.0256 -0.2060
21162W        W38009   0.399   9.420   4.827  0.0191  0.0696 -0.3679
21163W        W38010   0.676   3.031   3.238  0.0325  0.1226 -0.0176
21164W        W38011   3.882   2.669   0.113  0.1989  0.0184  0.1412
21165W        W38012   7.182   8.194   4.242  0.0653 -0.0173  0.0398
21166W        W38013  17.695  12.812   4.685 -0.1540 -0.2277  0.1282
21167W        W38014  15.891  12.350  11.849  0.1148 -0.0805 -0.1160
21168W        W38015   1.242   2.361   3.473 -0.1412  0.0181  0.1467
21169W        W38016  11.045   4.171   2.965 -0.1937  0.0859  0.0501
21170W        W38017  11.063  15.559  13.050 -0.0134 -0.0437  0.3002
21171W        W38018   4.056   9.891   1.050  0.2180  0.1445  0.1866
21172W        W38019   6.634  15.892   0.500 -0.4159  0.0914 -0.1823
21173W        W38020   9.949   4.380  12.895 -0.3090  0.1671  0.1678
21174W        W38021  11.169   0.616  11.826 -0.1034 -0.1564 -0.1054
21175W        W38022  12.062   4.391  14.910 -0.2077 -0.2034  0.0916
21176W        W38023   0.415   3.810   4.963  0.0923 -0.0432  0.1655
21177W        W38024  10.439   9.072  16.049  0.2359  0.0420  0.2132
21178W        W38025   5.498  12.745  13.413 -0.0549 -0.0146 -0.1719
21179W        W38026  13.982   2.194   2.608 -0.0036  0.2597 -0.3765
21180W        W38027   5.320  14.306  11.703  0.1054  0.0397 -0.2119
21181W        W38028   9.549  13.530  15.010 -0.1077 -0.1036 -0.0747
21182W        W38029  11.905   4.252   4.479  0.2217  0.3077  0.1273
21183W        W38030   3.415  17.958   4.457 -0.0489 -0.1925  0.1902
21184W        W38031  16.477  13.730   4.739 -0.1143  0.0747 -0.0578
21185W        W38032   9.132  14.293   0.978 -0.0648  0.4817  0.0397
21186W        W38033   5.115   3.709  13.040  0.0771 -0.1212 -0.0506
21187W        W38034  13.482  14.871   1.616  0.2618 -0.6125 -0.1657
21188W        W38035  17.597  12.577  11.568  0.0272 -0.0322 -0.0632
21189W        W38036  12.445   1.346   3.694 -0.2436  0.1337 -0.3954
21190W        W38037   3.772  17.929   2.744  0.2200  0.2574  0.1621
21191W        W38038   3.392  14.797   2.585  0.2764  0.2939 -0.0198
21192W        W38039  14.077  13.507   4.960 -0.0856 -0.2464 -0.1105
21193W        W38040  14.023  16.157  15.705  0.2791  0.0913 -0.1486
21194W        W38041   9.643   8.461   2.810 -0.0712  0.3646 -0.2673
21195W        W38042   4.226  17.231   2.978  0.1144 -0.4152 -0.0029
21196W        W38043   5.114  14.223   4.077  0.1984 -0.2094  0.0280
21197W        W38044   3.551  11.471  13.943  0.0965 -0.0480  0.1854
21198W        W38045  10.440   8.367  13.102 -0.1261  0.0034 -0.0082
21199W        W38046   8.538   3.373   1.335 -0.3625 -0.0803  0.2906
21200W        W38047  17.612   1.250  13.214  0.0120 -0.1274  0.1658
21201W        W38048  15.186  16.827   6.043  0.0391  0.1174 -0.0344
21202W        W38049   7.187   9.070   2.108  0.0611 -0.4224 -0.0828
21203W        W38050  12.759   2.498   6.033  0.0221 -0.0713 -0.4328
21204W        W38051  13.482  14.239   2.356  0.0415 -0.1052  0.1363
21205W        W38052  14.586   9.724   0.480 -0.0171 -0.0058  0.2034
21206W        W38053  15.475  11.739   0.390  0.3455  0.2509  0.1154
21207W        W38054   4.918  11.008   3.104  0.1820  0.2014  0.1046
21208W        W38055   4.424   4.172  13.341  0.0726 -0.0682 -0.2738
21209W        W38056   7.702  10.291   0.824  0.0809  0.2330 -0.2501
21210W        W38057   8.204   8.403  14.038 -0.2841  0.0577 -0.0620
21211W        W38058   4.353  15.403  14.787 -0.1469 -0.0132  0.0730
21212W        W38059   3.341  11.619   1.107 -0.0738  0.1194 -0.0186
21213W        W38060   8.101  13.084   2.291  0.2327 -0.1175 -0.1238
21214W        W38061   0.735   9.876  15.817  0.0388 -0.1459 -0.1445
21215W        W38062   7.193   6.261  16.313 -0.1590  0.5624  0.0784
21216W        W38063  17.739   8.839   3.825  0.0232  0.2294  0.2801
21217W        W38064  14.766  13.206  16.486  0.1422  0.0895  0.2071
21218W        W38065   4.617   5.509   5.342  0.1713  0.2546  0.3886
21219W        W38066  16.240   8.494   0.144 -0.0523 -0.1311  0.1776
21220W        W38067   1.780  13.089  15.876 -0.1492  0.2525 -0.0844
21221W        W38068  10.127   6.207  12.824  0.1395 -0.2376  0.1536
21222W        W38069  16.958  10.103   4.351  0.0375  0.0773  0.0088
21223W        W38070   8.544   5.732  14.311 -0.0068 -0.2780  0.0266
21224W        W38071  17.315   9.506   3.462  0.0610 -0.0182 -0.0049
21225W        W38072   7.813   3.522   4.648 -0.1663 -0.0456  0.2149
21226W        W38073  11.478  15.415  14.100  0.0929  0.1615  0.1734
21227W        W38074   8.602  11.144   0.351 -0.1975  0.1178  0.2983
21228W        W38075  13.554   4.847   4.157 -0.2696 -0.1222 -0.0459
21229W        W38076  15.797  12.605  14.723  0.0230  0.0550 -0.0030
21230W        W38077  12.812   1.629   5.709  0.1195  0.0865 -0.0125
21231W        W38078  14.132   0.062  12.686  0.0362  0.0995 -0.0350
21232W        W38079   9.689   0.481  14.413  0.1995  0.1291 -0.4561
21233W        W38080   6.522  11.798  15.895 -0.0488 -0.1960  0.3243
21234W        W38081   0.218   5.009   0.685 -0.3619  0.1111  0.5437
21235W        W38082   7.395  15.641   0.219  0.1099 -0.5239  0.1438
21236W        W38083  11.323   2.246  14.745  0.1510 -0.1905 -0.0369
21237W        W38084   1.190   4.858   4.188 -0.1704 -0.0855  0.1102
21238W        W38085  17.548  13.123   5.067  0.0742  0.0656 -0.2265
21239W        W38086   2.788   1.310  15.461  0.4471  0.0692  0.3245
21240W        W38087  11.333   5.575  13.387  0.0272 -0.0742 -0.0458
21241W        W38088   4.686  17.422  13.032 -0.3477  0.1892  0.1176
21242W        W38089   3.442   6.008   0.629 -0.0842 -0.0204  0.0529
21243W        W38090   9.522  13.237   5.626  0.1930 -0.2797 -0.2284
21244W        W38091   9.111  11.728  15.902 -0.1184 -0.1614 -0.0361
21245W        W38092   4.311   1.390   0.750  0.0274 -0.2955 -0.3806
21246W        W38093  10.948   6.954   2.605  0.0090  0.0180 -0.2041
21247W        W38094   9.769  17.532  14.064 -0.1869  0.0694  0.1669
21248W        W38095   8.532   3.507  12.270  0.0480  0.1261 -0.2159
21249W        W38096   5.246   7.131  16.579  0.2848 -0.1192  0.1802
21250W        W38097  14.614  14.651   4.988  0.1705  0.2207  0.2911
21251W        W38098   7.661   0.609   5.270 -0.4558  0.1019  0.0933
21252W        W38099   1.420  14.880   4.278  0.1457  0.0388  0.0491
21253W        W38100   1.088  15.175   4.046 -0.0335  0.1743 -0.1288
21254W        W38101   1.869  14.634   3.309 -0.0184 -0.2402  0.1459
21255W        W38102  16.089   5.847  13.336 -0.0593  0.0467  0.1715
21256W        W38103  11.328   9.343   0.101 -0.2292 -0.1945 -0.0766
21257W        W38104   2.248  16.010  10.914  0.1977  0.0887  0.0947
21258W        W38105   9.160   7.670   5.755  0.0424 -0.1558  0.0144
21259W        W38106   6.692  16.703  12.327 -0.0124  0.1678  0.2209
21260W        W38107   7.050  15.810   2.903  0.1884  0.0050 -0.1865
21261W        W38108  16.645   0.535  13.846 -0.0367 -0.1213 -0.1021
21262W        W38109   2.438   1.292  16.447 -0.2011 -0.0687  0.1226
21263W        W38110  16.297   5.326  12.402 -0.0082 -0.0696 -0.2167
21264W        W38111  15.060   2.934   1.567 -0.0848  0.1321  0.0480
21265W        W38112   0.980  12.745  14.763 -0.5063  0.0724 -0.1119
21266W        W38113   7.878   1.597   3.006 -0.0733 -0.0711 -0.0383
21267W        W38114  14.458   2.386   3.580  0.0244  0.1446 -0.0943
21268W        W38115   5.095   7.201  12.449  0.0303  0.4474  0.0141
21269W        W38116   8.316  17.404   6.450 -0.0706  0.0404  0.0109
21270W        W38117   7.270   0.493  12.806 -0.3357  0.0314 -0.1257
21271W        W38118   1.769  12.925  12.134 -0.1173  0.0229  0.0210
21272W        W38119   4.446  10.395  14.779  0.0185 -0.0840  0.0761
21273W        W38120   4.316  17.342  16.513 -0.2579  0.2059 -0.3396
21274W        W38121  13.552  15.833   2.590  0.1696  0.2420 -0.1015
21275W        W38122   3.953   3.482   4.387  0.2001  0.1735 -0.4314
21276W        W38123  16.861  13.289   4.890  0.0139  0.3716 -0.0005
21277W        W38124   4.052  11.952  11.603  0.2108  0.1813 -0.2934
21278W        W38125   6.674  16.368   3.971 -0.1836 -0.1341  0.1930
21279W        W38126  11.212   5.082  13.550 -0.2729 -0.0291  0.3999
21280W        W38127  12.211  12.483  16.368 -0.0271 -0.0190 -0.1449
21281W        W38128   5.750  12.601  15.565  0.1807 -0.1228  0.1045
21282W        W38129  15.634  14.044   0.494 -0.1096 -0.0336  0.3113
21283W        W38130   2.863   4.016  15.358  0.2413  0.2179  0.0913
21284W        W38131  10.088   7.119   5.691  0.0898 -0.0076 -0.0620
21285W        W38132   1.364  11.042   0.731 -0.0954  0.2799 -0.0772
21286W        W38133  14.468   9.593  12.390 -0.1502 -0.2891 -0.2768
21287W        W38134  10.173   5.428   4.826  0.0281 -0.0660 -0.2798
21288W        W38135   1.047   7.533   5.188  0.1630  0.2308  0.2633
21289W        W38136  13.182   0.570   1.562 -0.3036  0.1323 -0.2660
21290W        W38137  12.943   3.055   2.509  0.3978  0.1539 -0.3282
21291W        W38138   9.489   9.007   2.107  0.2462  0.1017 -0.2954
21292W        W38139  14.630  13.608  13.975  0.0109 -0.0777 -0.1749
21293W        W38140   5.600   1.185  14.414 -0.1154 -0.3713  0.0947
21294W        W38141   1.458  10.052   5.442  0.1458 -0.1074 -0.2496
21295W        W38142  15.479   1.163  12.664 -0.2318 -0.2196  0.0716
21296W        W38143  15.106  16.497  12.319  0.0290  0.3085  0.1773
21297W        W38144  15.780  17.258  14.193  0.0453  0.0924  0.0492
21298W        W38145  16.872  11.403  12.194 -0.2043 -0.3368 -0.2967
21299W        W38146   7.675   1.910  16.625  0.1490 -0.1195  0.1338
21300W        W38147   3.121  12.018   0.793 -0.0538 -0.0902  0.0223
21301W        W38148   9.101   6.994  13.989 -0.1058 -0.1365  0.1463
21302W        W38149   7.089   7.345   0.589 -0.0530 -0.0714  0.0919
21303W        W38150  17.670  15.023   0.493  0.2512  0.0791  0.0097
21304W        W38151  16.675   8.517  13.822 -0.1720 -0.0453  0.0614
21305W        W38152  17.702  12.614   1.197  0.2385  0.3270 -0.0281
21306W        W38153   1.539  13.005  13.506 -0.1166 -0.0480  0.0607
21307W        W38154   3.720  18.022   3.756  0.2832  0.1926  0.1810
21308W        W38155  13.149   7.858  16.195  0.1021 -0.0944 -0.0981
21309W        W38156  14.835   4.225   4.082 -0.0817  0.1987 -0.2663
21310W        W38157   1.441   5.579  11.924  0.1690 -0.2337  0.0461
21311W        W38158  15.618   3.991  15.957  0.1535  0.1340  0.3356
21312W        W38159   2.502   4.373  15.271  0.2421  0.1760 -0.1045
21313W        W38160  13.701   1.112   3.772 -0.0524  0.2469  0.2253
21314W        W38161  12.144   1.977  16.266  0.2140 -0.2905  0.1018
21315W        W38162   7.852   0.248   4.932 -0.0095 -0.0531  0.0630
21316W        W38163   6.645  14.107   3.986  0.1756  0.1370 -0.0361
21317W        W38164  12.391  14.864  12.673 -0.1022  0.1278  0.1767
21318W        W38165   8.306   1.392   1.489  0.1756 -0.4695 -0.1871
21319W        W38166   1.893   3.933   3.268 -0.1023  0.0506  0.1403
21320W        W38167  15.548   3.071   1.390  0.4312  0.3062  0.1844
21321W        W38168  12.409  13.864   0.535  0.0218  0.0964  0.0217
21322W        W38169   7.196  14.338  14.238  0.3239 -0.0210  0.0529
21323W        W38170   2.212  17.253   1.250 -0.2403 -0.1045 -0.0774
21324W        W38171   3.967  16.023   1.595  0.1747 -0.3184 -0.0952
21325W        W38172  17.392  13.319   0.618  0.0602 -0.0761 -0.0588
21326W        W38173   8.373  15.423   0.751  0.2519  0.0804  0.1983
21327W        W38174  17.387   3.059  14.576  0.2006 -0.0381  0.3463
21328W        W38175   9.726  15.466  11.786 -0.0172 -0.1505  0.0359
21329W        W38176   7.404   5.011   3.191 -0.0698 -0.1969  0.0331
21330W        W38177   6.787  12.599  12.350  0.1326  0.1830  0.0324
21331W        W38178   6.157   2.116  13.814  0.1457 -0.2145  0.0671
21332W        W38179  12.788   6.426   5.282  0.1139 -0.3273  0.0221
21333W        W38180   7.818   8.989  14.056  0.0294 -0.1600  0.2165
21334W        W38181   4.856  11.006   4.256  0.0550 -0.1497 -0.3990
21335W        W38182  13.707  10.260   0.714 -0.0565  0.2051  0.0371
21336W        W38183  10.627   9.263  14.347 -0.0095 -0.3199 -0.1377
21337W        W38184   6.214  12.117  16.055 -0.2371  0.2867  0.1902
21338W        W38185  11.036   6.420  15.059  0.1375 -0.0335  0.1843
21339W        W38186   9.439  14.505   0.699 -0.0079 -0.0604  0.0457
21340W        W38187   0.414   4.774   1.867 -0.0950 -0.0518  0.0928
21341W        W38188   5.519  13.766  12.520  0.0244  0.3405 -0.0027
21342W        W38189   9.933  15.576  12.998  0.2062 -0.2526  0.1573
21343W        W38190   6.776   4.002   2.201  0.0438  0.1822 -0.2570
21344W        W38191   4.627  11.269  15.931  0.1811  0.1055 -0.1875
21345W        W38192   1.110   5.159  12.101 -0.0027 -0.1968 -0.1416
21346W        W38193  16.878   4.014   4.705  0.1197 -0.1247 -0.0637
21347W        W38194  12.271   7.971  13.374 -0.0365  0.2616  0.1361
21348W        W38195  14.077   5.047   1.139 -0.4257  0.2772 -0.2653
21349W        W38196   8.427   6.860   1.134  0.1587 -0.0719  0.2532
21350W        W38197   7.524  13.232   4.803  0.1341  0.0235  0.0598
21351W        W38198   1.287  11.552  13.686  0.1803 -0.0030 -0.3260
21352W        W38199   3.884   6.678   5.189 -0.1124 -0.1411  0.2224
21353W        W38200   0.207  12.065  11.376 -0.0758 -0.2131 -0.0416
21354W        W38201   9.304  15.757  14.611 -0.2092  0.1799  0.0530
21355W        W38202   2.311  16.557  16.422  0.2010 -0.2542 -0.1556
21356W        W38203  14.991  10.277   3.330  0.0037 -0.1630 -0.0792
21357W        W38204   0.483  14.238  14.549 -0.0168  0.0945 -0.2589
21358W        W38205  18.066   2.667  14.925  0.2557 -0.1992  0.1842
21359W        W38206  14.313   1.633   3.176 -0.0649 -0.0085 -0.1547
21360W        W38207   9.889  14.440   4.905 -0.3339 -0.2485  0.0406
21361W        W38208   8.866   5.666   1.411  0.1896 -0.0043 -0.4326
21362W        W38209   5.325  17.743  13.052  0.1364  0.1156 -0.0216
21363W        W38210  15.416   8.780  13.654  0.4188  0.0205 -0.0811
21364W        W38211  13.767   0.817   2.773 -0.2131 -0.0145  0.0138
21365W        W38212  17.361  17.836   3.282  0.2412 -0.0780 -0.3268
21366W        W38213   4.850   1.129  11.442 -0.0912  0.1925 -0.1097
21367W        W38214  14.225  14.608  14.796 -0.0380  0.0187 -0.1352
21368W        W38215   2.803  16.280  14.462  0.0312  0.0553  0.2252
21369W        W38216   3.335  16.104  14.564 -0.1985  0.0642 -0.2950
21370W        W38217  10.058   0.220  11.634 -0.1229 -0.3325  0.3492
21371W        W38218   5.022   5.896  14.550  0.1396 -0.3809 -0.0284
21372W        W38219  10.866   2.307  16.133 -0.1033 -0.0361 -0.0932
21373W        W38220   0.918   7.946   1.557  0.1884 -0.1420 -0.1266
21374W        W38221  15.902  11.499   1.194  0.0751  0.1498 -0.0924
21375W        W38222   4.787  10.814  12.653 -0.5680 -0.0977 -0.0754
21376W        W38223  12.858  15.060   3.977  0.1150 -0.0773  0.0003
21377W        W38224  13.955   8.254   0.487 -0.0773 -0.1048 -0.2697
21378W        W38225  17.274  13.507   4.914 -0.2883  0.1955 -0.3022
21379W        W38226  12.766   3.159   5.865  0.1123  0.0815  0.0051
21380W        W38227  10.529   8.230   1.578  0.0354 -0.3201  0.0585
21381W        W38228   6.798   4.595  13.328 -0.1320 -0.2425 -0.1178
21382W        W38229   1.385   5.867  15.848 -0.0136 -0.1493  0.1592
21383W        W38230  10.802   6.898  15.825  0.1543  0.1822  0.0191
21384W        W38231  15.646   6.494   1.859  0.3391  0.0427  0.3956
21385W        W38232   5.768   9.248  14.906  0.0318  0.0918 -0.1766
21386W        W38233  15.458   4.486   4.524  0.3560  0.0622 -0.1626
21387W        W38234  12.237  16.233   0.871 -0.0145  0.0776 -0.1386
21388W        W38235  15.031  11.883  14.918  0.3448 -0.1222 -0.0669
21389W        W38236   8.303   2.400  13.137  0.0915 -0.0529  0.1277
21390W        W38237   6.187   0.590  12.481 -0.1235 -0.0653  0.1923
21391W        W38238   9.699  11.903   0.736 -0.1325  0.0994  0.0327
21392W        W38239   4.540   5.548   2.406 -0.1001 -0.0216 -0.0576
21393W        W38240  11.244  10.580   4.294  0.1445 -0.0217 -0.0521
21394W        W38241   0.920  15.817  12.835  0.2165  0.1696  0.0733
21395W        W38242  12.215  16.023  14.612 -0.0465 -0.1460  0.3210
21396W        W38243  14.297   9.252  16.581 -0.3342  0.1340 -0.2063
21397W        W38244  17.317  17.087  12.853  0.0053  0.1154 -0.1999
21398W        W38245   4.665   2.247  13.522  0.0220 -0.2455  0.0235
21399W        W38246  14.924  15.960   3.866 -0.1008  0.1071 -0.1542
21400W        W38247   9.891   8.116   3.818 -0.0242 -0.0148  0.0902
21401W        W38248   0.148  17.433   4.055 -0.1464 -0.2687  0.0108
21402W        W38249   6.884   2.862   3.587  0.0511  0.5211 -0.4973
21403W        W38250  12.069   0.267   0.172  0.2682 -0.0738 -0.0183
21404W        W38251  16.693  15.435  14.649 -0.1422 -0.1735  0.0440
21405W        W38252  14.342   4.849   4.729  0.3261  0.2729 -0.1393
21406W        W38253   2.061  17.882  14.605 -0.3132  0.0819  0.2315
21407W        W38254  11.505  14.318   2.661 -0.1545 -0.0137  0.0374
21408W        W38255   0.838   5.272  14.038 -0.0372 -0.1540  0.1195
21409W        W38256  16.984  14.400  16.501 -0.2829  0.2502 -0.0834
21410W        W38257  14.163   8.857   1.389 -0.1137  0.4918 -0.0790
21411W        W38258  14.402  11.603   6.110  0.0533  0.0142 -0.1666
21412W        W38259   3.056  17.281   1.638  0.3802  0.1835 -0.2595
21413W        W38260  14.142  12.789  11.870  0.0183 -0.3301  0.0679
21414W        W38261  12.128   2.022  13.477 -0.0963  0.3970  0.2211
21415W        W38262  15.391   2.463   3.570 -0.1733 -0.1751  0.0131
21416W        W38263   1.541  11.902  11.607  0.0298  0.0437  0.0390
21417W        W38264   5.921  16.935  16.116 -0.2329  0.1485  0.0925
21418W        W38265   7.884  17.969  13.132  0.1313 -0.1896 -0.2213
21419W        W38266  15.190  13.205   0.857 -0.2632  0.2348  0.5547
21420W        W38267   4.678   9.935  12.356 -0.2610 -0.2152  0.0921
21421W        W38268  13.348   4.095  14.025  0.1473  0.0755 -0.0330
21422W        W38269  11.951   2.563   5.059  0.1442 -0.1007 -0.0502
21423W        W38270   7.643   9.565   4.223 -0.4991  0.0307 -0.3267
21424W        W38271  14.383  17.771  12.924  0.0014  0.1188  0.2935
21425W        W38272   9.100   7.433  16.503  0.3176 -0.1125 -0.3757
21426W        W38273   8.817   1.426   1.539  0.0719  0.1573 -0.3182
21427W        W38274  14.000   3.619  16.667 -0.2983  0.0914 -0.0948
21428W        W38275  13.771  14.104  13.427 -0.3343  0.2519 -0.0413
21429W        W38276   1.440  12.880   3.691 -0.2660  0.0284  0.1491
21430W        W38277  15.221  15.669   4.937  0.0487  0.1330  0.0030
21431W        W38278   0.390   2.160  15.043 -0.2502 -0.0897 -0.1796
21432W        W38279   4.110   2.583  11.761  0.2024 -0.0228  0.0656
21433W        W38280  11.689   8.420  11.298 -0.1834 -0.0511 -0.0952
21434W        W38281   4.934   2.864   2.840 -0.1676 -0.0535 -0.1513
21435W        W38282   1.206   9.915  12.154 -0.0666 -0.3025 -0.1157
21436W        W38283   3.735   3.280   0.570  0.1141 -0.0799 -0.0697
21437W        W38284   8.513   9.306   6.063 -0.1443 -0.1875 -0.0937
21438W        W38285   4.579   8.694   2.207  0.3884  0.2518 -0.0631
21439W        W38286   4.045  10.695   2.041 -0.1120  0.2648 -0.3243
21440W        W38287   8.829  13.080   5.161 -0.1302 -0.0960  0.1606
21441W        W38288  15.239   2.876   3.271 -0.0165  0.0036 -0.0351
21442W        W38289   4.132   1.568  11.363  0.0476  0.1256 -0.1801
21443W        W38290  15.213   9.013  12.638  0.3296 -0.0231 -0.1417
21444W        W38291  17.633   7.072   1.400 -0.1424 -0.0425  0.2605
21445W        W38292  15.096   2.698  14.501  0.2657  0.1903  0.2918
21446W        W38293   0.366   8.246   3.201  0.0906  0.1970  0.1614
21447W        W38294  11.505   0.283   1.790  0.0770 -0.3433  0.0418
21448W        W38295   1.555  10.117   2.708  0.0784 -0.1798 -0.1971
21449W        W38296  15.467  10.357   0.938 -0.1427  0.1158  0.0936
21450W        W38297   0.007  16.525  14.250  0.2416  0.3113  0.2366
21451W        W38298   1.928  15.149  14.787  0.0870 -0.0647  0.4815
21452W        W38299   2.787   5.873  12.255  0.2094 -0.1851  0.1772
21453W        W38300  14.545  14.723   4.491  0.0266 -0.2838 -0.0409
21454W        W38301  16.154   1.231  11.843 -0.0561  0.0179 -0.2732
21455W        W38302   2.142   0.865   6.065  0.1675 -0.0316 -0.1328
21456W        W38303  13.158  13.181  10.567  0.1495 -0.1350 -0.1357
21457W        W38304   6.991  12.797  11.874 -0.1798  0.0044 -0.2566
21458W        W38305  17.054  14.142   2.034 -0.0667  0.2691  0.3105
21459W        W38306  12.970   9.198   0.949  0.0384  0.1865 -0.4884
21460W        W38307   6.207  11.834  15.486  0.1694 -0.2367  0.0506
21461W        W38308   9.402  17.004  15.244  0.1352 -0.0709  0.0563
21462W        W38309   1.868   3.082   1.098  0.0053  0.0590  0.0537
21463W        W38310  10.899  17.965  13.970  0.2950  0.1429 -0.1462
21464W        W38311   6.608   3.128  13.818  0.2049  0.0437  0.0319
21465W        W38312   2.117   0.976   1.727  0.1858 -0.1943 -0.0579
21466W        W38313   2.637  17.430  12.333 -0.3992  0.2303  0.3834
21467W        W38314  10.397   0.868   2.364 -0.1376 -0.1150 -0.0792
21468W        W38315   1.479  11.112  12.363  0.2311  0.0228  0.1833
21469W        W38316   8.015  11.404  14.291 -0.0438  0.1194 -0.0542
21470W        W38317   3.671   9.777  13.581 -0.1948 -0.3058 -0.0088
21471W        W38318   3.937   7.105   1.639 -0.1181 -0.1879  0.0016
21472W        W38319   4.746  14.937  11.839  0.0913 -0.3172 -0.0343
21473W        W38320  17.691  14.470   3.307  0.0726 -0.0129  0.0167
21474W        W38321   1.686   7.036  12.242  0.2580  0.2748  0.0408
21475W        W38322   6.881   2.353  14.484 -0.0101 -0.1748 -0.2331
21476W        W38323   4.959  12.065   3.775  0.2725  0.1762  0.2816
21477W        W38324   5.076  12.850   0.328  0.0843 -0.1257 -0.0791
21478W        W38325   4.816   2.437  14.051  0.1017  0.3581 -0.2154
21479W        W38326  13.817  14.987  11.710  0.4103  0.1979  0.0483
21480W        W38327   9.594  10.150   1.186 -0.0272  0.5571  0.2239
21481W        W38328  13.376   7.945  13.149 -0.0453 -0.0667 -0.0594
21482W        W38329  13.574   6.712   2.165 -0.0472 -0.0007 -0.0580
21483W        W38330   6.991   5.607   5.388  0.0947 -0.2881 -0.0500
21484W        W38331   0.341  10.582   0.293 -0.1405 -0.1842  0.1084
21485W        W38332   9.516   6.075   3.189 -0.0907  0.0689  0.0147
21486W        W38333   7.079   5.132   4.474 -0.0015  0.1225 -0.1639
21487W        W38334   2.310  12.335  16.437  0.0667 -0.1475 -0.0626
21488W        W38335  14.517  12.643   4.033  0.1389 -0.0038  0.0962
21489W        W38336   3.073  16.127  13.603  0.2707  0.1986  0.2067
21490W        W38337  16.744  10.672   0.887 -0.1414  0.1479  0.0022
21491W        W38338  17.307   7.474   2.795 -0.0170 -0.0994  0.3288
21492W        W38339   1.728   3.473   4.141  0.1713 -0.4259  0.0566
21493W        W38340   2.477   6.279  11.922  0.2642 -0.0531 -0.0666
21494W        W38341   3.619   1.767   1.755  0.0041  0.2302 -0.0928
21495W        W38342   6.771   5.052   0.085 -0.1541 -0.1027 -0.2609
21496W        W38343  16.796   3.421   3.237  0.2472  0.0696 -0.2792
21497W        W38344   1.503   1.840   5.593  0.2818  0.4077  0.2567
21498W        W38345   6.092   1.945   1.582 -0.0647 -0.2758  0.0483
21499W        W38346  15.981   1.886   1.786 -0.0087 -0.1289  0.0102
21500W        W38347   7.645  16.029   0.496 -0.0587 -0.4414 -0.1339
21501W        W38348  14.192  13.267  13.788 -0.2738  0.0831  0.0725
21502W        W38349   2.119   3.324   0.636  0.1021 -0.1176  0.1263
21503W        W38350  13.612   0.545   4.506 -0.2502  0.0586  0.1855
21504W        W38351  17.388   7.024  15.409 -0.3886 -0.0588 -0.0599
21505W        W38352  15.507  16.641  11.582 -0.2736 -0.0741  0.1179
21506W        W38353   2.648  16.968  13.231  0.0097 -0.1347 -0.1061
21507W        W38354  12.050  13.801   1.412  0.0144 -0.0761 -0.1214
21508W        W38355  14.465  13.834  12.452  0.1974  0.1705  0.0211
21509W        W38356   9.652   0.486  11.533  0.3056  0.1054  0.2021
21510W        W38357   7.127  11.413   2.997 -0.0152  0.2590  0.0622
21511W        W38358  16.533  17.998  14.165  0.0280 -0.2237  0.0198
21512W        W38359   0.855   2.495   2.105 -0.0229 -0.1600 -0.1977
21513W        W38360   2.789  11.323  16.310  0.1598  0.0448 -0.3559
21514W        W38361   1.088   2.241   4.806 -0.0017  0.2029 -0.2307
21515W        W38362  12.913  14.734  15.242 -0.2836  0.2729 -0.1786
21516W        W38363   4.452   0.420   4.124 -0.0432  0.0226  0.0028
21517W        W38364  14.383   7.334   3.591  0.1075  0.0508  0.0523
21518W        W38365   6.872  18.044  14.685  0.1022  0.0347  0.1007
21519W        W38366   8.588  11.300   2.574 -0.1334  0.1150 -0.0493
21520W        W38367   1.756   8.207  14.899 -0.3705  0.2441  0.2306
21521W        W38368   0.811  15.887  14.856 -0.0355  0.2962 -0.0735
21522W        W38369   3.746   4.779   3.923 -0.2309 -0.1230  0.5620
21523W        W38370  10.004  14.757  11.747  0.1296 -0.0220  0.2419
21524W        W38371   9.014  13.063   2.769 -0.0699  0.0392  0.2387
21525W        W38372  17.488   2.169  11.185 -0.1811  0.0916  0.0346
21526W        W38373  10.983  14.036   0.612 -0.4175 -0.1803  0.1910
21527W        W38374   1.463  14.094   5.498 -0.0895 -0.0482  0.1536
21528W        W38375  10.916   2.102   5.424  0.1265  0.3793 -0.1874
21529W        W38376   6.211  13.970   5.972 -0.1167 -0.2331 -0.1270
21530W        W38377   5.583   7.207   3.909  0.0618  0.0259  0.1218
21531W        W38378   3.372   0.250  12.280  0.0110 -0.2336 -0.1306
21532W        W38379  15.192   1.362  13.055  0.0989  0.0338  0.0485
21533W        W38380   3.710  12.516  12.467 -0.1119 -0.1234 -0.2435
21534W        W38381  13.101  17.879   1.048  0.0896  0.1774  0.0219
21535W        W38382  13.857   4.638   1.281 -0.4388 -0.3761  0.2043
21536W        W38383  11.304  16.066   1.405 -0.1313 -0.1107 -0.2478
21537W        W38384   2.297   0.576   0.804 -0.1003  0.1242  0.0614
21538W        W38385   0.963   9.291   3.384  0.0627 -0.0278  0.1988
21539W        W38386   1.585  12.552  12.954 -0.4722 -0.1346  0.2943
21540W        W38387   2.210   2.988   4.818 -0.1096 -0.1238  0.2022
21541W        W38388   5.493  13.655  11.987 -0.0667 -0.2402  0.1206
21542W        W38389  16.097   6.980  12.431  0.3175  0.1661 -0.1333
21543W        W38390   7.326  12.316  12.376  0.0633  0.2393  0.2640
21544W        W38391   0.571  13.987  14.053 -0.0101 -0.1571 -0.1838
21545W        W38392  15.313  10.055  16.430  0.1829  0.1989 -0.3023
21546W        W38393  13.782   0.348   3.691 -0.1048 -0.0105 -0.1808
21547W        W38394  10.754  14.086  14.569 -0.3228 -0.2996  0.0608
21548W        W38395   6.359   7.406  12.941  0.1103  0.3475 -0.0443
21549W        W38396   2.105  13.022   0.750 -0.2972 -0.1547  0.3389
21550W        W38397   7.739   6.010  15.605  0.0881 -0.0976  0.3368
21551W        W38398  11.134  13.115  16.082 -0.1035 -0.0418 -0.0373
21552W        W38399   8.736  13.401   3.958  0.0309  0.1860 -0.2353
21553W        W38400   1.215  11.944   2.318  0.2350  0.0671 -0.0363
21554W        W38401  17.856  15.340  15.261  0.0550  0.0245 -0.0393
21555W        W38402   8.902  12.219  12.828 -0.0669  0.1826  0.0640
21556W        W38403   7.686  16.576  14.647  0.0499 -0.0439 -0.0520
21557W        W38404  11.651   4.234   1.610 -0.1813  0.0178 -0.0223
21558W        W38405   0.721  17.586  16.074  0.0190  0.0793  0.0790
21559W        W38406   6.632   8.693   5.164 -0.0043  0.0792 -0.3036
21560W        W38407   6.719   8.245  11.906 -0.0094  0.1392  0.3122
21561W        W38408   2.881  15.203  12.168 -0.2435  0.1188 -0.0339
21562W        W38409  12.298   3.750   0.155 -0.3458  0.1430  0.0080
21563W        W38410   5.228   5.999  15.063 -0.1602  0.2764  0.4231
21564W        W38411  12.582  16.294  15.428  0.0028  0.0746  0.0843
21565W        W38412   9.859   3.434  13.416 -0.0525  0.3409  0.0260
21566W        W38413  12.536   8.297   5.588  0.2452  0.1579 -0.2759
21567W        W38414  11.610  10.065  13.695  0.0307  0.0180  0.2934
21568W        W38415  15.589  10.084   4.037  0.1784 -0.2978  0.1441
21569W        W38416  14.114  11.239   1.903  0.1039  0.0332 -0.2393
21570W        W38417   5.525   2.987   0.767  0.0522  0.1313 -0.2084
21571W        W38418  15.821  12.187  16.313 -0.1112  0.1043  0.0685
21572W        W38419  14.268   1.909   3.621  0.2073 -0.1091  0.1251
21573W        W38420  16.246   5.485   3.829  0.0178 -0.0424 -0.2026
21574W        W38421   7.432   3.927  14.411  0.2175  0.0448  0.1550
21575W        W38422  13.058  13.179  12.309 -0.1413  0.0394 -0.3243
21576W        W38423   9.702   0.310  13.173  0.0547  0.0537 -0.0289
21577W        W38424   5.851   0.682  11.986  0.0367  0.2390  0.0932
21578W        W38425   5.857   9.557   3.731  0.2045  0.2343 -0.2173
21579W        W38426   5.094   7.850   4.718 -0.0902 -0.3720  0.0395
21580W        W38427  11.394   4.107  12.937  0.0557 -0.0285  0.1123
21581W        W38428   8.970  17.189  14.617 -0.0012 -0.3147 -0.0673
21582W        W38429   8.038   6.209  12.645  0.0293 -0.0791 -0.0738
21583W        W38430   0.386   2.621   2.242  0.0878 -0.0397 -0.4481
21584W        W38431   0.534   1.966   3.793  0.1298  0.1475 -0.2028
21585W        W38432   9.843  14.466  14.686 -0.2619  0.2412  0.0438
21586W        W38433  17.697   5.121   0.636 -0.0036  0.0469  0.1728
21587W        W38434  10.668  12.262   2.987  0.0338  0.2939  0.1974
21588W        W38435   5.111   4.367  13.898  0.1499  0.1459 -0.2119
21589W        W38436   9.758   8.689   3.227  0.0689 -0.1624  0.0683
21590W        W38437  18.057   1.704   0.170 -0.3233 -0.3036 -0.2679
21591W        W38438   6.043   2.968   1.494 -0.7182 -0.0851 -0.5450
21592W        W38439  17.188   7.938   3.503 -0.3715 -0.3562  0.0465
21593W        W38440   4.500  17.104   3.717  0.0214  0.1228 -0.0141
21594W        W38441   6.208   7.225   2.461  0.0805  0.1675  0.0837
21595W        W38442  11.182  10.981  15.172 -0.1075  0.0577  0.0991
21596W        W38443  13.416   2.228   3.891  0.4762  0.0343 -0.1495
21597W        W38444   4.927  17.740  13.850 -0.0981 -0.0222 -0.1326
21598W        W38445  12.033  14.391  14.700 -0.0791 -0.0109 -0.0192
21599W        W38446  11.737   7.291   3.057  0.1744 -0.3793 -0.1471
21600W        W38447  17.083  11.713  15.016 -0.0774  0.1890 -0.1602
21601W        W38448   6.809   3.364   2.888  0.2272  0.1470 -0.0420
21602W        W38449   7.129   6.580   1.547  0.1036 -0.0331 -0.1667
21603W        W38450  10.441   3.922  12.786  0.0157  0.0716  0.0973
21604W        W38451   7.739   7.637   0.053 -0.0574  0.0803 -0.3100
21605W        W38452  15.483  15.340  15.228  0.0194  0.0869 -0.0513
21606W        W38453   5.802   8.769   1.474  0.2280 -0.1780 -0.1530
21607W        W38454   2.937   5.482   1.093  0.0790 -0.0119  0.0183
21608W        W38455   2.493   2.422  13.883  0.0699 -0.2847  0.2154
21609W        W38456   0.712  10.188   4.317  0.1260 -0.0780 -0.3574
21610W        W38457  18.002   2.124   0.557  0.0914 -0.0687  0.1699
21611W        W38458  16.028  15.434   0.188  0.0774 -0.1236  0.0484
21612W        W38459  10.990   4.844   6.225 -0.1843  0.2539 -0.0283
21613W        W38460  17.914   5.032   4.078  0.1186  0.1058 -0.1888
21614W        W38461   2.366  12.282  13.336 -0.1891  0.0030 -0.2470
21615W        W38462  15.991   9.304   3.295 -0.4380  0.1877 -0.0039
21616W        W38463   2.967  10.647   1.227  0.1339 -0.2268  0.0849
21617W        W38464   5.121   7.252   3.990  0.0627 -0.2733  0.1197
21618W        W38465   0.349   5.358  14.128  0.0906 -0.2649  0.2699
21619W        W38466  17.520   5.638  11.829 -0.0225 -0.4245 -0.1664
21620W        W38467   7.243   8.040  12.892  0.1125 -0.0843  0.0206
21621W        W38468   0.703   6.313   1.286 -0.1649 -0.1064  0.0964
21622W        W38469   8.191   9.394   2.884 -0.1727  0.1697  0.0930
21623W        W38470   0.972  16.622  16.317  0.0007 -0.0761  0.1074
21624W        W38471  12.167  18.045   3.884 -0.1692  0.0318  0.1525
21625W        W38472   6.694  16.764   6.267 -0.0454  0.1364 -0.4811
21626W        W38473   0.882   0.904  13.868 -0.0339  0.1166 -0.1928
21627W        W38474  10.891  12.608  13.483 -0.0154  0.0346 -0.1743
21628W        W38475   2.749   7.752  14.490 -0.2683 -0.4792  0.0370
21629W        W38476  11.878   3.934  13.075  0.1906  0.2817  0.0382
21630W        W38477   4.980   0.863   0.209  0.1807 -0.1099 -0.1227
21631W        W38478   1.672   6.586   2.148 -0.2042 -0.1407  0.0407
21632W        W38479  13.967   7.137   2.628  0.0122  0.1875  0.0396
21633W        W38480   4.833   4.138   1.383  0.1076 -0.0141  0.1477
21634W        W38481   7.818  10.715   4.800  0.2654  0.3716 -0.0354
21635W        W38482   1.548   4.548  12.804 -0.0376 -0.2305  0.2133
21636W        W38483  10.486   0.825  11.720 -0.2566  0.1434 -0.4516
21637W        W38484  15.380   1.579  11.889 -0.2398  0.1840 -0.2740
21638W        W38485  13.939  10.789  12.189 -0.0819 -0.3256 -0.2679
21639W        W38486  17.869   4.055  12.225  0.0790 -0.0156 -0.0381
21640W        W38487  14.112  16.795   0.885 -0.1845 -0.0086 -0.0210
21641W        W38488   6.464  14.508   1.260 -0.0693  0.1029 -0.0204
21642W        W38489   3.289  15.713   1.984 -0.3823 -0.0174  0.3199
21643W        W38490  16.487   2.881  12.475  0.0304  0.1832 -0.2002
21644W        W38491   3.723   5.618  13.652  0.3206  0.3305  0.0525
21645W        W38492   3.587  11.269  14.490  0.0431 -0.0234 -0.0336
21646W        W38493  11.792  12.824  13.593 -0.1194  0.2984  0.4627
21647W        W38494  12.261   2.569  12.751  0.2430 -0.1574 -0.2329
21648W        W38495   6.641   2.053   3.080  0.1672  0.1285  0.1430
21649W        W38496   6.684   2.297   3.572 -0.5004  0.1954 -0.0239
21650W        W38497   3.643   5.758   5.413  0.1539 -0.0278 -0.1651
21651W        W38498   8.858  11.668  15.424 -0.0829  0.2363 -0.0654
21652W        W38499   0.797  15.351   5.400 -0.0796 -0.0254  0.0056
21653W        W38500  11.780   5.783   3.140  0.1615 -0.1079 -0.1889
21654W        W38501  16.661  10.085   3.213 -0.4297  0.0995 -0.1843
21655W        W38502   1.027   6.801  15.658  0.0215 -0.1235 -0.0307
21656W        W38503   4.954  11.394  14.456 -0.0036 -0.2157 -0.0716
21657W        W38504   2.156   1.099  14.306  0.0199  0.1055 -0.1816
21658W        W38505  12.727   6.634  16.186  0.1044  0.2038  0.2266
21659W        W38506  13.325   1.853  15.688 -0.0826  0.0829  0.1361
21660W        W38507   8.688  13.666  12.974  0.1103 -0.1591 -0.0073
21661W        W38508   9.433  15.968  13.133  0.1086 -0.0369  0.0317
21662W        W38509   3.412   2.600  13.846  0.0958  0.0803 -0.0410
21663W        W38510   5.255   9.473   4.974  0.5524  0.0247  0.0780
21664W        W38511   0.105  16.823   1.648 -0.1884 -0.5000  0.1071
21665W        W38512  15.989   3.259   5.577  0.0786  0.4513  0.1030
21666W        W38513  14.078  10.835   1.514  0.0808 -0.0614 -0.3687
21667W        W38514   4.406   2.351   1.061 -0.1241 -0.0659 -0.0512
21668W        W38515   1.660   3.562   0.443  0.1417  0.3077  0.3577
21669W        W38516   1.910   0.174   4.490 -0.1590  0.4075  0.1016
21670W        W38517   4.441   2.028   5.588  0.0725  0.1356 -0.2116
21671W        W38518  17.311  12.775   0.781 -0.1670 -0.1632 -0.0980
21672W        W38519   2.286   9.006  12.071 -0.3840  0.0668 -0.0454
21673W        W38520   0.540   6.966   3.990  0.3531 -0.2190  0.1269
21674W        W38521  13.603   1.670  11.450 -0.1348  0.0612 -0.2093
21675W        W38522   7.165  16.066   0.311 -0.0184  0.2497 -0.1633
21676W        W38523   7.645  17.353   4.734 -0.1148  0.0075  0.3630
21677W        W38524  13.465  14.653   2.988  0.0139  0.0091 -0.1483
21678W        W38525  16.139  17.417   4.360  0.0508 -0.1668  0.0579
21679W        W38526   7.231  13.123   2.765 -0.3439 -0.0234  0.1238
21680W        W38527  10.201  14.586   6.064 -0.0814 -0.1082 -0.0161
21681W        W38528  14.106   0.630  13.169 -0.2528 -0.0594 -0.2505
21682W        W38529  16.430   9.955  13.729  0.0542  0.0200 -0.2119
21683W        W38530   3.691   2.842  16.355 -0.0742 -0.0129  0.0583
21684W        W38531   8.210  17.407  14.453  0.1644  0.0453  0.0512
21685W        W38532  12.351  17.952   5.675  0.1617 -0.1348  0.2282
21686W        W38533   8.279  17.602   3.200 -0.2958 -0.0762 -0.1079
21687W        W38534  12.471   8.493  14.127 -0.1675 -0.0055 -0.0241
21688W        W38535   2.220  17.528   1.712 -0.2446 -0.2538  0.0297
21689W        W38536   8.432  11.558   4.892 -0.1142  0.0445  0.0675
21690W        W38537  14.263  13.703   3.068  0.0469 -0.2835  0.1145
21691W        W38538  14.051   3.125  13.656  0.4098  0.2894 -0.0147
21692W        W38539   2.811  13.320  11.900  0.2247 -0.0609 -0.1825
21693W        W38540   2.809   4.246   0.191  0.2972  0.1326  0.1048
21694W        W38541   5.391  13.775   4.069 -0.1063 -0.2517 -0.2316
21695W        W38542   3.949   2.553  12.972 -0.0982 -0.0682  0.0120
21696W        W38543   8.448  16.482   3.489 -0.4142 -0.2042 -0.2759
21697W        W38544  10.413  16.375  13.120 -0.2514  0.0410 -0.1467
21698W        W38545  11.906   6.160   0.178  0.1651  0.1850 -0.2154
21699W        W38546   0.761   5.478   2.238  0.5195 -0.2500  0.1971
21700W        W38547  16.231  10.003  15.868  0.1707  0.1075 -0.1128
21701W        W38548  14.025  11.543   2.741  0.1685 -0.3114  0.1045
21702W        W38549  11.297   2.178   1.260  0.0039  0.0467  0.3695
21703W        W38550  11.402  18.074  16.508 -0.2228 -0.3101 -0.1194
21704W        W38551  11.151   5.087   2.139  0.0452  0.0802 -0.1720
21705W        W38552  10.546   5.095  15.209  0.0806 -0.5254 -0.2405
21706W        W38553   3.008   6.474   4.930 -0.0646 -0.1192 -0.0617
21707W        W38554   8.515   2.839  16.183  0.2917  0.3561  0.0173
21708W        W38555   8.799  15.604  12.183  0.1022 -0.0165 -0.1383
21709W        W38556   2.128   2.285  13.387  0.2982 -0.0086  0.0875
21710W        W38557   3.645   4.429  15.122  0.0505 -0.1663 -0.0039
21711W        W38558  15.682   4.583  15.153  0.0437 -0.1686  0.3152
21712W        W38559   3.869   8.169   5.096  0.1141  0.0539  0.0296
21713W        W38560   1.952   3.021   3.775  0.0073  0.0062  0.0048
21714W        W38561  17.307  16.527  13.212  0.1370 -0.1351 -0.1390
21715W        W38562   2.396   2.101  15.402  0.1729  0.3821 -0.0709
21716W        W38563  16.777   7.251   0.886 -0.1575 -0.0390 -0.1515
21717W        W38564   3.270  16.563  13.389 -0.0377  0.1131 -0.1993
21718W        W38565   2.123   7.083  11.789 -0.0433  0.2546  0.1997
21719W        W38566  10.200  12.037   2.936 -0.1726 -0.1770 -0.0830
21720W        W38567   3.688  10.137   5.800 -0.1107  0.0949 -0.0213
21721W        W38568  16.728  12.044  15.287 -0.2310 -0.0400 -0.4432
21722W        W38569   2.708   4.775   1.657  0.2475 -0.0871 -0.0744
21723W        W38570   7.638   8.532   4.967  0.1097  0.0599  0.0139
21724W        W38571  17.755   3.176   5.412 -0.0606 -0.1269  0.1148
21725W        W38572   8.840   7.995  16.601  0.0350  0.0576  0.4285
21726W        W38573   8.797  13.266  12.672  0.0446 -0.1764  0.0795
21727W        W38574   5.838   7.601  13.002 -0.1910  0.2074 -0.0762
21728W        W38575   0.479  11.217   2.626  0.1386  0.3320 -0.0791
21729W        W38576   0.925   3.860   0.348 -0.1176  0.1976 -0.1790
21730W        W38577  12.027   5.217  16.285 -0.1448 -0.0340 -0.2973
21731W        W38578   9.659   3.090   4.388  0.0619 -0.1723  0.1776
21732W        W38579   7.228  13.356   2.283  0.0246  0.1350 -0.1408
21733W        W38580   6.795  13.755  12.733  0.1493 -0.0053 -0.0423
21734W        W38581   5.337   7.137  12.003 -0.2497 -0.0750 -0.0878
21735W        W38582  17.007   7.320  14.535  0.0203  0.1064 -0.2025
21736W        W38583   1.763   1.297  15.484  0.0258  0.1139  0.1384
21737W        W38584   4.594  14.071  12.076  0.1903 -0.1372 -0.1781
21738W        W38585   5.986   4.919   1.189  0.3214  0.1653 -0.0061
21739W        W38586  16.610   1.035  14.859  0.0031 -0.0467  0.0269
21740W        W38587  17.167  10.171   3.361  0.0513  0.2550  0.1379
21741W        W38588   3.246   5.190   5.518 -0.0288  0.2749  0.1797
21742W        W38589  17.142  17.125  11.164  0.0728 -0.1429 -0.2132
21743W        W38590   4.918   6.235  13.227  0.2381  0.3379 -0.0803
21744W        W38591   0.034   8.555  14.968  0.0268 -0.1406  0.2022
21745W        W38592  12.535  10.138  12.729  0.2286 -0.0790  0.1214
21746W        W38593   7.347  16.468  15.807  0.0943 -0.0342 -0.1244
21747W        W38594   0.801   3.260  14.447  0.2537  0.0978  0.0060
21748W        W38595  15.184  14.438   2.290 -0.3714 -0.1231  0.0691
21749W        W38596   4.564   8.814  15.604 -0.1766  0.1652 -0.1119
21750W        W38597  14.029   3.211   1.931  0.0495  0.1739  0.4307
21751W        W38598   7.772  17.967  14.864 -0.2663  0.0575  0.3881
21752W        W38599  17.183   6.398  15.512 -0.1116 -0.2580  0.1642
21753W        W38600  17.575   8.369  16.658 -0.1856 -0.0602  0.1577
21754W        W38601   8.627  17.633  14.598  0.2485  0.0817  0.1319
21755W        W38602   6.567  12.956   1.660  0.2448 -0.2910 -0.4174
21756W        W38603  16.034   1.837   3.621 -0.0878 -0.0403  0.1399
21757W        W38604  13.178  14.143   1.643  0.1707  0.1603  0.1078
21758W        W38605  17.633  13.605   0.962 -0.0336 -0.1756  0.0156
21759W        W38606  14.839  12.369  13.735 -0.0320  0.0090  0.2061
21760W        W38607   7.208   2.050  15.229 -0.0748 -0.1382  0.2254
21761W        W38608  16.076  12.783  12.017 -0.1245  0.0160 -0.3796
21762W        W38609   6.484   6.524   0.407 -0.2454  0.0083  0.0008
21763W        W38610  10.044   0.103   1.443 -0.0927 -0.4935 -0.1969
21764W        W38611   0.722  10.617  12.827 -0.1606 -0.1614 -0.0056
21765W        W38612   9.792   0.493   5.052  0.0062  0.3123  0.1375
21766W        W38613   5.655  15.115  14.603  0.2585  0.1403 -0.0087
21767W        W38614  10.405   5.583   4.453  0.0247  0.0356  0.2977
21768W        W38615  12.920  13.857   3.565  0.3190  0.1844 -0.0462
21769W        W38616   7.173  16.535   3.782  0.1089 -0.3867  0.2138
21770W        W38617  10.557   2.645   4.637 -0.2994 -0.1405  0.1307
21771W        W38618   6.242   8.355   3.367 -0.0042  0.1131  0.2765
21772W        W38619  14.501  13.941   0.756  0.0154  0.1589 -0.1269
21773W        W38620  13.759   6.966  15.581 -0.2099 -0.1004 -0.1607
21774W        W38621   9.866  11.903   3.986 -0.2971 -0.1701 -0.0508
21775W        W38622   2.895   9.787  11.735  0.1305  0.0820  0.0650
21776W        W38623   1.323   5.526   2.916  0.2850 -0.1575 -0.0623
21777W        W38624  13.211   5.496  14.576  0.1321 -0.2507  0.1104
21778W        W38625   1.170   6.316   0.598 -0.3164 -0.2226  0.1288
21779W        W38626  17.773   9.429   5.695  0.4221  0.1106 -0.0297
21780W        W38627   8.503   4.828   5.246 -0.0492  0.0088  0.1444
21781W        W38628  17.924  14.108   3.671  0.0399 -0.1439 -0.0871
21782W        W38629  10.776  10.857  11.951  0.1109 -0.1660  0.3506
21783W        W38630   8.531   3.062   1.790  0.0790  0.0441 -0.2522
21784W        W38631   7.877  10.031   1.397 -0.1769 -0.0634  0.2427
21785W        W38632   8.894   6.750   1.699  0.0004  0.1382 -0.1594
21786W        W38633  17.640  13.997   4.983 -0.1497 -0.1182 -0.0751
21787W        W38634   2.207  13.572   0.988  0.2824  0.1811  0.0844
21788W        W38635  10.325   5.215  14.773 -0.2887  0.0913  0.2566
21789W        W38636  16.015  14.086   1.532  0.0543 -0.0192 -0.0973
21790W        W38637  10.604   3.653  16.286  0.0786 -0.1684  0.0293
21791W        W38638   8.258  11.030   5.782  0.6264 -0.2607  0.1202
21792W        W38639  16.285   5.604   5.653  0.3916 -0.0219  0.1273
21793W        W38640   0.007  15.688   4.368 -0.0447  0.2357 -0.2651
21794W        W38641  11.776  17.530  14.003 -0.2142  0.2025 -0.0387
21795W        W38642   4.855   2.592   3.865 -0.0008  0.2345 -0.0054
21796W        W38643  13.565  13.417  15.497  0.1634 -0.0888  0.3141
21797W        W38644   9.774  11.986   5.262  0.2460  0.1293  0.0398
21798W        W38645   6.218   4.802  11.969  0.1438 -0.3016  0.1627
21799W        W38646  14.500  15.893  12.476  0.1558  0.0087  0.1718
21800W        W38647   0.389   7.305   2.146 -0.1492 -0.1813 -0.0958
21801W        W38648   6.141  11.383   1.939 -0.2687 -0.0314 -0.0063
21802W        W38649   1.440   2.261  13.906 -0.3904  0.3556  0.0414
21803W        W38650  13.984   2.706   3.263  0.0184 -0.0024  0.0953
21804W        W38651   6.512   1.519  10.998  0.1838  0.0029 -0.3871
21805W        W38652  16.302  12.002  11.663 -0.0895  0.2614  0.1817
21806W        W38653   2.448   3.420   2.982 -0.1987 -0.0765 -0.1816
21807W        W38654   2.495  15.055  12.403  0.2010  0.0083 -0.3719
21808W        W38655   9.844  11.927   1.617  0.1758 -0.0750 -0.0257
21809W        W38656  11.018   4.397  14.979  0.1363  0.2037  0.2364
21810W        W38657   3.937  17.405  15.622 -0.1383 -0.1054  0.3161
21811W        W38658  10.524   3.856   5.201  0.1834  0.0279  0.1421
21812W        W38659  12.960   6.631   1.497  0.0288 -0.0815 -0.3140
21813W        W38660  16.820  11.126   4.008  0.1246  0.3097  0.0063
21814W        W38661   1.490   0.348   2.850 -0.0137  0.0345  0.1748
21815W        W38662   5.601  10.590   1.808 -0.3573 -0.0054  0.0071
21816W        W38663  15.598  10.832   4.219 -0.0817 -0.0626 -0.0129
21817W        W38664   1.119  12.120  13.593  0.1749 -0.0941  0.2108
21818W        W38665   0.027   9.106  14.935  0.2473  0.2121 -0.1218
21819W        W38666   4.690  18.007   4.956 -0.0282 -0.2498 -0.1376
21820W        W38667  14.523   2.940  13.842 -0.0746 -0.0599  0.0625
21821W        W38668  15.889   7.218   0.095 -0.1581 -0.1059  0.0400
21822W        W38669   9.575   6.146   4.608 -0.0197  0.2644  0.0821
21823W        W38670  11.629  11.066   5.841 -0.2683 -0.2776  0.1685
21824W        W38671   8.801  13.099  13.931  0.1323 -0.1114  0.0476
21825W        W38672   5.431  11.358  14.216  0.2834 -0.0489 -0.2579
21826W        W38673  10.751   1.659   4.015  0.2279  0.1155  0.2500
21827W        W38674  15.878  13.833   2.578 -0.2775  0.0262  0.1481
21828W        W38675  12.732  11.930   1.139  0.0373  0.0784 -0.1940
21829W        W38676   8.983   9.134   2.859  0.1161  0.0027 -0.0952
21830W        W38677   6.819   7.846  15.640  0.0815 -0.0914  0.0616
21831W        W38678   9.432   7.315  12.637  0.1704 -0.2540  0.2016
21832W        W38679   4.381   4.988   1.167 -0.1585 -0.1195 -0.2014
21833W        W38680  14.291  16.203  16.398  0.0618 -0.1609  0.0433
21834W        W38681  17.180   7.691   0.332 -0.0645  0.0912  0.0509
21835W        W38682   2.967   5.060  16.385 -0.0445  0.2048  0.0054
21836W        W38683   8.418  14.894  13.727 -0.1547  0.0512  0.1259
21837W        W38684   0.976   5.536  15.081  0.0203  0.2990  0.5398
21838W        W38685   3.814  16.884  15.541  0.1153  0.0584  0.1078
21839W        W38686  15.656   5.454   1.406  0.0250  0.2058  0.1076
21840W        W38687  12.453   9.408  11.542 -0.0296 -0.1768 -0.1549
21841W        W38688  10.850  14.824  15.683 -0.0991 -0.0589  0.1311
21842W        W38689   2.322  17.961   4.638 -0.0697  0.0823  0.0120
21843W        W38690  13.670  15.083   3.051  0.1259  0.1260  0.0717
21844W        W38691  14.583   7.456   5.957 -0.1995 -0.0469 -0.0150
21845W        W38692  10.530  16.442   3.057 -0.1858 -0.0338  0.0989
21846W        W38693   1.050   8.393   1.632 -0.0242  0.0754 -0.0918
21847W        W38694   2.525   1.530   4.425  0.0452 -0.0988  0.0042
21848W        W38695  13.204  13.807  11.479 -0.0445  0.0463 -0.3825
21849W        W38696   3.673  12.069   2.817 -0.1002 -0.0650  0.2525
21850W        W38697   0.715   2.277   1.259  0.3825 -0.0479 -0.4512
21851W        W38698  15.927  13.532   6.371  0.0773  0.0478 -0.0070
21852W        W38699   7.924  13.960   2.483  0.0056 -0.0481  0.2076
21853W        W38700  16.364  10.021   1.251  0.1443 -0.0968 -0.0401
21854W        W38701   5.401   3.424  16.374  0.2594 -0.2742  0.0703
21855W        W38702  13.138   8.652   6.147  0.1836 -0.0942  0.2338
21856W        W38703  17.407  14.771  13.496  0.0320  0.0482  0.2176
21857W        W38704  18.046   7.238   4.539 -0.1311 -0.2332 -0.0199
21858W        W38705   6.750   3.652  14.024  0.1204  0.0869  0.0699
21859W        W38706  14.242   7.409   0.029 -0.0186  0.0182 -0.0037
21860W        W38707   1.076  10.971  12.059  0.0458  0.0738 -0.0815
21861W        W38708   6.607   6.593   3.011  0.1141  0.1166 -0.1669
21862W        W38709   2.824   6.902   2.464  0.0886  0.3732  0.0929
21863W        W38710  16.710   4.088   0.371 -0.1794  0.0950 -0.0718
21864W        W38711   3.073   9.913  16.426  0.0805  0.0274 -0.1170
21865W        W38712   2.944  12.236   1.728 -0.3049 -0.0337 -0.1916
21866W        W38713  17.191   8.983  12.155 -0.2301  0.0607 -0.1627
21867W        W38714   4.225  11.340  15.076 -0.1348  0.0819 -0.1133
21868W        W38715   6.912   1.630  14.380 -0.1719 -0.2248 -0.0854
21869W        W38716  11.738  16.840   0.104 -0.1479 -0.0512  0.1230
21870W        W38717   1.892   9.283  12.029  0.2660 -0.0638 -0.0166
21871W        W38718   1.205   9.639   4.827  0.0295  0.0171 -0.0051
21872W        W38719  10.252  16.937   3.835 -0.0935 -0.1108  0.0317
21873W        W38720   0.679   3.775   2.728 -0.0229  0.0503 -0.1686
21874W        W38721  13.340  14.305   3.896 -0.0415  0.0293 -0.0680
21875W        W38722  12.629   5.703   2.401 -0.2267 -0.3303  0.0184
21876W        W38723  11.338  11.806  15.458  0.3916  0.3440  0.0335
21877W        W38724   6.587   2.134  16.506  0.1257  0.1377 -0.2023
21878W        W38725  12.280   4.007  14.012 -0.2956  0.1854  0.1870
21879W        W38726   6.494  10.632  13.405  0.3165  0.4067  0.1780
21880W        W38727   4.267   0.111   4.627  0.1085  0.1098  0.0384
21881W        W38728  16.785   3.241  15.301  0.1013 -0.6115 -0.4574
21882W        W38729   0.548  12.207  13.683 -0.0215 -0.2746 -0.0716
21883W        W38730  10.105  16.325   4.794  0.3850 -0.1609  0.1346
21884W        W38731   9.245   8.233   5.704  0.2013  0.0978 -0.0513
21885W        W38732   9.990   4.413  16.010  0.0637 -0.0967 -0.0903
21886W        W38733   0.521  10.314   4.823  0.3931 -0.0203 -0.0136
21887W        W38734  10.473   1.404  12.011 -0.0546  0.0557 -0.1155
21888W        W38735   8.979  15.994  11.867  0.3712 -0.1405 -0.0920
21889W        W38736  14.803   7.409  14.724 -0.0571 -0.0626  0.1396
21890W        W38737  14.887  14.307   1.855 -0.1973 -0.0749 -0.4062
21891W        W38738   0.933  13.831   4.850 -0.0624  0.1484  0.1036
21892W        W38739   0.826   2.357  13.573  0.2067  0.0717 -0.1911
21893W        W38740   9.809   5.471   3.757  0.1265  0.2808 -0.0251
21894W        W38741  16.156   4.431  16.075 -0.1916  0.0322 -0.2534
21895W        W38742   2.262  14.354   0.797  0.1124  0.1727  0.4923
21896W        W38743   1.614   1.160   1.780  0.2072 -0.1862  0.0428
21897W        W38744   1.799   0.417   0.957 -0.0049  0.2123 -0.1142
21898W        W38745  17.952   7.680   4.037 -0.1039  0.1242 -0.1280
21899W        W38746   7.606  16.860  15.902 -0.1444 -0.0860  0.0599
21900W        W38747   2.837   0.074   3.871 -0.0743  0.0312 -0.0662
21901W        W38748   7.443   8.071  16.677  0.1185  0.1318  0.0101
21902W        W38749  10.890  10.883  12.430  0.0229 -0.2179 -0.1880
21903W        W38750  12.990  13.529   2.275  0.0129  0.0351 -0.1015
21904W        W38751   9.103   8.187  16.201  0.2006 -0.1500 -0.2485
21905W        W38752  15.278  13.366  16.586  0.2447  0.1130 -0.0842
21906W        W38753  11.650   2.365   3.085 -0.3401  0.2507 -0.1224
21907W        W38754   2.736  12.810  12.017  0.0967 -0.0282  0.1489
21908W        W38755   6.461  14.489   4.378 -0.2116 -0.2614 -0.1065
21909W        W38756   9.439  15.066  11.997 -0.1098 -0.0344  0.1162
21910W        W38757   7.923  11.091   6.401 -0.5058  0.1871  0.4442
21911W        W38758  13.799  13.122  11.460 -0.2454 -0.2250  0.0105
21912W        W38759  16.573  16.053   5.642 -0.2159 -0.1472 -0.2742
21913W        W38760   4.072  16.609   2.955 -0.1185 -0.0186 -0.1119
21914W        W38761  16.141  11.491   0.745  0.0601 -0.0127  0.2641
21915W        W38762   1.120   2.888   3.062 -0.2287 -0.2521 -0.2750
21916W        W38763  16.979  15.616   4.846 -0.0284 -0.0128  0.3231
21917W        W38764   1.662   2.200   0.210  0.1026  0.1424  0.0733
21918W        W38765   0.967  14.293   4.007  0.0696 -0.1078  0.1308
21919W        W38766  12.046  15.058   0.569  0.2285  0.1979  0.0144
21920W        W38767  14.997   3.452   4.513 -0.0581 -0.2029 -0.0685
21921W        W38768  10.020   8.747  10.676 -0.0721 -0.2026  0.1787
21922W        W38769   1.411  10.137   4.970  0.3360 -0.2712 -0.1940
21923W        W38770   0.833  17.123  16.219  0.3935  0.0784 -0.2378
21924W        W38771  13.272   2.177  14.297 -0.0214  0.1347  0.4263
21925W        W38772  14.653   0.632  13.957  0.0287  0.0519  0.0815
21926W        W38773   6.242   9.454   5.110 -0.0818  0.0836  0.2990
21927W        W38774   6.441  16.445   3.024 -0.4590 -0.0693  0.1606
21928W        W38775   7.961   5.048  11.985 -0.0633  0.0958  0.1235
21929W        W38776  17.609  16.497  11.849 -0.0939  0.1712  0.0989
21930W        W38777  12.665  10.072   2.000  0.2870  0.1906 -0.1000
21931W        W38778   6.697   8.450  16.329 -0.2071  0.2498  0.1021
21932W        W38779  10.690   9.103  13.885  0.0744  0.1658  0.2667
21933W        W38780   0.687  13.064   0.734 -0.0429 -0.2344 -0.2468
21934W        W38781   0.756  13.742  15.266  0.1249  0.0874 -0.2950
21935W        W38782   6.357  17.502   5.371 -0.0655 -0.0882  0.2657
21936W        W38783   6.997   6.421  14.215  0.6454  0.2681  0.0167
21937W        W38784   2.943   9.915   1.368  0.1380 -0.2369 -0.2137
21938W        W38785   5.215   7.884  14.537 -0.1272 -0.0028  0.1963
21939W        W38786  17.813   3.202  11.841  0.1136 -0.1530 -0.2158
21940W        W38787   5.855   6.039  16.359 -0.1035 -0.2087 -0.2143
21941W        W38788  17.566  16.038   2.586  0.0116 -0.0981  0.0011
21942W        W38789  13.010   4.632  14.006  0.1229  0.2623  0.0986
21943W        W38790  11.530   6.507   0.919  0.3776  0.0992 -0.0215
21944W        W38791   8.268  11.429  15.649 -0.0564 -0.1824 -0.2634
21945W        W38792   7.348   3.603  15.668 -0.1593  0.0996  0.2529
21946W        W38793   1.335   5.177   2.061 -0.1551  0.1002 -0.0619
21947W        W38794  15.908   1.405   4.617  0.1161 -0.2713 -0.0133
21948W        W38795  17.326   7.289   0.045  0.2273 -0.0169  0.0468
21949W        W38796  15.752   1.808   2.404 -0.2705 -0.0089 -0.0523
21950W        W38797   0.805   7.580  11.870  0.0445 -0.0943 -0.0842
21951W        W38798  17.457   0.340   5.983  0.0444 -0.0641  0.2052
21952W        W38799   9.606  15.416  16.113  0.0543 -0.0966 -0.1004
21953W        W38800  11.934  13.617   0.825 -0.0664 -0.2951 -0.0876
21954W        W38801   4.094   0.529   4.473  0.1895  0.0750 -0.0085
21955W        W38802  17.808   7.251   3.239 -0.1386 -0.1922 -0.3729
21956W        W38803   8.661  15.527   4.104 -0.2425 -0.1814  0.1383
21957W        W38804  14.955   4.715   1.838  0.0670 -0.0754  0.0347
21958W        W38805  11.230  16.681  12.452 -0.1840 -0.1953  0.1064
21959W        W38806   2.785  13.914   1.561 -0.3665 -0.0637 -0.0834
21960W        W38807  10.332   8.774   4.328  0.2212 -0.1677  0.3520
21961W        W38808  16.395   2.269  13.215  0.0457 -0.1626 -0.1472
21962W        W38809  16.563  15.782   5.103  0.0289 -0.0570  0.0275
21963W        W38810  12.743   3.012  12.196  0.0774 -0.1662  0.2767
21964W        W38811   5.133   6.336   5.298  0.1746  0.1953  0.0026
21965W        W38812  15.435   5.943   3.576  0.0836 -0.2811  0.0372
21966W        W38813   3.426   6.486   0.409 -0.1724  0.1253 -0.0646
21967W        W38814  12.540  12.988   0.251 -0.3682  0.2903 -0.1627
21968W        W38815   9.947  12.154  13.354  0.5695  0.0205  0.0094
21969W        W38816  11.732   4.590  15.250  0.0168  0.0671  0.0713
21970W        W38817  15.374  16.977   0.594 -0.0649 -0.0023  0.0581
21971W        W38818  13.814  11.921  12.814 -0.1191  0.1595 -0.2784
21972W        W38819  10.349   4.315  14.108  0.4310  0.2036 -0.1964
21973W        W38820   3.876  13.426  12.034  0.1743  0.0923 -0.0547
21974W        W38821   9.491   9.045  13.358  0.0456  0.2329 -0.0583
21975W        W38822  12.861   8.089   5.108  0.2055 -0.1940 -0.2891
21976W        W38823   6.750  15.134  11.633  0.1644  0.5379  0.1731
21977W        W38824   7.345   6.901   3.037  0.0563  0.3523 -0.2988
21978W        W38825   4.080   8.874   1.469  0.1714 -0.1403  0.0784
21979W        W38826   0.464  10.554   0.784 -0.2572  0.1771  0.1549
21980W        W38827   2.611   3.147   6.121  0.0694  0.2000 -0.1546
21981W        W38828   3.147   8.906  12.079 -0.1949  0.1148  0.3215
21982W        W38829   1.938   4.716   0.494  0.0598  0.0655  0.0814
21983W        W38830  12.903   7.832  12.395 -0.0110  0.1350  0.1332
21984W        W38831   5.558   8.510  13.150  0.0808  0.2573 -0.0126
21985W        W38832  16.765  17.234  16.061 -0.0612  0.2040  0.0672
21986W        W38833  14.618   8.995   4.170  0.0737  0.2211  0.4441
21987W        W38834   3.684   1.053   2.832 -0.1718 -0.1777 -0.0563
21988W        W38835   9.775   2.778  12.567 -0.0504  0.0676 -0.3508
21989W        W38836   7.581   2.372  15.333 -0.1822  0.4673 -0.1606
21990W        W38837  14.427  11.495   3.561 -0.0992 -0.0786  0.0791
21991W        W38838   1.695  10.128   2.066 -0.0525  0.3412 -0.1693
21992W        W38839  13.417  17.655  12.169 -0.2098  0.0189 -0.0620
21993W        W38840   5.320   2.942   1.290 -0.1481  0.1779  0.0869
21994W        W38841  14.984   5.831  16.498  0.1780  0.1440  0.0582
21995W        W38842   3.620   9.032   2.125 -0.2895  0.3929  0.2959
21996W        W38843  10.362  10.810   2.107 -0.0004 -0.1660  0.3866
21997W        W38844  12.305   8.262   3.447  0.0428  0.3404  0.0436
21998W        W38845  13.239   6.959  15.831  0.2038  0.2020  0.0320
21999W        W38846  12.882   7.251   5.501  0.1597  0.0352 -0.3759
22000W        W38847   1.569   1.899   5.022  0.1507  0.2351  0.1983
22001W        W38848  12.835   7.009   3.700  0.0924  0.0809 -0.2538
22002W        W38849  16.975  11.716  15.976 -0.3512  0.4222  0.2777
22003W        W38850  10.814  10.754  15.429 -0.2932  0.1663  0.1125
22004W        W38851   1.621  17.635  16.144 -0.0292 -0.1227  0.0064
22005W        W38852   5.234   5.902  13.057 -0.1086 -0.0037 -0.0198
22006W        W38853   4.705  17.385   1.960 -0.1462  0.1573 -0.0568
22007W        W38854   3.253   7.212   1.982 -0.1105 -0.1442 -0.4922
22008W        W38855  14.081  14.143  10.628  0.0122 -0.0902 -0.0185
22009W        W38856   8.677   0.956   4.218 -0.2654 -0.0829  0.1488
22010W        W38857   3.736   9.526   1.203  0.1072 -0.2324 -0.1250
22011W        W38858   7.445  15.535   2.624 -0.1038 -0.0953  0.0556
22012W        W38859   2.478   9.714   2.956  0.0904 -0.0338  0.0210
22013W        W38860  10.687   0.591   3.993 -0.0691  0.0863  0.2459
22014W        W38861   4.981   0.716  14.799 -0.0724  0.1390  0.0430
22015W        W38862   8.883  16.517   0.139  0.0314 -0.3580  0.2403
22016W        W38863   9.468   8.066  15.882 -0.1459 -0.1431 -0.2900
22017W        W38864   8.722   6.922  14.762  0.2555  0.1930 -0.1555
22018W        W38865   7.710   7.642  12.885 -0.0179 -0.1119 -0.1309
22019W        W38866  11.914  11.300   5.434  0.0011 -0.0185  0.2857
22020W        W38867   3.431   4.050  14.199 -0.1871 -0.2846 -0.0845
22021W        W38868  11.318   2.923  13.566  0.0703  0.0545 -0.1482
22022W        W38869  14.724   6.460   4.157  0.0373  0.1092  0.0279
22023W        W38870  13.306  17.281  16.357  0.2053  0.0825 -0.0275
22024W        W38871   3.409   9.326   4.393 -0.1888  0.2010 -0.0005
22025W        W38872  14.024   8.672  12.144  0.0607  0.1841 -0.1653
22026W        W38873   9.699   9.871   4.224  0.0936  0.2339  0.0917
22027W        W38874  12.095  17.393   2.257  0.0222 -0.3146  0.0105
22028W        W38875   1.510   5.812   6.074 -0.0513  0.1086 -0.0605
22029W        W38876  10.224  17.823  15.751  0.0513 -0.2927 -0.2156
22030W        W38877   7.729  14.854  16.278  0.0984  0.3192  0.2009
22031W        W38878  11.704  16.478  15.448 -0.0191 -0.0384 -0.1013
22032W        W38879  12.452  10.542  14.720  0.2573 -0.2134 -0.2993
22033W        W38880  10.863   6.578   1.702  0.0144 -0.1495  0.1044
22034W        W38881  17.328   5.352  14.968 -0.0791  0.2333 -0.1460
22035W        W38882   6.582  15.416  13.128 -0.0133 -0.0808 -0.0749
22036W        W38883   1.854  12.261  13.864 -0.1315 -0.1704  0.0979
22037W        W38884  12.737   7.049   1.714 -0.0603 -0.0499 -0.2921
22038W        W38885   1.049  11.585   3.609 -0.0653 -0.1012  0.0624
22039W        W38886   3.735   1.446   0.343  0.3489 -0.1424 -0.0560
22040W        W38887  11.321   9.115   4.332 -0.0013 -0.0450  0.1333
22041W        W38888   9.282   4.023  12.384  0.2926  0.1114 -0.1856
22042W        W38889   8.053   2.429   0.443  0.4096 -0.1868 -0.1930
22043W        W38890  11.868   5.491  14.750  0.0751  0.0507  0.2329
22044W        W38891   2.594   4.498   1.137  0.1050 -0.1982 -0.0268
22045W        W38892  13.916   5.343   3.465 -0.1035  0.0966  0.0508
22046W        W38893   9.598   4.278  15.716 -0.0824  0.0792 -0.0160
22047W        W38894   7.866   2.536  11.659 -0.1652 -0.0766  0.0772
22048W        W38895  11.640   8.888   0.191 -0.0350  0.3433 -0.1031
22049W        W38896  15.475   7.942  16.438  0.2255 -0.0731  0.0062
22050W        W38897  12.051   2.669   1.301  0.1549 -0.0170  0.0963
22051W        W38898   2.142  17.956  11.704  0.1979 -0.5600  0.1906
22052W        W38899   3.439   1.318   1.618 -0.1534  0.1258 -0.1343
22053W        W38900  12.589  13.940  15.898 -0.0481  0.0083  0.0604
22054W        W38901   5.031  13.491  11.736  0.1532  0.0128 -0.1165
22055W        W38902  12.930   2.566  13.057 -0.0349  0.0091 -0.0785
22056W        W38903   7.483  11.126  15.743  0.2044  0.1929  0.1837
22057W        W38904  14.809   5.597  15.683 -0.1762  0.0002  0.2368
22058W        W38905   3.273  14.671   4.095  0.0786  0.1391  0.1738
22059W        W38906   2.888   9.459   1.606 -0.2861 -0.1591 -0.1923
22060W        W38907  14.612   3.007  16.665 -0.2009 -0.3386  0.1086
22061W        W38908  12.350   1.120  13.898  0.1621 -0.1494  0.2717
22062W        W38909   1.934   2.319   0.617 -0.0172  0.0645 -0.4160
22063W        W38910   2.589   4.558   4.568  0.0427  0.2243 -0.2338
22064W        W38911  10.334   1.785  15.813  0.0361  0.0075 -0.1384
22065W        W38912   2.476   6.960  14.093  0.2490  0.2073 -0.1554
22066W        W38913   5.309   7.735   5.257  0.3039  0.0567 -0.0682
22067W        W38914   6.234  10.114  15.240 -0.1362  0.0046  0.3247
22068W        W38915  11.818   4.308  12.690 -0.1249  0.2467  0.2155
22069W        W38916   7.649  13.479  14.036 -0.1009  0.0918 -0.0133
22070W        W38917   8.548  15.070   3.386  0.1756 -0.4334 -0.0054
22071W        W38918   3.186   0.047   4.923 -0.1592  0.1840  0.1315
22072W        W38919  15.356  10.718  16.391  0.0327  0.0571  0.0255
22073W        W38920  13.151  12.653   0.944  0.1212  0.0086 -0.2821
22074W        W38921  11.759   7.803   1.031  0.1394  0.4078  0.1878
22075W        W38922  10.228  12.502  12.180 -0.0280 -0.0745  0.1757
22076W        W38923  16.889   4.538  11.365  0.1193  0.2073  0.1050
22077W        W38924  11.428  16.188   3.573  0.1033  0.0001 -0.0510
22078W        W38925   6.293   2.418  11.381  0.4524  0.0406 -0.2325
22079W        W38926   6.074  15.499  12.813 -0.0129  0.0567  0.1618
22080W        W38927   6.053  12.110  13.562  0.2623  0.3260  0.2111
22081W        W38928   3.565   0.417   3.457  0.2276  0.0301 -0.0783
22082W        W38929  16.881   1.406  12.025  0.0204 -0.0979  0.0311
22083W        W38930  17.803   3.128  12.371 -0.0335  0.0332  0.5042
22084W        W38931   4.823  10.571  12.184 -0.0499 -0.1625  0.2295
22085W        W38932   1.412   8.731   2.219 -0.1444 -0.2046 -0.2368
22086W        W38933  14.999  15.762   5.371  0.0541 -0.1855 -0.0403
22087W        W38934  17.136  13.666   6.002  0.0212  0.0156  0.0139
22088W        W38935  14.583   8.586   4.870 -0.1162 -0.2051  0.1419
22089W        W38936   4.563   8.506  14.664  0.1294  0.2322 -0.3059
22090W        W38937   8.108  13.368   4.573 -0.1863 -0.2076  0.2931
22091W        W38938   8.402   6.785   4.811 -0.3627  0.0644 -0.0996
22092W        W38939  17.542  12.634   2.066 -0.0744 -0.2108 -0.0994
22093W        W38940   1.648  10.578   1.056  0.0296  0.1722  0.1896
22094W        W38941   1.409  17.764   5.055  0.4011  0.1632 -0.0322
22095W        W38942   0.456   3.315   3.725 -0.0892  0.0129 -0.3177
22096W        W38943   3.408   1.379  16.339 -0.0544  0.2096  0.0138
22097W        W38944  12.977  17.474   1.966  0.0058 -0.0454  0.0527
22098W        W38945   1.767   5.395   2.287 -0.2254 -0.1155  0.0120
22099W        W38946   2.605  10.906   5.847  0.0383 -0.0537 -0.2050
22100W        W38947   2.222   6.912   5.517  0.0426  0.0241 -0.1974
22101W        W38948   9.119   8.026   0.695  0.2370  0.1545  0.0094
22102W        W38949   0.220  13.524  15.376 -0.0378 -0.1634  0.1380
22103W        W38950   8.450   7.163  15.693  0.0522 -0.1234  0.0305
22104W        W38951  13.771  12.656  15.242  0.0460 -0.2397  0.0896
22105W        W38952  13.571  10.001  13.552  0.2765 -0.1966 -0.0143
22106W        W38953   4.917   2.990   1.790 -0.0525 -0.3246  0.1466
22107W        W38954   5.624   8.955   1.036  0.1814  0.0329 -0.0750
22108W        W38955   8.767  10.622   3.436 -0.0105  0.1290 -0.1533
22109W        W38956  17.658  15.018   5.034 -0.1531 -0.1307 -0.0816
22110W        W38957   3.868  15.384   4.716 -0.1573 -0.1552  0.1040
22111W        W38958  11.430   5.994   1.191  0.0643  0.0228 -0.4510
22112W        W38959  15.675   0.787   0.096 -0.0385 -0.0895 -0.0700
22113W        W38960  10.612   7.835   2.312 -0.0210  0.0053 -0.0173
22114W        W38961   5.304  10.325   2.169 -0.1150  0.0631 -0.1512
22115W        W38962   1.492  11.365   1.530  0.2856  0.1457  0.0773
22116W        W38963   3.761  16.050   4.309  0.0686 -0.3082 -0.2482
22117W        W38964   6.372   9.795  14.661  0.3925 -0.4592  0.2639
22118W        W38965   8.137   4.243  15.967  0.2389 -0.1832 -0.1513
22119W        W38966  12.851   5.797  15.921 -0.1487  0.5230 -0.0699
22120W        W38967   3.665   5.273   5.302 -0.2313  0.3260 -0.0158
22121W        W38968   2.289   6.703  16.272 -0.0129 -0.1483 -0.0808
22122W        W38969  15.233   3.692  14.471  0.0593 -0.0016 -0.1480
22123W        W38970   1.764   0.109  15.642  0.0404 -0.1062  0.0096
22124W        W38971  10.147   1.695   2.084  0.1973 -0.2186  0.0553
22125W        W38972  13.434   6.183  16.570 -0.1077  0.3265 -0.2859
22126W        W38973   0.656  12.066   3.995  0.0323 -0.1736 -0.1789
22127W        W38974   0.557  13.322   2.948 -0.0256  0.3933  0.4114
22128W        W38975  10.915   9.798   2.319  0.0833  0.2701  0.1165
22129W        W38976   6.261   8.406  12.132 -0.1464  0.1788  0.2391
22130W        W38977   6.141   3.789  13.436  0.3039 -0.0865 -0.0725
22131W        W38978  10.221   0.345  15.898  0.1666 -0.0717 -0.2730
22132W        W38979   8.529   9.280   3.768 -0.1075  0.1811  0.1752
22133W        W38980  13.353   5.628  15.429  0.1433 -0.0502 -0.1656
22134W        W38981  10.730   3.183  15.917 -0.0022 -0.1625 -0.0387
22135W        W38982  14.949   6.716  14.841 -0.2062 -0.0556 -0.0284
22136W        W38983  16.055  13.469   2.279 -0.1067 -0.1084 -0.3152
22137W        W38984  15.951   2.179   5.133 -0.1106  0.0578 -0.1141
22138W        W38985  13.866  17.903  15.889 -0.2671  0.1700  0.1976
22139W        W38986  14.038   5.923   4.192  0.3924 -0.1048  0.3714
22140W        W38987  11.865  11.604   3.571  0.0135 -0.0584  0.3199
22141W        W38988   7.991   6.786  12.999  0.0735  0.0679 -0.1605
22142W        W38989   4.016   0.509   1.900 -0.1031 -0.0071  0.0979
22143W        W38990  12.676   4.686   3.411 -0.2432 -0.0661 -0.0094
22144W        W38991  12.941  12.168   0.000 -0.0141 -0.0489  0.0139
22145W        W38992   2.047  16.509  13.738 -0.2114 -0.0405 -0.3082
22146W        W38993   3.750   5.814  14.556  0.3190 -0.0588 -0.5246
22147W        W38994  12.098  13.318  11.870 -0.1101 -0.0401 -0.0674
22148W        W38995  11.867   6.704   1.742  0.1622  0.0664  0.0357
22149W        W38996   1.356  13.246   0.363 -0.1193 -0.2385 -0.3991
22150W        W38997  15.614   4.530  14.656 -0.0051  0.0076 -0.0117
22151W        W38998  13.632  16.371   4.271  0.1221 -0.1151  0.0699
22152W        W38999   0.318   7.197  12.925 -0.0315 -0.3696 -0.3126
22153W        W39000  12.996  17.599   1.470 -0.2269  0.2297 -0.1104
22154W        W39001   5.272   8.597   0.950 -0.3263 -0.0291  0.0920
22155W        W39002   8.931  11.255   1.786  0.0076  0.0670 -0.0408
22156W        W39003  13.278   0.939   5.312  0.0020  0.1314 -0.0220
22157W        W39004  10.910   4.758   0.495  0.2043 -0.0188  0.3573
22158W        W39005   8.140   8.195  15.970  0.2839  0.0013 -0.0740
22159W        W39006  10.654  10.598   2.520 -0.0317  0.0346  0.1239
22160W        W39007   6.949   8.158  16.678 -0.0159 -0.1463  0.0462
22161W        W39008   4.807   2.345  16.021  0.0084 -0.0652  0.1487
22162W        W39009   0.653  10.742  16.176  0.0626  0.0821 -0.3990
22163W        W39010  11.319   2.826   4.311 -0.1940  0.0421  0.0666
22164W        W39011  15.299   2.584  14.042 -0.2377  0.1101  0.0483
22165W        W39012  13.997  17.535  13.153  0.1334  0.0139 -0.3827
22166W        W39013   5.648   8.031  12.804 -0.4064 -0.0786 -0.0904
22167W        W39014   6.457   6.701   2.568  0.0940  0.0796 -0.2055
22168W        W39015  11.301   0.616   4.701 -0.0584  0.2520  0.1787
22169W        W39016   0.480  14.524  15.014 -0.0769  0.0461  0.0691
22170W        W39017   1.023  13.519  16.514 -0.0577  0.0428 -0.1465
22171W        W39018  17.932  10.473  12.366 -0.0990  0.1024 -0.2449
22172W        W39019  16.289   2.887  12.916 -0.0357 -0.0096  0.1711
22173W        W39020  12.354   0.674  11.118  0.0442 -0.1476  0.2515
22174W        W39021  13.780  11.823  14.633 -0.1201 -0.1025  0.0084
22175W        W39022  11.780  16.978   2.517 -0.2110  0.0764 -0.0575
22176W        W39023   5.356   4.363   0.573 -0.0998 -0.2256 -0.1313
22177W        W39024  15.615  17.321  12.094 -0.0781  0.2429  0.3236
22178W        W39025  17.460   2.584  16.274 -0.2373  0.1699 -0.0467
22179W        W39026   8.313   9.269   1.931 -0.2286  0.0968 -0.0756
22180W        W39027  17.179   3.645  15.518  0.0562  0.4291 -0.4894
22181W        W39028  17.530   7.129   2.431 -0.0874 -0.1931 -0.2383
22182W        W39029   2.437   8.785   5.622 -0.3787 -0.0610 -0.0372
22183W        W39030  10.775  17.892  12.623 -0.1078 -0.1914 -0.0193
22184W        W39031   2.400   9.992   1.478  0.2111 -0.0134 -0.2235
22185W        W39032  15.435   7.601   4.528  0.0088 -0.1568 -0.0280
22186W        W39033   8.427  14.568  11.259  0.0069  0.0155 -0.0693
22187W        W39034  10.283  17.976   1.064  0.0754  0.3015  0.0631
22188W        W39035   2.782  11.039   4.941  0.2809  0.1123 -0.2688
22189W        W39036  10.230   2.381  13.485 -0.0102  0.0644 -0.2583
22190W        W39037   5.891  12.263   2.646  0.1512  0.0536 -0.2889
22191W        W39038   9.639   4.103   3.739  0.0314 -0.1793 -0.0110
22192W        W39039   8.871   4.264  14.654 -0.5016  0.1926  0.0007
22193W        W39040   9.411  11.811   4.903 -0.0868 -0.0567  0.2549
22194W        W39041  13.868   4.995  14.200 -0.0010  0.0750 -0.0784
22195W        W39042   6.792   8.323  13.743  0.1912 -0.3170  0.2948
22196W        W39043   9.607   1.406  14.780 -0.3357 -0.1926  0.1030
22197W        W39044   9.962  13.165   2.124 -0.2031 -0.0880  0.0214
22198W        W39045   9.454   3.109  12.402 -0.3086 -0.1121  0.1131
22199W        W39046  10.574  11.544   0.909 -0.2414 -0.1466 -0.2869
22200W        W39047   2.162   1.543  13.972  0.1099  0.2728  0.2190
22201W        W39048   7.414  15.072   4.950 -0.0722  0.0488  0.0350
22202W        W39049   0.018   0.085  16.230  0.6207  0.0194  0.1032
22203W        W39050  15.832   7.106   0.572  0.0604  0.1083 -0.2133
22204W        W39051   7.026  13.962   2.692 -0.0308  0.0785 -0.0489
22205W        W39052   3.821  10.942  15.608  0.0993  0.0257 -0.1250
22206W        W39053   1.437  13.168  14.151  0.0716 -0.1284 -0.1360
22207W        W39054   5.271   9.978   5.715 -0.1172  0.1508 -0.1007
22208W        W39055  15.452  12.279  16.002  0.3518  0.1540 -0.2213
22209W        W39056  14.560   5.948   3.982  0.0222  0.2717  0.0731
22210W        W39057  10.773   9.865  14.054  0.1114  0.0835 -0.0693
22211W        W39058   0.534   9.371   0.416 -0.3042  0.0332 -0.1936
22212W        W39059   0.471  17.830  15.687  0.1845 -0.1710 -0.0574
22213W        W39060  13.563   4.927  16.048 -0.1386 -0.2761  0.3607
22214W        W39061   9.805  13.727   1.280 -0.1561 -0.1668 -0.0519
22215W        W39062  16.510   9.600   3.193 -0.0614 -0.1561  0.1597
22216W        W39063   6.371   8.811  13.943 -0.0366 -0.2111  0.1303
22217W        W39064   3.520   9.214  14.856  0.0401 -0.0390  0.1615
22218W        W39065  12.786  17.082   5.712  0.4330 -0.1822  0.2106
22219W        W39066   0.629  15.411  14.895  0.0125 -0.2772  0.1691
22220W        W39067  11.377   9.398  15.431 -0.1625  0.4149  0.3983
22221W        W39068   1.405   3.694  13.524  0.1439  0.0648 -0.1864
22222W        W39069  12.892  16.270  11.975  0.1350 -0.0848  0.0801
22223W        W39070   1.940   3.546   6.537 -0.1357 -0.1176  0.0357
22224W        W39071  17.610  17.442  12.962 -0.0272  0.0626 -0.0587
22225W        W39072  10.801  11.476   5.357  0.2840 -0.2558 -0.1198
22226W        W39073  11.885   1.324  11.926  0.2463 -0.1566 -0.1905
22227W        W39074   2.648  12.216  15.835 -0.0691 -0.0292 -0.0453
22228W        W39075   6.139  11.036  13.278 -0.1937 -0.2983  0.0816
22229W        W39076  11.851  11.329   0.573 -0.0116  0.2297 -0.1169
22230W        W39077   8.980  11.308  13.077 -0.1506  0.0282 -0.1865
22231W        W39078   2.566   1.472   3.215 -0.2819  0.0241 -0.1475
22232W        W39079  14.314   5.117  13.879  0.0009 -0.1976  0.1525
22233W        W39080  10.314   3.218   0.887 -0.0726  0.0298  0.0369
22234W        W39081   7.020  14.243   3.590  0.2181  0.1125 -0.0258
22235W        W39082   2.956  10.850   6.172 -0.3364  0.1690  0.1415
22236W        W39083   3.436  14.381  15.786 -0.2404  0.2871  0.2519
22237W        W39084  10.997   5.061  16.114  0.1857  0.0473 -0.1084
22238W        W39085   7.768   1.172  14.199 -0.1135 -0.0362  0.0887
22239W        W39086   5.195   7.976   0.532  0.0834  0.0846 -0.1141
22240W        W39087  16.011   2.816  15.875 -0.2555  0.0937  0.0859
22241W        W39088   2.321   6.871   3.969  0.0006  0.1932 -0.1150
22242W        W39089   9.411   7.676   0.811  0.0962  0.1238  0.3388
22243W        W39090  13.304  11.917   2.033 -0.1180  0.4033 -0.2303
22244W        W39091   2.450   5.121  12.112  0.0780  0.0460 -0.4682
22245W        W39092   6.396   1.223  13.764  0.0140 -0.1830 -0.4365
22246W        W39093   6.826   5.060  13.050  0.0304 -0.2661  0.2580
22247W        W39094  16.306  16.862   1.632  0.0467  0.1205 -0.1009
22248W        W39095  15.198   7.259  12.446 -0.0779  0.2667  0.0099
22249W        W39096  12.598   5.819  12.086  0.2276  0.0962  0.4513
22250W        W39097   9.650   2.660  11.999  0.1024  0.2256 -0.1146
22251W        W39098  16.558  17.312  11.896 -0.0234 -0.0778  0.4465
22252W        W39099   1.795  11.276  14.191  0.0877  0.1130  0.2893
22253W        W39100  16.287   1.031   3.020 -0.2502  0.0399  0.1496
22254W        W39101   1.638   9.008  14.653 -0.0275  0.0402  0.0819
22255W        W39102   9.412  11.232  14.747  0.0457 -0.2397 -0.0007
22256W        W39103   5.392   2.429   4.778  0.0268 -0.1229  0.1521
22257W        W39104   1.214  13.850   5.857 -0.0992  0.0018  0.0026
22258W        W39105  14.258  13.227  11.655 -0.0589  0.1578 -0.0830
22259W        W39106  11.724   6.117   0.659 -0.0458  0.2023 -0.3677
22260W        W39107   7.680  14.773   3.750 -0.0593 -0.1063 -0.0954
22261W        W39108  15.136   9.790   0.720  0.0225 -0.1304 -0.0244
22262W        W39109   4.441   7.967   0.070  0.1728 -0.0768  0.0950
22263W        W39110   6.442  17.146  13.100 -0.0360  0.2627  0.0828
22264W        W39111  12.642   0.296  11.337  0.3280  0.2221  0.0250
22265W        W39112   5.154   6.893   2.181  0.0668  0.0969 -0.1719
22266W        W39113   1.273  11.508   5.520 -0.0992  0.0201  0.0021
22267W        W39114  17.820   3.818   0.707  0.1114 -0.1354  0.0189
22268W        W39115  15.491  12.673   3.103 -0.0282  0.0613 -0.1875
22269W        W39116   6.487  12.091   0.700  0.0993  0.1408  0.0004
22270W        W39117   3.443   7.044   0.214  0.2488  0.1411 -0.0839
22271W        W39118  11.852  12.655   4.473  0.0251 -0.2767 -0.0088
22272W        W39119   9.667  15.595   4.994 -0.0990 -0.2025  0.0501
22273W        W39120   0.642  12.495   0.643  0.0917 -0.2026 -0.0724
22274W        W39121   6.960   7.474   5.800 -0.0500  0.3145 -0.0448
22275W        W39122   2.052   9.693  15.071  0.2766 -0.0387  0.1899
22276W        W39123  14.695  11.034   4.328  0.1620 -0.1153  0.1520
22277W        W39124  11.231  17.823  11.507  0.0972  0.0136 -0.0235
22278W        W39125   1.571  18.004  15.220  0.1210 -0.0309 -0.0419
22279W        W39126  15.551   9.972   5.048 -0.1446  0.0190  0.0891
22280W        W39127  14.236   6.220   0.431  0.2203 -0.2310  0.4172
22281W        W39128  13.788   5.206  13.732 -0.0193  0.0158 -0.0979
22282W        W39129   8.287   0.726  12.576 -0.0534  0.1376 -0.1514
22283W        W39130  10.679  13.733   1.840 -0.0286 -0.0848  0.2126
22284W        W39131   4.160   5.919  13.563  0.0722 -0.3551  0.0099
22285W        W39132   0.386   8.527  14.624 -0.2060 -0.2146  0.0320
22286W        W39133  11.223   8.290   4.790 -0.1728  0.1150 -0.0402
22287W        W39134  16.521   1.916   1.201 -0.0443 -0.2110 -0.0991
22288W        W39135   2.558  10.206   3.165 -0.2965 -0.1916  0.0630
22289W        W39136  11.755   9.656   0.635  0.0463 -0.1365 -0.1782
22290W        W39137   1.148   8.379   5.486  0.3274  0.2503  0.1393
22291W        W39138   7.222   1.544   2.179  0.2278  0.1847  0.0507
22292W        W39139   5.980  13.352   0.356 -0.2766  0.3083 -0.2894
22293W        W39140   3.671  14.887  15.618  0.2991  0.2055  0.0186
22294W        W39141  13.676  15.418  16.098 -0.1652  0.2907  0.0553
22295W        W39142   5.671   3.264   1.751 -0.1143  0.2485 -0.3059
22296W        W39143  12.522   3.250   2.806  0.0023  0.1495 -0.3088
22297W        W39144   8.298   7.754  15.034 -0.2173  0.3765  0.2533
22298W        W39145  11.307   9.222   1.064  0.0344 -0.2548  0.2245
22299W        W39146  15.507  16.554  16.365  0.0640 -0.0925  0.0695
22300W        W39147  10.124   7.632   3.732 -0.2061 -0.2366 -0.0837
22301W        W39148   7.677  12.569   4.637 -0.0399 -0.0674 -0.0591
22302W        W39149   9.778  14.688   2.620  0.1011 -0.0336 -0.0808
22303W        W39150  11.712   0.463   4.390 -0.0164 -0.0418 -0.0156
22304W        W39151  15.799  14.999   3.360  0.1585 -0.0002 -0.1305
22305W        W39152   1.775  11.695   3.126  0.3090 -0.0001 -0.5086
22306W        W39153   0.188   5.546   2.277  0.3276 -0.0981  0.2973
22307W        W39154   5.899   7.880  14.381  0.0406 -0.2197 -0.0518
22308W        W39155   6.749   2.754   1.106  0.4132  0.0117 -0.2225
22309W        W39156  15.441  14.881   5.161 -0.0303 -0.2130 -0.0637
22310W        W39157   5.516   5.585   0.519 -0.3154  0.1783 -0.2273
22311W        W39158   5.894  13.686  13.887 -0.2708  0.2100 -0.1105
22312W        W39159  13.271  14.033  13.615  0.1615  0.3911 -0.1001
22313W        W39160   8.498   3.968  13.405 -0.1543 -0.0502  0.1605
22314W        W39161  14.032   5.895   0.744 -0.3318  0.2182  0.1869
22315W        W39162   3.955   5.737  14.980  0.0489  0.0174  0.1432
22316W        W39163  12.843   4.010   0.385  0.0867  0.0087 -0.3459
22317W        W39164   5.890   2.070  11.254  0.2224 -0.0739  0.0174
22318W        W39165  13.796  10.440   1.157 -0.1830 -0.0973 -0.1795
22319W        W39166   4.500   0.817  15.144  0.1976 -0.2185 -0.1375
22320W        W39167  16.728   2.611   2.681  0.1285  0.0321  0.5246
22321W        W39168   8.374  14.843   0.063  0.3040  0.0985 -0.0864
22322W        W39169  10.646  13.249   0.361  0.1338  0.2490 -0.2497
22323W        W39170   0.546  13.814   5.263 -0.2308 -0.1579 -0.1234
22324W        W39171  15.766   7.752   3.601 -0.3804 -0.0246  0.0702
22325W        W39172   1.413   1.945  12.971  0.1532 -0.1104 -0.1494
22326W        W39173   5.714   6.559   2.989  0.1712  0.0628  0.0403
22327W        W39174  10.730  13.050   0.830 -0.2768  0.0479  0.1624
22328W        W39175   0.184  10.410   5.763 -0.1916 -0.3010  0.1395
22329W        W39176  11.305   8.543   5.219  0.0478  0.1315  0.0038
22330W        W39177   2.499  12.800  14.229 -0.2923  0.0085  0.0045
22331W        W39178   8.162  10.660  13.241 -0.0461  0.3516 -0.0662
22332W        W39179   8.171   2.108   0.850  0.2439  0.0036 -0.0262
22333W        W39180   3.307   6.198   3.810 -0.0301 -0.2532 -0.2604
22334W        W39181  15.952   3.067   0.790  0.0710 -0.2657 -0.0815
22335W        W39182   9.989  17.066  16.126  0.1568 -0.2260 -0.2386
22336W        W39183  16.398   1.431  13.458  0.2766  0.2739 -0.2068
22337W        W39184   8.595   5.268   5.014  0.1358  0.0651  0.3779
22338W        W39185   5.370  16.527  12.966  0.1918 -0.0134 -0.1300
22339W        W39186   0.451  12.103  15.125  0.0562 -0.2247 -0.0415
22340W        W39187   7.494  12.488   3.650 -0.0541  0.3458  0.2838
22341W        W39188   8.477   6.468   1.477  0.1091  0.1101  0.0228
22342W        W39189   8.357  12.496   3.266  0.0480 -0.0132  0.1089
22343W        W39190  16.821  16.766  16.096  0.2474  0.0034  0.1702
22344W        W39191  14.276   3.530   1.258 -0.2071  0.0128  0.1624
22345W        W39192  15.150  13.104  15.692 -0.4265  0.2058  0.0576
22346W        W39193  16.506   9.206   4.101  0.0081  0.0335 -0.0910
22347W        W39194   4.088  15.667   4.319 -0.2134 -0.0418 -0.1743
22348W        W39195  11.399   9.398   2.376 -0.0708 -0.2588  0.0300
22349W        W39196  13.777  10.118  14.148  0.3063  0.1126  0.2719
22350W        W39197  14.035   5.073  15.684 -0.0933  0.0045  0.1052
22351W        W39198  15.321  17.376  14.223 -0.0659 -0.0125 -0.1188
22352W        W39199   8.020   1.805  13.597  0.0264  0.0829  0.0685
22353W        W39200  10.325   9.768  12.015  0.1026  0.0479  0.2348
22354W        W39201   3.154   5.374  11.602 -0.0925 -0.0756 -0.0785
22355W        W39202  17.727  11.311   4.243  0.3895  0.1589 -0.0166
22356W        W39203  17.351   1.168   4.614  0.5318 -0.1343 -0.5419
22357W        W39204   7.372  15.074   0.457  0.2574 -0.1157  0.1559
22358W        W39205  14.976  12.383  11.885 -0.0794  0.0877  0.0540
22359W        W39206  13.051  10.343  11.694  0.0675  0.0392 -0.0968
22360W        W39207  11.712  17.245  15.511  0.0855  0.1824 -0.0191
22361W        W39208  12.265   3.035   0.033 -0.0588  0.0695 -0.2487
22362W        W39209  13.915  14.279  16.205  0.1450 -0.4882 -0.0863
22363W        W39210   1.027   8.152   4.465  0.0001  0.1119 -0.0697
22364W        W39211   1.630  16.535   5.313  0.0504  0.0294 -0.0422
22365W        W39212   9.005   6.820   4.086 -0.4453 -0.1173 -0.3268
22366W        W39213   4.497  16.940  14.402 -0.1326  0.0553  0.1257
22367W        W39214  12.443  14.771   4.929  0.1271  0.1400  0.0338
22368W        W39215   9.205   5.737  15.630 -0.3608 -0.0663  0.1725
22369W        W39216   8.367   9.451  13.929  0.1105  0.1301 -0.0575
22370W        W39217   3.858   1.968   0.124  0.1106 -0.1643  0.0197
22371W        W39218   7.376  10.965   2.989  0.3474  0.0554 -0.0379
22372W        W39219  13.103   6.462  15.874 -0.0543  0.3694 -0.0342
22373W        W39220   0.065   5.071  13.825  0.0246  0.0114  0.0914
22374W        W39221   7.195  11.310  11.937 -0.0160  0.0169 -0.2036
22375W        W39222   1.532   5.225   3.272 -0.0219  0.0807 -0.0870
22376W        W39223   4.748   9.871   4.891 -0.3224  0.1701  0.0003
22377W        W39224   7.910   3.068  13.991  0.0542 -0.1974  0.0584
22378W        W39225   5.406  10.868   3.017  0.1104 -0.0382 -0.2310
22379W        W39226  12.140   4.319  14.383 -0.0608  0.0184 -0.6552
22380W        W39227   0.304  12.686  12.038 -0.1930 -0.0116 -0.1682
22381W        W39228  17.092   5.304   5.388  0.0615  0.0670 -0.0376
22382W        W39229  13.481  17.331   1.628  0.0612 -0.1642 -0.1313
22383W        W39230   9.642  11.016  14.222  0.1466  0.0164  0.1198
22384W        W39231   8.206  17.196  12.938 -0.0594 -0.0985 -0.3188
22385W        W39232  12.511   8.241   2.105  0.0682  0.2567 -0.0188
22386W        W39233   5.420  12.798   5.119 -0.0483  0.0577 -0.0565
22387W        W39234   9.030   7.106  13.501  0.1697 -0.0641 -0.1084
22388W        W39235   3.614   6.919   3.792 -0.0006  0.0754 -0.0687
22389W        W39236   4.487   7.755   1.878  0.0758  0.0261 -0.3041
22390W        W39237  17.048  12.875  15.189 -0.0342 -0.0249 -0.0663
22391W        W39238  11.495   2.718   4.897 -0.0533  0.1393  0.2149
22392W        W39239  11.725   2.252   5.921 -0.1103 -0.1318  0.1090
22393W        W39240  14.475   4.559  13.785  0.0645  0.1022 -0.2444
22394W        W39241   6.039  15.305  10.654  0.3338 -0.1283  0.2756
22395W        W39242   1.371   7.965   5.778 -0.1723  0.6497 -0.0313
22396W        W39243  12.421  15.933   4.599 -0.1558 -0.0582  0.1859
22397W        W39244   4.387  16.408  11.894 -0.0197  0.1525 -0.0068
22398W        W39245   2.384  10.009   0.016 -0.0982 -0.0238 -0.2157
22399W        W39246  14.371  16.649  15.073  0.2015 -0.1917  0.2389
22400W        W39247   5.972   9.932  14.304 -0.2269  0.0501 -0.0345
22401W        W39248  17.559   5.860   3.097 -0.4058  0.3331  0.1499
22402W        W39249   7.496   6.237   3.884 -0.0980  0.1270  0.0125
22403W        W39250  14.365   6.536  13.214 -0.1141 -0.3243 -0.2143
22404W        W39251   4.752   8.225  12.343  0.0219  0.0472 -0.1886
22405W        W39252   3.772  17.059  12.225 -0.1975 -0.0097  0.0308
22406W        W39253   0.577  10.950  12.010  0.0051  0.1246  0.0853
22407W        W39254   4.141   4.576   2.543  0.2189 -0.0768  0.3468
22408W        W39255   3.161   2.353  11.893 -0.3327 -0.1174  0.3766
22409W        W39256   5.586  10.585  12.642  0.2083  0.0033 -0.0924
22410W        W39257   9.104  10.064  13.512 -0.2015 -0.0337 -0.3488
22411W        W39258   8.027   4.847   5.269  0.2094 -0.0759  0.0708
22412W        W39259  17.783   8.678   3.275 -0.2496 -0.0993 -0.0432
22413W        W39260  13.332  18.011   2.348  0.0332  0.0424  0.3001
22414W        W39261  17.934  12.010   0.243  0.1156  0.1454  0.0671
22415W        W39262  13.654  17.684   0.868  0.3470 -0.2075  0.0418
22416W        W39263   6.713   0.879   2.523  0.1736  0.1099  0.1941
22417W        W39264  13.653  12.737   4.886 -0.0053  0.2500  0.2687
22418W        W39265   8.008  14.230  14.223  0.4114 -0.2566  0.2093
22419W        W39266   4.523  14.535   0.860  0.1140 -0.0172  0.0528
22420W        W39267   9.735  16.133  14.453 -0.0519 -0.1481 -0.1052
22421W        W39268   3.594   4.706  16.669  0.0297  0.0599 -0.1278
22422W        W39269   1.308  13.284  16.172 -0.1311 -0.3075 -0.2299
22423W        W39270  14.701  17.470   4.162  0.1964 -0.0075 -0.0420
22424W        W39271   0.152  17.695  13.446 -0.0033  0.1000 -0.3963
22425W        W39272   9.374   2.003  16.123  0.1523  0.3712 -0.2623
22426W        W39273  11.136   2.753  16.627  0.0393 -0.1634 -0.1317
22427W        W39274  16.660  10.621   2.001  0.0635 -0.0231 -0.0030
22428W        W39275   0.035   8.975  12.106 -0.0349  0.1475  0.2933
22429W        W39276  14.734  17.681  11.930  0.0806 -0.0637  0.0115
22430W        W39277  17.510  15.136   1.116  0.1004 -0.0602 -0.2957
22431W        W39278   8.530   3.194   2.778 -0.0350 -0.0422  0.2806
22432W        W39279   2.508   5.796  12.699 -0.1322  0.0112 -0.2899
22433W        W39280   1.735   5.768   2.634 -0.0734 -0.2430  0.2671
22434W        W39281  16.380  16.345  15.926 -0.0863  0.0490 -0.3116
22435W        W39282   9.192  10.880  14.440 -0.1075 -0.0516 -0.2523
22436W        W39283   4.509   5.666  13.956 -0.0028  0.0464 -0.0456
22437W        W39284   1.467  12.536   4.039  0.2474  0.1297  0.1174
22438W        W39285   7.138  10.094   3.037 -0.0384 -0.1511 -0.2325
22439W        W39286  17.882   2.615   4.438 -0.0202 -0.0625  0.0337
22440W        W39287   1.461   6.596  12.175  0.7105  0.0991  0.1518
22441W        W39288   4.183  13.570   1.820  0.0248  0.0312 -0.0845
22442W        W39289   7.462  14.484  15.565 -0.1140 -0.3412  0.0395
22443W        W39290  10.575   5.478  10.361 -0.0769  0.0898  0.0615
22444W        W39291   0.463   4.729   1.106  0.0726  0.0529  0.0211
22445W        W39292  10.247  16.199   5.279  0.1413  0.0036  0.2576
22446W        W39293  10.051   5.695  15.931 -0.0390 -0.2589 -0.4101
22447W        W39294   0.541   0.697  15.014 -0.0936  0.1820  0.0702
22448W        W39295   0.123   6.280   4.911 -0.1718  0.0430 -0.1286
22449W        W39296  14.131   2.744   3.880  0.1812  0.0753 -0.0360
22450W        W39297  10.228   9.391  14.018 -0.1944 -0.0149  0.2261
22451W        W39298   5.523  12.702   0.134 -0.0264  0.2273  0.1037
22452W        W39299  11.408   7.898  16.598  0.1213 -0.0819  0.1102
22453W        W39300  17.614  12.405  13.524 -0.2480 -0.2883 -0.1083
22454W        W39301  10.952  13.701   0.027  0.1515  0.1636 -0.0525
22455W        W39302   2.972  12.696  15.880 -0.0791 -0.2938  0.0818
22456W        W39303   2.201   6.014   2.573 -0.1985  0.0867 -0.0022
22457W        W39304  11.850   0.915  12.250  0.1064  0.1189 -0.1009
22458W        W39305   3.616  12.937  13.394 -0.1583 -0.0040  0.1675
22459W        W39306   4.850   1.976  12.129  0.5091 -0.0079  0.2235
22460W        W39307  16.512  15.674   2.861  0.2096 -0.2436  0.0952
22461W        W39308   4.327   9.919  13.362  0.0362 -0.0505 -0.0164
22462W        W39309   2.870   7.373  15.809  0.0411  0.4488  0.1392
22463W        W39310   2.912   7.750  13.881  0.1459 -0.0269 -0.1615
22464W        W39311  15.764   9.096  16.106  0.0087  0.0065  0.0796
22465W        W39312  12.437   0.898   2.882 -0.2023 -0.0494  0.1461
22466W        W39313  13.128   3.525  13.771  0.2305  0.2151  0.0719
22467W        W39314   3.232  11.927  14.816 -0.4852  0.0611 -0.3206
22468W        W39315   6.923   8.893  12.686 -0.0671  0.3005  0.1493
22469W        W39316  13.334  15.238  13.004  0.0095 -0.0271  0.3358
22470W        W39317   0.847   6.839   2.219  0.2769  0.1821 -0.2041
22471W        W39318  15.204   4.603   2.223 -0.2321 -0.0398  0.1315
22472W        W39319  12.144  16.965   3.429 -0.1781  0.3258 -0.1370
22473W        W39320  13.905   5.003   2.983 -0.1745 -0.1994  0.0329
22474W        W39321  10.784   9.993  14.927 -0.3395 -0.3731 -0.2242
22475W        W39322   4.708  10.092   5.506  0.2558 -0.1106 -0.1179
22476W        W39323   5.028   6.368  12.385  0.0151 -0.3158 -0.1434
22477W        W39324  15.601  13.670  12.166 -0.4305 -0.1586  0.3647
22478W        W39325   2.797   9.804   0.768 -0.0616  0.0353 -0.3789
22479W        W39326   1.250  17.340   1.268 -0.0816  0.1981  0.1141
22480W        W39327   1.117  12.722  13.292 -0.1620 -0.4047  0.0780
22481W        W39328   5.989  12.942   5.100  0.1685 -0.3995  0.0952
22482W        W39329   7.489   5.518   0.551 -0.0914 -0.0527 -0.3174
22483W        W39330   8.106  15.035   0.488 -0.0632  0.1378 -0.1155
22484W        W39331   6.505  10.354  14.698  0.1072  0.2996  0.1941
22485W        W39332  14.616  18.039   1.642  0.1575  0.1717 -0.0023
22486W        W39333   9.150  10.369   0.335  0.0448 -0.1846  0.0552
22487W        W39334  18.032   3.202   0.290  0.2267  0.0641 -0.1957
22488W        W39335   1.080   0.754  12.209 -0.0524 -0.0386 -0.1291
22489W        W39336  14.287   8.864  14.097  0.1761  0.1732 -0.0794
22490W        W39337   4.318  11.126  13.322  0.3561 -0.0399 -0.0081
22491W        W39338  14.266   0.897  15.111  0.1505  0.0738  0.0344
22492W        W39339   0.665  11.710  13.548  0.1578  0.0074 -0.1727
22493W        W39340  10.125  15.132  15.111 -0.0616  0.1816 -0.0618
22494W        W39341  16.685  11.227   4.924  0.2617 -0.2895  0.0937
22495W        W39342   3.936  16.353  12.788 -0.0547 -0.0223 -0.1325
22496W        W39343  12.960  12.619   4.073 -0.0957 -0.0429 -0.0445
22497W        W39344   3.923   2.163  11.061 -0.1155  0.4294  0.1016
22498W        W39345   9.389   3.106   3.975  0.0194 -0.0341 -0.2217
22499W        W39346  17.311  12.809  15.595 -0.0706  0.0229 -0.0981
22500W        W39347   1.054  14.273   1.060 -0.3123  0.1473  0.1541
22501W        W39348   8.876   9.717   0.152 -0.1477 -0.1927 -0.0259
22502W        W39349   7.467  14.743   4.267 -0.0598 -0.0001 -0.0423
22503W        W39350   9.791  16.378   1.893  0.0998  0.2711 -0.1679
22504W        W39351   5.307   6.987   3.561 -0.0920  0.2332 -0.0951
22505W        W39352   7.885  15.662  13.884  0.3446 -0.0427  0.1363
22506W        W39353   1.429  15.449   5.380  0.2484  0.1251  0.0828
22507W        W39354   3.071   2.510   2.159 -0.1748 -0.0614  0.0994
22508W        W39355   0.345  16.883  12.414 -0.0417  0.0886 -0.2592
22509W        W39356   9.960  17.512   0.424  0.0794  0.1091 -0.1776
22510W        W39357  14.304  17.038   2.749  0.0016 -0.3754 -0.0147
22511W        W39358   8.134  12.736  14.402 -0.1800 -0.0299 -0.1129
22512W        W39359  12.409  17.485  11.003 -0.0339  0.2944  0.0636
22513W        W39360   4.295  14.062  11.614 -0.3388 -0.0949  0.1797
22514W        W39361   3.994   5.020   3.509  0.2382 -0.1173 -0.3034
22515W        W39362  17.113   0.780   0.183 -0.2277  0.1601 -0.0189
22516W        W39363   3.884   3.601  12.307  0.0638 -0.1126 -0.0949
22517W        W39364   5.804   1.945   0.228 -0.1012  0.3529 -0.1567
22518W        W39365  17.620   0.953   0.482 -0.0378  0.0722 -0.1734
22519W        W39366   5.925  17.832   2.487  0.0026  0.2042 -0.1069
22520W        W39367  11.882  13.706  14.857  0.3793 -0.0228  0.0461
22521W        W39368   9.786  10.721   2.131 -0.2113  0.0194 -0.1654
22522W        W39369  12.863   3.670   2.668  0.0765  0.4715  0.1938
22523W        W39370   8.738   9.491  13.005 -0.0461 -0.0559 -0.0256
22524W        W39371  15.128   8.501  10.551 -0.0701  0.1210 -0.3396
22525W        W39372   2.183  11.243   2.254 -0.0643 -0.0187  0.0582
22526W        W39373   3.428  11.061   5.936 -0.2562  0.0840  0.2670
22527W        W39374   2.965  16.025  14.053  0.1646 -0.4908  0.0012
22528W        W39375  12.540   9.569   2.136 -0.2504 -0.0147 -0.1648
22529W        W39376   5.810  16.151   1.243  0.0875  0.0159 -0.2317
22530W        W39377   5.043  14.062   3.227 -0.0096  0.0710  0.1000
22531W        W39378  12.754   0.828  13.032 -0.3564  0.0445  0.2779
22532W        W39379   3.152   4.334  15.521 -0.0946 -0.2304  0.0852
22533W        W39380  12.491  12.029   2.020  0.4162  0.1763 -0.2200
22534W        W39381  15.953   2.314  14.861  0.0132 -0.0081 -0.3857
22535W        W39382   1.808   8.879  12.378 -0.0272 -0.0761 -0.1150
22536W        W39383   4.343   4.433   1.105  0.5240  0.0749  0.0692
22537W        W39384  14.308   5.500  12.860 -0.0665 -0.1701  0.0768
22538W        W39385   5.018  17.261  16.017 -0.0281 -0.2564 -0.2000
22539W        W39386  17.074  10.501   0.581 -0.0478 -0.1805 -0.2348
22540W        W39387   6.866   0.663  15.535  0.0021  0.2405 -0.1321
22541W        W39388  13.944  14.053  10.142  0.1209 -0.1252 -0.1320
22542W        W39389  11.244   9.630   0.567 -0.0573  0.0771 -0.5766
22543W        W39390   0.327   1.134  15.513 -0.0610 -0.0326  0.0397
22544W        W39391   8.799  16.210   1.000 -0.0419 -0.0586 -0.0468
22545W        W39392   4.967   0.265   5.964 -0.1705  0.2604 -0.0748
22546W        W39393  13.917   4.607   2.622  0.2579  0.1326  0.1136
22547W        W39394   3.246   6.215  15.669 -0.1214  0.2232 -0.0233
22548W        W39395   8.333   2.972  14.267 -0.1070  0.0525 -0.0346
22549W        W39396   1.334   5.048  15.782  0.2587 -0.0136  0.3385
22550W        W39397  12.038   5.532  13.845  0.1794  0.1230 -0.1174
22551W        W39398   3.934  14.863   4.347 -0.1233 -0.1238 -0.1487
22552W        W39399   2.454  11.829  16.678  0.0937 -0.1350 -0.0507
22553W        W39400  13.651  11.522   1.762 -0.1813  0.0782 -0.1823
22554W        W39401  17.592   7.721  12.201  0.0308  0.1105  0.0469
22555W        W39402   0.417   1.762  14.093 -0.2151  0.0239  0.0527
22556W        W39403  17.367   8.050   2.126 -0.1443  0.0269  0.0133
22557W        W39404  16.050   9.711   3.564 -0.2925 -0.0863 -0.0406
22558W        W39405  14.132  12.272   1.632  0.1256 -0.2041 -0.1689
22559W        W39406  15.770   3.216   5.987  0.2918 -0.1387  0.0812
22560W        W39407  11.081   3.210  12.895  0.1084 -0.1562 -0.4893
22561W        W39408  10.729   4.701   4.526 -0.1449 -0.1171 -0.3241
22562W        W39409   8.318   8.914   3.437  0.4620 -0.0557 -0.1907
22563W        W39410   2.339   8.191   0.005 -0.0248 -0.0298  0.0501
22564W        W39411   8.023   2.102  11.481  0.1575  0.2260 -0.0767
22565W        W39412  14.273  11.126  13.094 -0.1418  0.2451  0.1192
22566W        W39413   5.474   7.461   2.645 -0.0007 -0.0301 -0.2629
22567W        W39414   6.635   8.748  15.945 -0.0871  0.2106 -0.1581
22568W        W39415   7.541  10.368   2.285 -0.1371  0.3428  0.1080
22569W        W39416  16.659  15.859  12.898 -0.1563 -0.1411  0.3744
22570W        W39417  16.674   8.663  15.791  0.1536 -0.0550  0.1209
22571W        W39418  10.284   8.098   0.916 -0.1004  0.0398 -0.0400
22572W        W39419  14.386   1.012  16.186  0.2960 -0.0465 -0.0447
22573W        W39420   4.843  12.307   5.485  0.2619  0.2046  0.3330
22574W        W39421   9.663   1.831  12.166  0.1015  0.1242  0.0834
22575W        W39422   2.962   9.445   4.201 -0.0991  0.0373 -0.1452
22576W        W39423  11.064  11.786  13.135 -0.0301 -0.1460  0.2263
22577W        W39424   9.930   1.722  15.507 -0.0050 -0.1216 -0.1967
22578W        W39425   6.068  12.505  11.773  0.0169 -0.0756 -0.2742
22579W        W39426  16.432   9.025   2.047 -0.3267  0.1882  0.2311
22580W        W39427  11.877   2.000  15.790  0.0480  0.0008  0.0324
22581W        W39428  16.747  12.434  13.088  0.1226 -0.1960 -0.2881
22582W        W39429  10.899   9.278   0.794 -0.2799 -0.0653 -0.2739
22583W        W39430   0.157   5.776  14.404  0.0568 -0.0840  0.2793
22584W        W39431   1.878  13.996   0.745 -0.1210  0.0211 -0.0127
22585W        W39432   2.842   9.988  15.590  0.3841  0.0752  0.1376
22586W        W39433  14.921  10.218  14.141  0.1749  0.1140  0.1150
22587W        W39434  17.729   3.709  12.536  0.2536  0.2513 -0.1206
22588W        W39435   6.574  17.072   1.779 -0.1808  0.0290 -0.0783
22589W        W39436   1.334  13.121  15.542 -0.0992  0.1393  0.1807
22590W        W39437  10.731   2.564   3.692  0.1964 -0.0143  0.1233
22591W        W39438  15.408   1.079   2.333 -0.1275  0.0375  0.0839
22592W        W39439   8.724   8.926  16.289 -0.2632 -0.0529  0.0223
22593W        W39440   9.146   5.661  13.985  0.0227 -0.0563  0.0954
22594W        W39441   2.835   7.904  15.725 -0.1655  0.3486  0.0339
22595W        W39442  17.479   6.750   3.895 -0.0941  0.3825 -0.1086
22596W        W39443   7.697  13.869   0.013 -0.1316 -0.0229  0.2456
22597W        W39444  11.735  15.321  11.450  0.1206  0.1120 -0.0350
22598W        W39445   3.805   0.718  15.746  0.0800 -0.2325 -0.0409
22599W        W39446  14.047   5.969  15.167  0.0308 -0.0679  0.0568
22600W        W39447   4.303   3.683  15.125 -0.2483  0.1140  0.2298
22601W        W39448  13.734   6.258  13.766 -0.0022  0.0441  0.1845
22602W        W39449   2.135  11.532   2.643  0.1806  0.1200 -0.0325
22603W        W39450  15.441   5.301  11.703  0.0616 -0.1817 -0.1713
22604W        W39451  14.359  10.978   3.926  0.0979  0.2088  0.0226
22605W        W39452  10.551  15.941   2.354  0.0068 -0.0501  0.0850
22606W        W39453  17.003  11.119   2.994 -0.0147  0.2300 -0.0230
22607W        W39454   2.401  12.029   2.570 -0.3092 -0.2546  0.0287
22608W        W39455   8.057   6.700   1.980  0.0402  0.0981 -0.2556
22609W        W39456   1.629   6.118  10.603 -0.1131 -0.1362  0.2604
22610W        W39457  17.326  17.204  15.925 -0.0019 -0.0563  0.0267
22611W        W39458   3.227  14.831  16.047  0.2271  0.1300  0.0279
22612W        W39459   1.321   2.638   4.542  0.3281  0.1536  0.0468
22613W        W39460  16.964   1.578  11.503  0.4413 -0.0293 -0.0204
22614W        W39461   7.831   0.383  13.090  0.0108 -0.0784  0.0550
22615W        W39462  16.801  11.475  15.399 -0.0127 -0.2659 -0.0356
22616W        W39463   0.275  16.472   5.282 -0.1565  0.1637 -0.0326
22617W        W39464   5.692  17.629   1.623 -0.0490  0.4324 -0.0629
22618W        W39465   3.280   9.975  15.316 -0.1595 -0.2380 -0.1118
22619W        W39466   0.395   0.159   3.728  0.2293 -0.1422 -0.3468
22620W        W39467   9.773   3.601   3.133 -0.0645  0.1348 -0.1120
22621W        W39468   8.651  15.322  13.896  0.0077 -0.0499  0.0100
22622W        W39469  14.462   0.694   3.834  0.1513  0.1030  0.2727
22623W        W39470   1.177   5.179   0.969  0.2211  0.1990  0.4441
22624W        W39471   0.411   5.611   2.716  0.1623 -0.0468  0.0420
22625W        W39472   0.806   8.970   3.899 -0.1953  0.1568  0.1880
22626W        W39473   4.738  12.978   1.711  0.3589  0.0032 -0.1442
22627W        W39474  16.623   5.763   3.059 -0.3856 -0.2600 -0.1093
22628W        W39475   3.376  11.327   1.504 -0.0251 -0.1331  0.0104
22629W        W39476   5.707  14.035   4.941 -0.3261 -0.3071  0.0478
22630W        W39477   8.397   0.123   0.376 -0.1241 -0.1921 -0.1869
22631W        W39478   1.435   8.546  12.430  0.0776  0.1020  0.1124
22632W        W39479  16.945   5.803   0.245 -0.1662 -0.1945  0.0338
22633W        W39480   0.112  11.918  16.523  0.0111  0.1142  0.0825
22634W        W39481   0.174  13.799  14.481 -0.0484  0.1994  0.0073
22635W        W39482   7.465   3.157  14.205 -0.2368 -0.0865 -0.0118
22636W        W39483   0.401  16.041   3.769 -0.1504  0.1259  0.2032
22637W        W39484   3.679   8.212  12.048 -0.3326  0.0426 -0.0283
22638W        W39485  16.576   8.942   2.499 -0.2391  0.0052  0.2159
22639W        W39486  15.093   8.801   0.242  0.2208  0.0121  0.3387
22640W        W39487   1.007  13.785   1.705  0.2945  0.4008  0.1176
22641W        W39488   5.497   2.337  11.456 -0.0819  0.2449  0.1163
22642W        W39489   2.624   1.771  16.231  0.1679  0.1807 -0.2491
22643W        W39490  13.296  10.066   5.600  0.2014  0.3156 -0.2978
22644W        W39491  11.502  12.893  14.898 -0.0374 -0.2102 -0.1028
22645W        W39492  16.741   3.722  16.629  0.3161 -0.1672  0.1171
22646W        W39493  15.959  13.866   3.849 -0.2459  0.1947  0.0106
22647W        W39494   2.961  13.327   2.390 -0.1738  0.0661  0.0756
22648W        W39495  16.314  10.708  14.716 -0.0212 -0.1793  0.3401
22649W        W39496   4.900   0.216   2.408  0.1433 -0.2543  0.1870
22650W        W39497  10.925   1.372   1.780  0.2222  0.0092 -0.0513
22651W        W39498   0.026   1.390   1.979  0.2096  0.0748 -0.1850
22652W        W39499   0.511   9.627   5.322  0.1408 -0.1913 -0.3162
22653W        W39500   2.260   1.923   1.283  0.0922  0.1265 -0.2435
22654W        W39501  15.675  10.963   3.187  0.0701 -0.2375  0.0395
22655W        W39502   9.272  11.980  15.368  0.1352 -0.3397 -0.2012
22656W        W39503   4.833  12.852   1.207  0.2574 -0.1174 -0.2264
22657W        W39504   4.228  12.037  13.452 -0.1241  0.3212  0.3803
22658W        W39505   5.353   1.468   1.447 -0.0051  0.1243  0.0603
22659W        W39506  10.634   6.383  14.250  0.2109  0.2244 -0.0161
22660W        W39507   0.830  16.171  13.279 -0.1135 -0.0061 -0.1011
22661W        W39508   6.768   5.453  16.447 -0.2965 -0.0499 -0.0926
22662W        W39509   5.738  15.067  11.945  0.0054  0.0113 -0.1955
22663W        W39510   7.239  12.816  12.380  0.0467  0.3210  0.2956
22664W        W39511  13.821  15.978   3.241 -0.3290  0.0825  0.1711
22665W        W39512  12.425  11.182   0.061  0.0711 -0.2520  0.5255
22666W        W39513  11.777  16.057  11.102 -0.1557 -0.1225  0.0228
22667W        W39514   8.428  16.656   5.409  0.0739 -0.2824  0.2445
22668W        W39515   6.108  13.054   1.823  0.2084  0.5017  0.1052
22669W        W39516   1.723  16.273   0.542 -0.0502 -0.2588 -0.0336
22670W        W39517   8.135  12.984  14.836 -0.1528  0.2848 -0.1661
22671W        W39518   9.518   5.169   4.098 -0.0718  0.0819  0.2821
22672W        W39519   2.956   9.850   5.102 -0.4980  0.2026 -0.1119
22673W        W39520   9.812   3.890  15.951 -0.0143 -0.0939  0.3298
22674W        W39521   2.884   7.492   1.804  0.1016  0.3907 -0.2020
22675W        W39522   7.473   2.241   0.485 -0.1735 -0.3469  0.1070
22676W        W39523   6.928   2.427  16.138 -0.1511  0.1846 -0.2518
22677W        W39524   5.764   2.611   2.153 -0.3281 -0.3142 -0.0672
22678W        W39525   3.350  17.280   0.688 -0.1271  0.0866  0.1817
22679W        W39526   5.787   7.948   2.249 -0.1598 -0.1151 -0.2059
22680W        W39527  14.974   1.075   0.795 -0.0360 -0.0708 -0.1045
22681W        W39528   6.214   3.184   0.235 -0.1098 -0.0494 -0.0925
22682W        W39529  16.227   4.279   4.103 -0.1278  0.2176  0.1004
22683W        W39530   0.147  14.397  13.662 -0.0728 -0.0328  0.2520
22684W        W39531  13.027   8.691  13.939 -0.0927 -0.1035 -0.1996
22685W        W39532  11.668   6.737   3.609 -0.3088 -0.0724 -0.2354
22686W        W39533  12.394   5.455  12.369  0.2681  0.2757 -0.1474
22687W        W39534  16.988  11.887   1.902  0.0508  0.1465  0.3413
22688W        W39535   0.246  16.650   2.446  0.0634  0.0487 -0.1698
22689W        W39536  13.076  15.631   2.600 -0.2671 -0.1186  0.0157
22690W        W39537  17.028   2.364  15.014 -0.0128  0.3099 -0.1242
22691W        W39538   3.676   6.076  15.377 -0.3169 -0.2091  0.2629
22692W        W39539   8.540  13.903  16.103 -0.0370  0.0294 -0.1348
22693W        W39540  17.355   2.599  15.768  0.0826 -0.1673  0.0561
22694W        W39541   1.573   7.502  11.249 -0.2859  0.2182  0.0994
22695W        W39542   1.114   5.771  14.603  0.2369  0.2923 -0.0105
22696W        W39543  16.541  17.681   1.569 -0.0671  0.3690  0.2302
22697W        W39544   5.162  13.199  15.277  0.1038  0.0998  0.0863
22698W        W39545   2.485  10.346  14.931 -0.0064 -0.1054  0.2220
22699W        W39546   0.387   5.751  12.015 -0.0665  0.1583  0.0859
22700W        W39547   7.317   0.282  12.340 -0.1601  0.1612  0.0019
22701W        W39548  16.535  10.866   3.016  0.2997 -0.1166  0.1052
22702W        W39549   1.777  13.340  14.511  0.1871 -0.0445  0.0567
22703W        W39550  17.296   0.265   1.923 -0.0815 -0.2245 -0.0241
22704W        W39551  12.744  13.775  11.331  0.1023 -0.2123  0.4202
22705W        W39552   7.309   0.220  11.537 -0.2839 -0.3647 -0.1718
22706W        W39553  14.269   7.483  12.965 -0.0777 -0.0454  0.3254
22707W        W39554   9.551  14.561   5.243  0.0375 -0.1860 -0.2760
22708W        W39555   0.706   2.722   4.866 -0.0946 -0.2400  0.1803
22709W        W39556  13.695  16.929  15.367 -0.2952 -0.3411  0.1233
22710W        W39557   7.683  12.789   1.084  0.2847 -0.1655  0.1138
22711W        W39558  10.371   8.226   2.122 -0.0434  0.2569  0.2459
22712W        W39559  16.642   9.363  13.096  0.0234 -0.0027  0.0514
22713W        W39560  17.465   8.683  16.341 -0.1838  0.2475 -0.0359
22714W        W39561   3.664   2.270   0.471 -0.0396 -0.2968  0.1509
22715W        W39562   9.623   0.008   5.014  0.0756  0.2388  0.0024
22716W        W39563   2.787  14.054   2.725 -0.2299  0.1148 -0.1723
22717W        W39564  14.104  15.204  15.698 -0.0680  0.0798  0.2289
22718W        W39565   5.442  11.569   0.980  0.1279 -0.1700  0.1222
22719W        W39566  16.843  10.999   0.400  0.1158  0.2189  0.0981
22720W        W39567   7.300  15.497   4.552  0.0816 -0.0280  0.1595
22721W        W39568   0.868  16.828  14.856  0.3402  0.0868  0.1921
22722W        W39569   2.822   3.307   0.851  0.2301 -0.1535  0.1181
22723W        W39570   5.610   6.469  16.547  0.2927 -0.0040 -0.0597
22724W        W39571   8.333  10.379   0.568 -0.2136 -0.3265  0.2438
22725W        W39572   3.431   9.896   2.967  0.1611 -0.0252  0.0158
22726W        W39573  16.462   5.649   1.956  0.3961  0.0832 -0.1133
22727W        W39574  13.254   0.845   0.263 -0.2446 -0.0276  0.0802
22728W        W39575   7.827   4.696  13.558  0.0865 -0.3664  0.2470
22729W        W39576  11.197  17.383   3.445  0.2129  0.1703  0.0217
22730W        W39577  12.244   5.944   3.313  0.0263 -0.2131  0.0870
22731W        W39578  13.133   0.327   0.250  0.1965  0.2411 -0.2297
22732W        W39579  16.368  11.790   2.808  0.1956 -0.0673 -0.0153
22733W        W39580   3.840   7.443   1.211 -0.0031 -0.3406  0.0871
22734W        W39581  17.004   6.290   0.003  0.0177  0.0809  0.2576
22735W        W39582   8.056   5.763   3.824 -0.0691  0.0016 -0.2545
22736W        W39583   0.213   0.325  12.724  0.1977  0.2409 -0.5451
22737W        W39584   4.589  14.507  16.551 -0.2025  0.2370  0.2309
22738W        W39585   1.248  15.918  12.416  0.0865 -0.4747 -0.0303
22739W        W39586  16.363   3.446   2.900 -0.0055 -0.2241  0.1457
22740W        W39587  16.245  12.543  16.169  0.0501  0.0071  0.0916
22741W        W39588   9.955   4.546   6.354 -0.1420  0.0726  0.0530
22742W        W39589   5.318  14.629  13.507  0.0038  0.1734 -0.0312
22743W        W39590   8.491  11.410  16.647  0.1426 -0.0611  0.1234
22744W        W39591   1.837  16.708   0.339  0.3654  0.1843  0.0877
22745W        W39592  13.888   3.075  14.683 -0.4605 -0.2770  0.1218
22746W        W39593  16.193   2.422   2.922  0.1374 -0.2174  0.2842
22747W        W39594  11.456  10.080   4.275 -0.1745  0.1306  0.0921
22748W        W39595  10.128  17.928   4.018 -0.2655 -0.0614 -0.0467
22749W        W39596   8.316   9.947   0.315  0.0678 -0.1529 -0.1483
22750W        W39597  18.032   6.488  12.563  0.2264 -0.3527 -0.0389
22751W        W39598   8.057   3.829   0.818  0.2735  0.0089  0.3006
22752W        W39599   1.578  13.576  14.884  0.2967  0.3045  0.0102
22753W        W39600   9.047  15.585  14.946  0.1092  0.0148 -0.1988
22754W        W39601  14.485   1.226   0.436  0.0454  0.0920 -0.3789
22755W        W39602   7.029  13.409   4.789  0.0944  0.2222  0.1458
22756W        W39603   1.267  16.981  13.396 -0.0482 -0.2570 -0.1730
22757W        W39604  14.835   4.630  11.851  0.1281  0.0722  0.3049
22758W        W39605  10.612  17.175  10.906 -0.0490  0.3151 -0.1033
22759W        W39606  11.489   1.782  14.674  0.0283  0.0119 -0.1351
22760W        W39607   8.101   7.629  11.984 -0.3571  0.4405 -0.1169
22761W        W39608   6.571   2.911   1.598  0.1469  0.1852  0.1698
22762W        W39609   4.051   7.874  11.958 -0.2839  0.1956 -0.1646
22763W        W39610  17.730   5.789  14.987  0.2315  0.2574  0.0611
22764W        W39611  16.233   4.692   1.760 -0.1487  0.0640  0.0269
22765W        W39612  10.175  11.800   0.673 -0.2568  0.0573  0.0441
22766W        W39613  15.222  16.153   2.058 -0.2944  0.1426 -0.3146
22767W        W39614   5.467  15.318  16.268 -0.0861  0.2303 -0.1337
22768W        W39615   0.466  13.630  13.624  0.2691 -0.0366 -0.1039
22769W        W39616  12.222  14.978   4.395  0.0097 -0.0911  0.2752
22770W        W39617   8.293   8.580   5.757  0.2016  0.1390 -0.1856
22771W        W39618  11.616  10.126  11.355 -0.1497  0.0848 -0.0165
22772W        W39619   5.375   7.530   4.351 -0.0430 -0.0291  0.1393
22773W        W39620  16.678   2.408   1.164 -0.3176 -0.0209  0.1150
22774W        W39621  10.799   9.031   4.174  0.1212 -0.2056  0.1160
22775W        W39622  13.783   2.914  14.147  0.3495  0.0850 -0.0043
22776W        W39623   4.562  12.861   0.256  0.1753 -0.3552  0.0729
22777W        W39624   6.363   2.613  16.207  0.2847 -0.0434  0.2450
22778W        W39625  14.875   9.157   1.859  0.1437 -0.4379  0.1061
22779W        W39626  15.168   3.534  12.623 -0.1286 -0.2304  0.2660
22780W        W39627   0.124   2.212   4.548  0.0742  0.1756 -0.0528
22781W        W39628  18.016   5.655   0.163  0.3514  0.2895 -0.0616
22782W        W39629   9.289  11.696  11.899  0.3099  0.3821  0.1000
22783W        W39630  15.794   2.749   6.163 -0.2077  0.0381  0.0395
22784W        W39631  15.702  14.330   5.753  0.1479  0.1137  0.1997
22785W        W39632   9.995  10.137  12.966 -0.1015 -0.0375 -0.0993
22786W        W39633   4.898   0.422  10.528  0.2775  0.0598  0.1908
22787W        W39634   2.590   3.323   0.290 -0.0175 -0.0406 -0.0305
22788W        W39635   0.398   6.195  13.193 -0.2527 -0.1123  0.1538
22789W        W39636   5.752  16.927   2.765  0.1947 -0.1670  0.2463
22790W        W39637   1.146   6.986   1.566  0.0237 -0.1840 -0.3123
22791W        W39638  17.757  11.592  16.248  0.0759  0.1780 -0.1719
22792W        W39639   7.239   3.567   4.055 -0.1730 -0.1284 -0.0331
22793W        W39640   8.105  13.909  13.247 -0.3495 -0.0025 -0.1069
22794W        W39641  11.029  16.626  11.474 -0.2703  0.1773 -0.0276
22795W        W39642   2.865  16.193   3.540  0.3455  0.2144 -0.1260
22796W        W39643   5.261   1.953   1.172  0.2519  0.0574  0.1440
22797W        W39644   1.242  10.437   1.856  0.0151 -0.2470  0.0780
22798W        W39645  12.936   9.472   3.984  0.1836 -0.0751  0.1035
22799W        W39646   5.213  16.922  12.083  0.1451  0.1184 -0.1068
22800W        W39647   8.904  16.428   3.838 -0.0135 -0.3443 -0.0451
22801W        W39648   8.860  17.366   3.174  0.2642  0.0727  0.3786
22802W        W39649   9.174  12.693   3.744 -0.0534  0.0647  0.1410
22803W        W39650   4.383   9.274  11.671  0.0054  0.3078  0.1269
22804W        W39651   8.896   9.376   5.303  0.0528 -0.0902  0.0707
22805W        W39652   2.285   9.590  12.317 -0.0308  0.0211  0.2439
22806W        W39653  13.861  14.593  12.105  0.0144 -0.0683  0.1208
22807W        W39654  11.737   3.277  12.288 -0.1648 -0.0377 -0.1627
22808W        W39655  10.711   7.161  13.937  0.2342 -0.0560 -0.1119
22809W        W39656  13.092   1.419   2.148 -0.0706  0.3010  0.0059
22810W        W39657   5.865  16.524  16.653 -0.1346  0.2727 -0.0235
22811W        W39658   9.303  10.810   2.354 -0.2868  0.0053  0.2834
22812W        W39659   3.046   7.704   1.000  0.2063 -0.1371  0.2738
22813W        W39660   3.476  17.511   2.555  0.0649 -0.0464 -0.0962
22814W        W39661  14.970  12.123  12.815 -0.0868 -0.0444 -0.1386
22815W        W39662   6.954  12.905  13.320  0.3964  0.0566  0.0493
22816W        W39663   0.103   1.579   0.631  0.0547 -0.2354 -0.2981
22817W        W39664  11.862   6.589  14.544  0.1785 -0.0941  0.2353
22818W        W39665  10.570  10.579  15.816  0.2965 -0.0447 -0.0537
22819W        W39666   4.620  16.433   5.158 -0.0639  0.2896 -0.1612
22820W        W39667  10.474  10.167   0.427  0.0392  0.0873 -0.0871
22821W        W39668   0.791  10.041  12.368  0.2107 -0.4017  0.4590
22822W        W39669   5.065   2.758   0.833  0.1518  0.0014 -0.1732
22823W        W39670   7.356   4.708  14.745 -0.2032 -0.1685  0.2173
22824W        W39671  13.358   5.988  15.961 -0.1259  0.0693  0.5092
22825W        W39672   4.228  16.240   5.518  0.1804  0.2403  0.1592
22826W        W39673  16.674   7.627   0.496  0.0725  0.3160  0.0085
22827W        W39674   7.634  15.544   1.869  0.2385  0.0797  0.1721
22828W        W39675   1.537  11.533   0.887  0.0547  0.2296  0.1539
22829W        W39676   3.991  13.140   1.256 -0.3734  0.2584 -0.1051
22830W        W39677   2.846   9.506   5.997 -0.0599 -0.2901 -0.0516
22831W        W39678  12.992   9.383   2.023  0.3056 -0.0623 -0.0158
22832W        W39679  10.284   4.868  14.085  0.0803 -0.0970 -0.2415
22833W        W39680   2.734  13.864   3.210 -0.3061  0.0022 -0.1527
22834W        W39681   5.636   5.133  12.042  0.0162 -0.2350 -0.0267
22835W        W39682  11.722  10.453   4.189  0.2121 -0.1257 -0.1600
22836W        W39683   7.802   7.780  15.151 -0.3317  0.1425 -0.2452
22837W        W39684  16.351  17.860   0.196 -0.1359  0.1620  0.0184
22838W        W39685   5.349   3.566  12.372  0.0164  0.2570 -0.0931
22839W        W39686   2.076  14.740   0.211 -0.1031  0.1802  0.0273
22840W        W39687  14.772   7.904   6.218 -0.2461  0.0319 -0.2991
22841W        W39688   4.739   4.988   5.460  0.1533 -0.0180 -0.0597
22842W        W39689   3.585   6.827   4.838  0.0163  0.1261 -0.1421
22843W        W39690  11.687   4.202  13.448  0.0085  0.1106  0.0395
22844W        W39691  14.773   6.248  13.488  0.1022 -0.1552  0.1359
22845W        W39692   2.658  13.493   0.635  0.0277  0.2902  0.1118
22846W        W39693  12.752   0.345  12.214 -0.0781 -0.2051 -0.2056
22847W        W39694  11.923   9.649  15.988 -0.0670  0.0367  0.0295
22848W        W39695  11.958  15.036  12.498 -0.4748  0.0521 -0.1047
22849W        W39696  13.482  10.956  13.635  0.0427  0.2355 -0.1567
22850W        W39697  13.830  10.833  13.932 -0.0110 -0.1031  0.2815
22851W        W39698   3.839  16.621  15.122  0.0218 -0.1916  0.1152
22852W        W39699   0.542   3.417  13.988  0.0098  0.0330  0.1425
22853W        W39700  11.702  14.005  14.001  0.0438  0.1439  0.0370
22854W        W39701   0.226  13.476  13.053 -0.4039 -0.2978  0.1042
22855W        W39702   7.437   9.015   3.671  0.1793  0.2150  0.1658
22856W        W39703   6.881  15.397  12.592  0.0723 -0.4054 -0.1885
22857W        W39704   8.328  10.350   1.582  0.0448 -0.1934  0.0590
22858W        W39705   4.178   9.382   3.105  0.2632 -0.0950 -0.0288
22859W        W39706  15.680   2.018  12.107 -0.3533 -0.0871 -0.3750
22860W        W39707   7.064   0.673  14.141  0.0961  0.0102  0.1627
22861W        W39708   9.754  11.435  13.329 -0.2405  0.0227  0.1732
22862W        W39709  14.925  13.330   5.438  0.2192 -0.3082  0.0795
22863W        W39710  11.274  11.327   0.385  0.4357 -0.3849 -0.1051
22864W        W39711  13.903  13.396   1.503  0.1443  0.0037  0.1971
22865W        W39712  12.731   6.687  15.045 -0.0339 -0.0883 -0.0213
22866W        W39713   3.416  14.336   3.240  0.0532 -0.1241 -0.1312
22867W        W39714   3.526   3.504   1.350 -0.2310 -0.0769 -0.0035
22868W        W39715   1.328  12.778  12.378 -0.0737  0.1984 -0.0768
22869W        W39716  13.116   1.240  14.537  0.2495  0.0806  0.1752
22870W        W39717  11.738  16.420  13.296  0.0379 -0.2214 -0.1426
22871W        W39718  11.384  15.946  12.218  0.1617  0.0599 -0.1771
22872W        W39719  16.015   9.411   1.988 -0.1392  0.3450 -0.3654
22873W        W39720  10.587   2.940   2.086  0.2239  0.0569  0.0803
22874W        W39721   7.436   9.163  13.192 -0.0182  0.1314 -0.1336
22875W        W39722  10.737  10.396  14.667  0.1106 -0.1724 -0.0865
22876W        W39723   3.870  15.926  14.288 -0.1237 -0.0265  0.2232
22877W        W39724   6.491   3.662   2.005 -0.2449 -0.0685  0.1025
22878W        W39725   1.467   5.993  12.763 -0.0626 -0.0062  0.0222
22879W        W39726   4.402   8.862  13.871 -0.1138 -0.0633 -0.0558
22880W        W39727   0.703  13.787  14.550 -0.1676 -0.0362 -0.1730
22881W        W39728  15.081   8.094  15.811 -0.0444 -0.0516 -0.4512
22882W        W39729  11.884   2.018   2.107  0.0848 -0.2598  0.1132
22883W        W39730   3.323   0.189   4.027 -0.2383  0.0697  0.1887
22884W        W39731  10.984   3.495  15.504  0.1498  0.0199 -0.1138
22885W        W39732  15.985  17.930   0.957  0.1329 -0.3489 -0.1085
22886W        W39733   7.626  16.448  16.273 -0.2908  0.1319 -0.0897
22887W        W39734   2.007   9.797  11.914  0.1794 -0.1026 -0.0364
22888W        W39735  15.377  17.017  16.491 -0.2643 -0.3018 -0.0056
22889W        W39736  11.821   5.971   4.290  0.1808  0.0370  0.2541
22890W        W39737  17.722   4.402   1.457  0.1363  0.0297 -0.0405
22891W        W39738  13.928  11.169  12.576  0.3116 -0.1377 -0.0134
22892W        W39739   3.791  15.166   5.219  0.0592  0.3667  0.0066
22893W        W39740   6.863   4.165   5.257 -0.3623 -0.0817  0.0289
22894W        W39741  11.782   9.696   2.259  0.0371  0.2533  0.0308
22895W        W39742   1.001   6.524   1.596 -0.0997  0.0929  0.0870
22896W        W39743   2.502  14.657   0.470  0.1042  0.2680  0.1121
22897W        W39744  13.314  12.379  15.795  0.1887  0.0316  0.0499
22898W        W39745  16.613   8.438  16.518 -0.0454  0.1609  0.0612
22899W        W39746   4.331  11.707   5.036 -0.1090 -0.0562  0.3346
22900W        W39747   8.638   2.012   0.945  0.0375  0.1185  0.2209
22901W        W39748   4.231   2.672   5.501  0.1751  0.2603  0.0539
22902W        W39749   7.740   5.749   6.068 -0.1448  0.2484 -0.1472
22903W        W39750   9.004  16.472  10.302 -0.0386 -0.0873 -0.2017
22904W        W39751  16.214  13.035  16.468  0.2933  0.1808 -0.1698
22905W        W39752  11.137   2.467   3.434 -0.0762  0.1825 -0.2151
22906W        W39753  14.542  13.816  14.521  0.2077 -0.0911  0.1437
22907W        W39754   9.223  11.298  12.234 -0.1132 -0.1864  0.3238
22908W        W39755  14.070  17.698  12.352  0.0661 -0.0113  0.1464
22909W        W39756   6.962   0.242   3.069  0.1747 -0.1363 -0.1850
22910W        W39757   4.643  10.927   6.285  0.1531  0.1070  0.2214
22911W        W39758  15.982   3.663   2.604  0.0609  0.1364  0.2606
22912W        W39759  11.584  15.856  15.856 -0.1231 -0.3198  0.1373
22913W        W39760   8.469  11.163   4.431 -0.0275 -0.1656  0.0700
22914W        W39761  17.640   4.090   0.129 -0.1412  0.1906  0.0430
22915W        W39762   0.457   7.501   3.962  0.0490  0.1790  0.2566
22916W        W39763  14.923   5.869   3.593 -0.0368  0.0319  0.1792
22917W        W39764   4.251   6.635   0.276  0.0197  0.0351  0.1743
22918W        W39765   1.816   4.330  14.588  0.1302  0.0191  0.0425
22919W        W39766  12.449   9.885  12.238 -0.0248  0.1332  0.2424
22920W        W39767  17.245   3.864  14.247 -0.2995  0.0683 -0.2787
22921W        W39768  14.457   3.239   4.294  0.4357  0.0562 -0.3321
22922W        W39769  14.437  15.698  11.645 -0.1592 -0.0378 -0.1694
22923W        W39770  10.983  10.785  16.438 -0.0153  0.0980  0.1127
22924W        W39771   4.098   0.685   2.702  0.0842 -0.2220  0.2077
22925W        W39772   7.736  11.082  14.025  0.2303  0.1021  0.0748
22926W        W39773   1.026   5.980  13.251  0.0355  0.1590 -0.1427
22927W        W39774   9.729  10.622  15.641 -0.2083  0.1116 -0.0183
22928W        W39775  17.263  16.752   0.127 -0.5088 -0.0760 -0.0527
22929W        W39776   1.836   8.379  12.727  0.0685  0.0470  0.1026
22930W        W39777  12.159   6.139  14.550 -0.1766 -0.2186 -0.2938
22931W        W39778   3.084   2.364  11.189  0.0603 -0.1652 -0.1538
22932W        W39779   6.009   4.402   3.817 -0.1052  0.2495  0.2849
22933W        W39780   3.916  10.391   2.405  0.0931  0.1184 -0.1034
22934W        W39781   1.801  13.168   5.098  0.1557  0.0804  0.2946
22935W        W39782  11.816   0.810   4.807 -0.0134  0.1330  0.0511
22936W        W39783   6.020  10.502  13.235 -0.4010  0.2135  0.0606
22937W        W39784   3.913   7.913   1.274  0.0396 -0.0429 -0.3298
22938W        W39785   1.503  15.921   3.257  0.0996  0.0120  0.1039
22939W        W39786   5.324  12.584   0.703 -0.1718  0.0175 -0.0852
22940W        W39787  15.443   0.755   2.805  0.0989 -0.3099 -0.3637
22941W        W39788   6.548   2.616  15.303 -0.0071  0.3428  0.1038
22942W        W39789   8.820   7.115   1.311  0.1143 -0.1229  0.0951
22943W        W39790  12.154   9.289  16.249 -0.1934  0.0365 -0.4928
22944W        W39791  10.428   1.291   5.428 -0.2571 -0.0681 -0.0797
22945W        W39792  10.229   4.848  12.698 -0.0364  0.2183 -0.0059
22946W        W39793  12.358   5.944  14.160 -0.1041 -0.1376 -0.2338
22947W        W39794  17.440  13.815   5.401 -0.1205  0.0906 -0.0932
22948W        W39795   2.305   3.640   4.924 -0.3053  0.1056 -0.0496
22949W        W39796  13.145  10.301   0.635 -0.5313  0.4811  0.0917
22950W        W39797  13.123  13.578   0.059  0.3958 -0.0599  0.1558
22951W        W39798   7.681  16.934  16.466 -0.0118 -0.0831 -0.1635
22952W        W39799  16.736   7.573  15.498  0.1303 -0.0945 -0.1292
22953W        W39800   9.640  13.068  14.309 -0.1975 -0.2421 -0.0505
22954W        W39801   0.167  11.345   4.234  0.1930  0.3460 -0.0322
22955W        W39802  12.151  14.337   1.819 -0.0659 -0.0568  0.1471
22956W        W39803  13.261   1.953  14.757 -0.1333 -0.2000  0.0024
22957W        W39804  15.473  17.248  15.148 -0.0515 -0.0597  0.0625
22958W        W39805  16.986  13.100   4.284  0.1168  0.3527  0.0691
22959W        W39806  14.812   1.674  12.966  0.2174  0.2511  0.0591
22960W        W39807   1.007   8.174  13.240  0.1457  0.2931 -0.1036
22961W        W39808   8.827  17.625  12.989 -0.0456 -0.2074 -0.0089
22962W        W39809   8.275  11.677   2.994  0.1180  0.2215 -0.1250
22963W        W39810  14.292  13.156   0.293 -0.1459  0.0859 -0.2070
22964W        W39811   2.728  10.085  13.624 -0.1647  0.2171  0.1823
22965W        W39812   1.289   0.494  15.108  0.0206 -0.0411  0.3632
22966W        W39813  15.251   4.878  14.010  0.1799  0.0713 -0.0529
22967W        W39814   8.950   1.261   3.617  0.0407  0.2328  0.0730
22968W        W39815   2.067   9.772  12.760  0.1353 -0.1688  0.2883
22969W        W39816  14.788   0.696   0.525 -0.3068  0.0380  0.1528
22970W        W39817  10.281  13.953   0.976 -0.1413 -0.1266 -0.0746
22971W        W39818   1.633  16.082  16.306 -0.0629  0.2844 -0.1536
22972W        W39819  10.327   5.485   0.701 -0.0752  0.0205  0.0981
22973W        W39820  13.152  10.393  12.170  0.0599 -0.1835 -0.0908
22974W        W39821   2.351  17.349  14.085  0.1791  0.0445 -0.1402
22975W        W39822   8.204   5.585  16.609  0.0178  0.0789  0.1207
22976W        W39823  17.763   6.349  13.878 -0.0618 -0.0250  0.0643
22977W        W39824  16.735   9.425   2.764  0.3308  0.0653  0.0714
22978W        W39825  17.481   0.066   3.652  0.1734  0.1346  0.0886
22979W        W39826   3.336   6.886   1.187  0.2346  0.1134  0.2635
22980W        W39827   6.328   0.815   4.602  0.1921 -0.2283 -0.1557
22981W        W39828   5.237   0.308   0.800 -0.0881  0.0638 -0.1224
22982W        W39829   5.969  17.693   3.889  0.1581  0.1296 -0.0146
22983W        W39830   1.409  10.526  12.983  0.1035  0.0319 -0.0451
22984W        W39831   7.130  15.329   3.040 -0.0123 -0.1129 -0.0755
22985W        W39832   3.436  16.059   4.982  0.1381 -0.0128 -0.0012
22986W        W39833   6.793  11.490  16.133  0.1309 -0.0838  0.1019
22987W        W39834  11.612  17.911  11.208  0.0346 -0.0638 -0.1324
22988W        W39835  10.740  12.172  13.167 -0.1181  0.1495  0.2088
22989W        W39836  15.452  14.027   2.470  0.2022 -0.0366  0.1050
22990W        W39837  17.145  16.496  12.200  0.2033  0.3548  0.4401
22991W        W39838   4.141  15.670  15.205  0.0456  0.0218  0.1923
22992W        W39839   7.736  14.305  16.475  0.0680 -0.0820 -0.0552
22993W        W39840  12.751  13.145  13.804  0.0514 -0.0372  0.0200
22994W        W39841   0.837   0.097   1.414  0.1221 -0.2095  0.2699
22995W        W39842  17.194  11.398  14.295 -0.0468  0.3100  0.0764
22996W        W39843   4.540   7.419   0.526 -0.2085 -0.1649  0.2835
22997W        W39844   9.098  17.106   1.792 -0.2201 -0.1431 -0.0817
22998W        W39845  10.307   5.022   4.385  0.2849 -0.0938 -0.2783
22999W        W39846  13.811   3.981  13.587  0.1146 -0.1128 -0.1579
23000W        W39847   8.736   7.938   1.019 -0.0799  0.0308 -0.1259
23001W        W39848  12.042  16.526   3.805  0.0928  0.0156  0.2239
23002W        W39849   8.569   5.600   0.731 -0.1771 -0.0754  0.0295
23003W        W39850   4.878   0.669   2.208 -0.2077 -0.0486  0.1034
23004W        W39851   5.532  14.284   0.299  0.3168  0.0432  0.1716
23005W        W39852   6.223   7.923  12.896  0.0871 -0.0027 -0.2136
23006W        W39853   5.449  16.950   4.138  0.1045  0.0906  0.2560
23007W        W39854  14.764   1.419  14.703 -0.0669 -0.0597  0.2345
23008W        W39855   0.852  13.937   4.326 -0.0003 -0.3851  0.2892
23009W        W39856   0.608   0.010  11.723  0.0408  0.0049  0.2315
23010W        W39857   2.160  16.958  15.699 -0.0547 -0.0832  0.0945
23011W        W39858  15.180   4.596   3.212  0.1313  0.1675 -0.2295
23012W        W39859   7.490  11.614   4.760  0.0020 -0.0024  0.3763
23013W        W39860   6.890   1.816   5.241 -0.1148  0.5009  0.0571
23014W        W39861   2.230   5.296   3.763 -0.4173 -0.1943  0.0289
23015W        W39862   4.952   7.113   0.328  0.5390  0.2552  0.1625
23016W        W39863   3.636  11.158   1.055  0.0678  0.1994  0.0507
23017W        W39864  14.065  13.259   5.388  0.0168 -0.3329  0.1689
23018W        W39865  12.853   2.582  15.881 -0.1865 -0.0888  0.2638
23019W        W39866   4.828  16.835   4.193  0.1961  0.0196  0.0430
23020W        W39867   5.776   0.854   2.605  0.1804  0.0417 -0.0314
23021W        W39868  16.318   2.673   2.396  0.1797  0.0695  0.1625
23022W        W39869   1.619  13.600   6.711 -0.0370 -0.0637  0.2781
23023W        W39870  17.444   1.518  14.615 -0.1689 -0.1611  0.2247
23024W        W39871  16.447   1.043  15.322  0.1984  0.0758  0.0845
23025W        W39872   6.134   5.655  12.560 -0.1522  0.0355 -0.1374
23026W        W39873   5.873   3.850  12.726  0.2262 -0.0138 -0.0588
23027W        W39874  17.819  10.762   3.160 -0.1102  0.1275 -0.0787
23028W        W39875   8.993  15.823   3.819  0.1082  0.0485 -0.0209
23029W        W39876   3.224  13.782   4.327  0.0826  0.0858  0.0537
23030W        W39877  13.692   7.257   4.370  0.1162  0.1145  0.0353
23031W        W39878  16.732   0.302   1.268  0.0884 -0.1165 -0.0918
23032W        W39879   8.311   7.291  14.115  0.1304  0.1451  0.1293
23033W        W39880   1.905   0.915   0.925  0.0851  0.3105 -0.1403
23034W        W39881  10.202   3.115  15.905 -0.3908 -0.0806 -0.0280
23035W        W39882   4.232  12.203  14.744 -0.0074 -0.3312 -0.4190
23036W        W39883   2.840   9.939  14.875 -0.3115  0.1711 -0.2322
23037W        W39884   8.415   8.213   5.498 -0.0102  0.0293  0.0697
23038W        W39885   4.707  15.350   3.236 -0.2294  0.2441 -0.0408
23039W        W39886   5.431  14.178   1.192 -0.0499  0.0519 -0.0025
23040W        W39887  18.057   0.300   0.100  0.0263 -0.0928 -0.2094
23041W        W39888   6.830   0.491   3.901  0.0667 -0.1927  0.0059
23042W        W39889  14.985   8.709  11.724  0.2045 -0.0143 -0.0080
23043W        W39890  17.555  12.955  11.904 -0.1584  0.0735 -0.2718
23044W        W39891  14.547  10.782   5.510  0.0488 -0.2159  0.1310
23045W        W39892   6.100  13.579  14.708 -0.3286  0.1293 -0.1866
23046W        W39893   2.902   2.167  13.843 -0.1523 -0.1020 -0.4354
23047W        W39894   8.305   1.130   2.358  0.2350  0.4246  0.0703
23048W        W39895  11.789   0.017  13.821 -0.0841  0.0029  0.1101
23049W        W39896   1.000  15.092  14.404  0.1734 -0.1047 -0.3312
23050W        W39897   9.491   7.679  14.615  0.1364  0.0448  0.0715
23051W        W39898  14.350   9.781   4.222 -0.0775 -0.1009 -0.0589
23052W        W39899  15.949  14.821   5.242 -0.0461 -0.0081 -0.2473
23053W        W39900  16.927  17.352  12.875  0.1499 -0.5039 -0.1436
23054W        W39901   6.232  11.770   5.939  0.2124 -0.0249  0.1924
23055W        W39902  12.071   8.406   4.647 -0.5222  0.2304  0.5520
23056W        W39903   5.711  14.296   1.730  0.0791 -0.1295  0.1431
23057W        W39904  10.086   0.833   3.235 -0.5025 -0.1987  0.1331
23058W        W39905   1.249   7.422   0.282  0.0452  0.3337 -0.4162
23059W        W39906  15.651   2.834   5.670 -0.0287 -0.0669  0.1471
23060W        W39907  11.517  16.938   4.719  0.1365  0.0711  0.2782
23061W        W39908   6.167  10.929   2.665  0.2688  0.1441  0.0796
23062W        W39909   4.902   9.777   3.559 -0.1258  0.4320  0.1418
23063W        W39910   3.325  15.331  13.915 -0.1986  0.2215 -0.3912
23064W        W39911  16.059  16.151  15.008  0.1825 -0.1866  0.5048
23065W        W39912  15.511  11.773  16.209 -0.0538 -0.1028  0.2175
23066W        W39913  11.711   0.150   3.654  0.0621 -0.0222  0.1954
23067W        W39914  12.705  17.344  15.160 -0.0614 -0.0566 -0.1289
23068W        W39915  11.883   7.211   3.555  0.1619 -0.0392  0.0958
23069W        W39916   6.989   8.830   3.057  0.0304 -0.1289  0.0831
23070W        W39917   1.400   6.518  16.662 -0.1584  0.1365  0.0522
23071W        W39918  17.089  10.333   6.448  0.0627 -0.2247  0.0147
23072W        W39919  17.093  14.835  16.403  0.0262 -0.2117 -0.0180
23073W        W39920   3.817  18.032  11.608 -0.0340  0.1428  0.2949
23074W        W39921   8.375  13.864   1.638 -0.3220  0.0462 -0.0357
23075W        W39922   7.212  17.120   5.111  0.0562 -0.0128  0.1157
23076W        W39923   4.674   1.649   4.821 -0.1186 -0.1601  0.1534
23077W        W39924  16.668  15.124  16.122 -0.1110 -0.0342  0.2462
23078W        W39925   6.451   4.863  14.097  0.1594  0.0034 -0.0695
23079W        W39926   2.034  13.789  14.917 -0.1480  0.0764 -0.4070
23080W        W39927   6.490  18.018   0.475 -0.0525  0.0849  0.1081
23081W        W39928  11.483   3.568  13.501 -0.1353 -0.1495 -0.0368
23082W        W39929  14.877  13.195  11.852 -0.0337  0.1560  0.1943
23083W        W39930  16.664  16.724   1.277  0.1253  0.1579  0.1156
23084W        W39931   9.880  11.540   4.945  0.0922  0.2150  0.0781
23085W        W39932   1.447  16.042   0.984  0.0537  0.1310 -0.3008
23086W        W39933  10.263  10.763   5.436 -0.1961 -0.0578 -0.4496
23087W        W39934   7.337  13.997  15.447  0.1178 -0.0195  0.0753
23088W        W39935   1.779  12.663   4.388 -0.3719 -0.0097 -0.1814
23089W        W39936   7.732   5.999   5.617 -0.0208 -0.1671  0.0929
23090W        W39937  17.969   4.760   2.392 -0.0239  0.2214  0.0734
23091W        W39938   5.241  14.912  16.622 -0.5333  0.2513  0.1369
23092W        W39939   6.548   1.850  14.623 -0.0423  0.0197 -0.0600
23093W        W39940   6.415   5.339   4.730 -0.0352  0.1299 -0.1330
23094W        W39941   0.454   5.504   4.054  0.1308 -0.2193 -0.1936
23095W        W39942   9.760  14.891   3.442 -0.0975 -0.2960 -0.3712
23096W        W39943   3.908  17.036   2.669 -0.0440  0.0647 -0.1893
23097W        W39944   9.601   9.756  12.306  0.2552  0.0414  0.1001
23098W        W39945   8.454   7.306  12.544  0.1406 -0.0997  0.2998
23099W        W39946   2.249   2.316  12.452 -0.2266  0.5094 -0.2427
23100W        W39947  16.456  10.253   4.197 -0.0291 -0.1098 -0.0089
23101W        W39948   4.316  17.739   0.336 -0.1972 -0.3045  0.0521
23102W        W39949   7.839  14.853   4.665 -0.1219  0.2906 -0.0510
23103W        W39950  15.558  17.603   4.482 -0.1032  0.1583  0.3050
23104W        W39951  12.267  10.669  14.241  0.1915 -0.1437  0.0676
23105W        W39952   1.986  16.579  15.400  0.0788  0.2182  0.1911
23106W        W39953  13.352   6.443   1.209 -0.1255 -0.2055 -0.1847
23107W        W39954  12.774   5.531   5.375 -0.0288  0.4639  0.3031
23108W        W39955  15.693   8.070   0.193 -0.0599 -0.2343 -0.0711
23109W        W39956   4.213  12.423  12.407 -0.1187 -0.3349  0.1961
23110W        W39957   3.215   2.259   4.201 -0.2114 -0.4061  0.1763
23111W        W39958   2.762  17.881   2.264 -0.3932 -0.0072  0.1146
23112W        W39959  12.354   7.942   5.253 -0.0041 -0.1445 -0.0054
23113W        W39960  17.420   0.164  12.405 -0.4378  0.0685 -0.3419
23114W        W39961   7.773  13.789   1.772  0.1475  0.3412 -0.1672
23115W        W39962  15.953  10.582  13.314 -0.0986  0.0135  0.1342
23116W        W39963  15.842   5.729  14.054 -0.0440  0.1073  0.1044
23117W        W39964   2.442   1.094  12.077  0.1650  0.1204  0.1180
23118W        W39965   9.459  13.677   3.643  0.0512  0.1705 -0.2408
23119W        W39966   4.055  14.223  13.581 -0.1270  0.3971  0.2427
23120W        W39967  13.412   6.618   1.699  0.0016  0.3566 -0.4092
23121W        W39968   3.654   8.321   4.422  0.1432 -0.0856  0.1392
23122W        W39969   5.004  17.689  14.402  0.0336  0.1356  0.4921
23123W        W39970  12.211  14.628  15.848 -0.0445  0.0589 -0.3102
23124W        W39971  11.220   9.143   1.586 -0.1063  0.0876 -0.0172
23125W        W39972   1.924   5.284  14.780  0.3709  0.1564 -0.1952
23126W        W39973   8.339   2.910   2.306 -0.0165 -0.2733 -0.0159
23127W        W39974   4.515   3.941   0.455  0.1195  0.0839 -0.3671
23128W        W39975   8.232   1.529  15.474  0.0514  0.0166 -0.4012
23129W        W39976  17.279  11.038   5.630 -0.2043  0.1162 -0.2428
23130W        W39977   9.001   1.074  12.157  0.0143  0.3476 -0.3322
23131W        W39978   9.400   5.696   4.827 -0.2252 -0.0017  0.2001
23132W        W39979   1.783   0.687   5.103 -0.0858 -0.1401  0.0591
23133W        W39980  16.136   0.032  12.495  0.3158  0.0126  0.2089
23134W        W39981  17.048  15.631  13.147  0.0391 -0.0139 -0.0938
23135W        W39982  11.793   5.507   4.105 -0.2130 -0.1667  0.1435
23136W        W39983   0.252  14.645   5.351  0.0191  0.1253  0.0038
23137W        W39984   2.690   0.134   6.179  0.1243 -0.1196 -0.1845
23138W        W39985   6.185   2.181   5.086 -0.3592  0.0039  0.0111
23139W        W39986   2.450  15.282  14.943  0.1104  0.2086 -0.1577
23140W        W39987  12.702  10.998   3.164  0.2128 -0.3275 -0.1256
23141W        W39988  13.583  16.774   3.907 -0.3831 -0.3560 -0.1862
23142W        W39989  14.011   6.622  14.055  0.5297  0.0527 -0.5167
23143W        W39990  11.168   1.763   5.213 -0.2701  0.0794  0.1179
23144W        W39991   1.513   4.298   3.026 -0.4184  0.0092  0.1770
23145W        W39992   6.538  17.243  12.620  0.4419 -0.1912  0.1134
23146W        W39993   5.942  11.681  14.596 -0.2058 -0.1875 -0.2538
23147W        W39994   9.968  16.679  13.151 -0.3402 -0.1080  0.1046
23148W        W39995  14.540   2.487  13.097 -0.1543 -0.1107  0.0599
23149W        W39996   9.000   0.035   4.196 -0.0399 -0.3939  0.1720
23150W        W39997  14.908  15.806  16.557  0.0162  0.2108  0.1873
23151W        W39998   3.084   9.133  12.599  0.1104 -0.2278  0.1592
23152W        W39999   4.011   1.031   4.528 -0.0631 -0.0655  0.4280
23153W        W40000   5.557  13.989   3.176 -0.3018  0.2452 -0.3691
23154W        W40001   3.131   6.529   0.888 -0.1275  0.1294 -0.0868
23155W        W40002  11.188   1.851  13.928  0.0099 -0.1095 -0.1599
23156W        W40003  12.647   1.563  13.679 -0.0130 -0.2313  0.1008
23157W        W40004   2.328  10.551   2.828 -0.0495 -0.3389  0.1107
23158W        W40005  12.450  12.035  12.758  0.0655 -0.2094  0.1512
23159W        W40006   7.168  13.830   0.366 -0.1170 -0.0017  0.2522
23160W        W40007  15.824   0.768  15.828  0.0681 -0.1970  0.1447
23161W        W40008  10.337   5.880   4.970  0.0306  0.0436  0.3097
23162W        W40009  17.429   3.782   4.048 -0.1285 -0.4681  0.1147
23163W        W40010  13.148  10.458  14.672 -0.1323  0.0553 -0.2084
23164W        W40011  10.704   3.420   1.677  0.0369 -0.2735  0.0027
23165W        W40012   9.540  13.367   4.122  0.2144  0.0198  0.0712
23166W        W40013  10.909  18.068   3.501  0.0661  0.1530  0.1765
23167W        W40014   9.719   2.330  10.654  0.0392 -0.2253 -0.0213
23168W        W40015   3.992   5.041  12.399 -0.3161  0.2058 -0.1053
23169W        W40016   5.516   5.127   2.744  0.0454  0.2214 -0.0268
23170W        W40017   6.178  10.793  15.673  0.1298  0.0392  0.0653
23171W        W40018  14.586   6.306   5.238  0.0140  0.1760 -0.0185
23172W        W40019  10.427   7.584   0.976 -0.1138 -0.0523 -0.3864
23173W        W40020   8.769   8.654  15.179  0.1886  0.0689 -0.2165
23174W        W40021  13.525   6.188   2.520 -0.1001 -0.1522 -0.1353
23175W        W40022  11.625   1.014  15.281  0.0763  0.1002  0.1610
23176W        W40023   1.291   1.717  14.030 -0.0209 -0.2648 -0.1039
23177W        W40024  16.886   4.606   5.477  0.1815  0.1094 -0.0097
23178W        W40025  14.919   6.286  12.595 -0.1265  0.0281 -0.0599
23179W        W40026  17.727  17.792  16.460  0.0036 -0.1314  0.0051
23180W        W40027  13.497   1.223   2.948  0.2166  0.1438 -0.1131
23181W        W40028   8.089  10.361  14.594  0.0254  0.0824 -0.0845
23182W        W40029  14.174  11.943   5.644 -0.1650  0.1714 -0.1591
23183W        W40030  15.697   2.162   1.208  0.2313 -0.0616 -0.0061
23184W        W40031  17.582   2.258   2.293  0.2157 -0.1389  0.2810
23185W        W40032   4.246  11.204   1.330 -0.2012  0.0482  0.3215
23186W        W40033  13.418   6.564  13.462  0.0672  0.0381  0.0945
23187W        W40034   8.427   4.781   0.008 -0.1898 -0.1263  0.1693
23188W        W40035   0.183  10.989  15.589 -0.0057  0.2448 -0.5485
23189W        W40036   4.816   1.669  16.458  0.1403  0.1926 -0.0524
23190W        W40037   1.461  10.628   0.266  0.3183  0.1071 -0.2862
23191W        W40038   5.567   6.711   0.754  0.1154  0.0774  0.3322
23192W        W40039  14.880   8.452   6.115 -0.3678  0.1897 -0.1732
23193W        W40040   6.923  15.108   5.090 -0.0450 -0.1416  0.1376
23194W        W40041   5.270   8.106   1.045  0.0410  0.1003  0.1117
23195W        W40042   0.810   2.034   3.354  0.0719  0.1540  0.2794
23196W        W40043  11.961  15.070  15.483  0.1641  0.3499  0.1418
23197W        W40044  14.677  14.950   2.852  0.0151 -0.0190  0.0554
23198W        W40045  12.209   7.176  15.578  0.1448  0.2511 -0.1016
23199W        W40046  14.714  11.024   2.692  0.0139  0.2010 -0.1668
23200W        W40047   5.359  14.845   0.486 -0.1198 -0.2656 -0.2915
23201W        W40048  10.278  11.409  13.395 -0.0709  0.0472 -0.0955
23202W        W40049   8.602   3.583   1.792  0.2580  0.2772  0.0057
23203W        W40050  15.306   5.485  15.790 -0.5407 -0.2031 -0.0276
23204W        W40051  10.639   3.462  12.883  0.0995 -0.1514 -0.1721
23205W        W40052   4.431  14.506  11.755  0.2163  0.1237  0.1568
23206W        W40053   5.354   6.011   1.702  0.0290  0.0204 -0.3191
23207W        W40054   4.068   3.617  14.663  0.0668  0.1383  0.0046
23208W        W40055  17.726  10.663  15.885  0.1075  0.0346 -0.2531
23209W        W40056  13.530   0.177   2.868 -0.2027  0.0847 -0.1091
23210W        W40057  17.239   5.857   3.990 -0.3635  0.0102  0.3510
23211W        W40058   5.033  13.134   3.565  0.0914 -0.0160 -0.0628
23212W        W40059   2.290  12.341  15.435  0.3511  0.0933 -0.3676
23213W        W40060   8.836  12.055  14.556  0.3833 -0.1932  0.4239
23214W        W40061   5.481   8.339   0.236  0.0877  0.0556  0.1000
23215W        W40062  13.633  14.208   1.832  0.3683 -0.4196  0.2558
23216W        W40063   5.386  10.793  12.233  0.1084 -0.0298  0.1304
23217W        W40064  12.263  17.865   0.013 -0.2100  0.0265 -0.0093
23218W        W40065   5.470   4.739   2.438  0.0886 -0.2244  0.2497
23219W        W40066  16.746  17.063   3.968 -0.1135 -0.1604  0.3148
23220W        W40067   9.548   2.329   4.251  0.0924  0.1508 -0.0663
23221W        W40068   0.938   2.907  15.911  0.0662  0.0379  0.3885
23222W        W40069   6.606  16.059  15.249 -0.1293  0.3973  0.0656
23223W        W40070  11.443   3.215   4.885  0.2332 -0.1292  0.0099
23224W        W40071  17.411   5.372  13.397 -0.2374 -0.1588  0.2723
23225W        W40072  10.737   6.320  13.523 -0.0428  0.2297 -0.4315
23226W        W40073  12.069  15.000  13.400 -0.0748 -0.3168 -0.0681
23227W        W40074   1.494  14.509  13.875 -0.0672  0.0744 -0.0725
23228W        W40075   0.317  13.193  11.903 -0.0918 -0.2290 -0.0482
23229W        W40076   3.105   8.472   3.655 -0.1413 -0.1869 -0.1375
23230W        W40077   8.278   1.069   0.096 -0.1967 -0.1991  0.1098
23231W        W40078  13.108  12.648  12.202  0.2491  0.0173 -0.2958
23232W        W40079   8.973   4.934   3.321 -0.3975  0.2274  0.1521
23233W        W40080   1.677   0.783  16.320 -0.2887 -0.2888  0.0105
23234W        W40081  17.685  13.898  13.530  0.0040 -0.0439  0.2149
23235W        W40082   4.900   5.549   4.920 -0.3243  0.3275 -0.3119
23236W        W40083   0.800  10.452  14.635  0.0178  0.0139 -0.0062
23237W        W40084  17.488   0.546   4.614 -0.1664 -0.1775  0.3031
23238W        W40085   4.771  14.354   2.107  0.3649 -0.0503 -0.2725
23239W        W40086   4.367   9.011  13.381 -0.3379 -0.0775  0.0079
23240W        W40087   9.866   1.642   3.350  0.1478 -0.2394 -0.4712
23241W        W40088   3.315   3.099  15.426 -0.0971 -0.1479  0.4769
23242W        W40089  11.706   6.970  15.314 -0.1228  0.2283  0.1435
23243W        W40090   6.328  11.517  16.209  0.1674 -0.1113 -0.1918
23244W        W40091  16.894   2.186   3.108 -0.0078  0.1710  0.0847
23245W        W40092  15.594  12.711  12.212  0.1507  0.0882 -0.0620
23246W        W40093   5.158  10.145  12.091 -0.1082 -0.0131  0.0531
23247W        W40094   0.485  14.116   2.509  0.1944  0.0545  0.1576
23248W        W40095  14.635   6.913   3.445  0.0350  0.1887  0.0849
23249W        W40096   7.456  12.560   1.865  0.0787 -0.2795 -0.0309
23250W        W40097  11.106   8.628  14.602  0.1622 -0.0870  0.1554
23251W        W40098  15.052  16.297   4.203  0.0696 -0.1212 -0.1630
23252W        W40099  15.895   7.288   1.447 -0.1244  0.2694 -0.2408
23253W        W40100  13.172  17.939   0.158 -0.1503  0.0873 -0.1019
23254W        W40101   9.422  13.136   4.593  0.0091 -0.1724 -0.0662
23255W        W40102  16.210   0.386  13.599  0.3017  0.2690 -0.0700
23256W        W40103   9.490   7.779   3.578  0.1372  0.2518 -0.0022
23257W        W40104   7.676   5.405   3.349  0.1740  0.0760  0.2511
23258W        W40105   4.888   7.381   4.525 -0.0535 -0.0487 -0.2300
23259W        W40106   6.234   6.666   3.329 -0.0075  0.0873  0.0167
23260W        W40107  11.768   3.993   5.295  0.1265 -0.0830 -0.2048
23261W        W40108   6.029   7.053  16.386 -0.1374  0.0100 -0.1661
23262W        W40109   4.846   4.040   5.481  0.0008 -0.2963  0.1681
23263W        W40110  13.879  14.734  14.035  0.1788 -0.0813  0.2972
23264W        W40111  17.953   2.696   0.540  0.2522  0.0259 -0.1590
23265W        W40112   8.008   6.454  13.447 -0.0981 -0.3058 -0.1224
23266W        W40113  17.769  12.973  15.422 -0.1185  0.2263  0.2746
23267W        W40114   3.744   2.203  12.678 -0.1375  0.1139  0.0059
23268W        W40115   6.339   5.906  12.116  0.0180 -0.0445 -0.2895
23269W        W40116   3.935  15.600  13.418 -0.2805  0.1482  0.1338
23270W        W40117   7.421   8.967  13.651 -0.1451 -0.1379 -0.1144
23271W        W40118   3.675   8.690   1.727  0.0199 -0.0050  0.0072
23272W        W40119   4.449  15.708  11.720 -0.1307 -0.1669 -0.0179
23273W        W40120   0.279   4.828  11.640 -0.2300 -0.2953  0.0664
23274W        W40121  10.824  10.079   1.197 -0.0593  0.2074  0.0412
23275W        W40122  17.069  14.919  11.542 -0.1244  0.1055  0.1321
23276W        W40123  11.131  13.547   5.093 -0.1320  0.0093 -0.1435
23277W        W40124   0.894  12.201  14.949  0.0270 -0.0740  0.0228
23278W        W40125   6.181   8.554  15.986  0.0046 -0.0060 -0.1598
23279W        W40126   7.006  16.284  12.538 -0.2727 -0.0938  0.0570
23280W        W40127  12.880   2.092  15.846 -0.0461  0.0910 -0.0270
23281W        W40128   3.428   9.502   5.831  0.1072 -0.3287  0.1693
23282W        W40129   1.273  17.567  12.810  0.1929  0.0934 -0.1759
23283W        W40130  15.584   7.326   2.425  0.2034 -0.1057  0.0664
23284W        W40131  15.986  12.667  15.683  0.0379  0.0259  0.1584
23285W        W40132  16.355   0.862  14.143  0.0049 -0.0495 -0.2090
23286W        W40133  14.125   1.307   4.475  0.1074 -0.0540 -0.0713
23287W        W40134  15.451   0.750  14.543 -0.2801 -0.1047  0.2705
23288W        W40135   7.179  10.867   3.479 -0.2102 -0.0327 -0.0185
23289W        W40136  15.776  15.429   1.794  0.0516 -0.0289 -0.0419
23290W        W40137  16.021   1.215  15.586 -0.0515 -0.2371 -0.2716
23291W        W40138   5.495   1.940   3.952  0.1338 -0.0523 -0.3153
23292W        W40139   0.821   2.311  15.219  0.2367 -0.2049 -0.0643
23293W        W40140  15.144  10.029  11.761  0.0030 -0.0566 -0.1384
23294W        W40141  15.092   4.027   3.303 -0.0722  0.2518 -0.0349
23295W        W40142   3.629   5.189   0.818  0.0127  0.0354  0.1072
23296W        W40143   5.285  11.317   4.115  0.0496  0.1392  0.2119
23297W        W40144  10.730   6.246   4.944  0.0165 -0.1687  0.2227
23298W        W40145   0.125  11.130  14.567 -0.1406 -0.0983 -0.1805
23299W        W40146  15.455   0.174   2.801  0.1365 -0.2263  0.1246
23300W        W40147   7.472  16.477   1.255 -0.0486  0.0621 -0.1322
23301W        W40148   5.503  17.808  14.998  0.1324 -0.0427  0.0282
23302W        W40149  16.815   2.217  13.785  0.0944 -0.0409 -0.1180
23303W        W40150   8.905  17.351   1.178 -0.0868 -0.0145  0.0735
23304W        W40151   4.897   8.315   4.830 -0.0614 -0.1894 -0.0933
23305W        W40152  10.456  15.324   4.892 -0.1449 -0.0303  0.1809
23306W        W40153   4.170   1.619   2.649 -0.3123 -0.2680  0.0288
23307W        W40154  14.742   0.865  15.042 -0.0998 -0.3296  0.2923
23308W        W40155  11.235  14.456   2.234 -0.1147  0.1009  0.0739
23309W        W40156   4.689   9.308  12.148  0.0735  0.0698  0.2046
23310W        W40157  17.178  16.411   2.558 -0.2163 -0.3427 -0.0729
23311W        W40158   3.478   2.796   2.287 -0.2699  0.1806 -0.2071
23312W        W40159   1.395   4.465  14.248 -0.1297 -0.1163 -0.0266
23313W        W40160   8.914   6.501  12.173  0.1721  0.0239  0.1785
23314W        W40161   2.178   3.479  14.944  0.2146  0.0345  0.1710
23315W        W40162  15.169   2.775   5.506 -0.2235  0.0855  0.2035
23316W        W40163  10.501  13.085  12.832 -0.0308 -0.0482 -0.1758
23317W        W40164   0.920   9.634  13.027  0.1708 -0.2270 -0.3865
23318W        W40165   6.428   6.930  13.805 -0.2749 -0.1208 -0.2108
23319W        W40166   9.324   0.120  16.644  0.0272 -0.0021 -0.1769
23320W        W40167   3.113   0.101  13.507 -0.1546  0.2669 -0.1772
23321W        W40168  13.834  13.132   1.936 -0.2172  0.2157 -0.0827
23322W        W40169  14.130   2.640  13.842 -0.0806  0.0226  0.0034
23323W        W40170  14.175  16.882   2.248 -0.2246  0.1154 -0.0509
23324W        W40171  10.433  14.342  16.408  0.1839 -0.2701 -0.2181
23325W        W40172  14.376   9.074   2.488  0.2222 -0.0520 -0.4325
23326W        W40173   7.067   8.105  15.088 -0.0575 -0.1343 -0.4014
23327W        W40174  14.064   0.172   2.911 -0.4303 -0.2965  0.3174
23328W        W40175  14.016  15.997  15.230  0.0804 -0.2409  0.3206
23329W        W40176  15.150  13.596  11.839  0.1245  0.0155  0.2440
23330W        W40177   4.563  17.761  14.755  0.1414 -0.2685 -0.1816
23331W        W40178  12.358   0.035   0.471 -0.0169 -0.0837 -0.5708
23332W        W40179   6.550   0.644   1.596  0.0343 -0.1481 -0.0311
23333W        W40180   9.736   6.341  15.188  0.1092 -0.4266 -0.2001
23334W        W40181  16.680  17.443   4.274 -0.2490  0.2743 -0.0078
23335W        W40182  10.941  13.565   1.366 -0.0017 -0.0743  0.2328
23336W        W40183  12.213  10.743  13.368 -0.0836 -0.1363  0.2141
23337W        W40184  17.267   0.887   3.278 -0.0930 -0.0615 -0.1366
23338W        W40185  13.397   0.152  12.065  0.1662  0.2857 -0.5118
23339W        W40186  15.483   6.493   3.514  0.3200 -0.1411  0.1486
23340W        W40187   6.972  15.087  14.821  0.2238 -0.2225  0.0223
23341W        W40188  12.922  18.008  12.774 -0.0493  0.1476 -0.1158
23342W        W40189   3.012   0.716  14.992 -0.2508  0.5118 -0.1810
23343W        W40190   4.089  12.825   4.907  0.0130  0.1541 -0.2433
23344W        W40191   5.083  15.287   5.870  0.4244 -0.3563 -0.2898
23345W        W40192  13.009   2.946   3.506  0.0176  0.1594  0.1897
23346W        W40193  13.710   0.936   5.050  0.0783 -0.4105  0.2093
23347W        W40194   8.841  13.086  16.256  0.0260  0.1409  0.3890
23348W        W40195   5.003   0.159  14.502  0.0790  0.1616  0.2364
23349W        W40196  16.768   0.688  15.354 -0.2102 -0.1599 -0.0034
23350W        W40197   1.760   2.783  14.571 -0.0721 -0.0787 -0.3181
23351W        W40198   6.407   4.129   4.993  0.0987 -0.0677 -0.0445
23352W        W40199  10.941   1.644  11.964 -0.1337 -0.1165 -0.2836
23353W        W40200   1.088   9.167   4.812 -0.3836 -0.1816 -0.0450
23354W        W40201   3.559   1.016   1.976  0.0555  0.3735 -0.1481
23355W        W40202   2.605   5.508   0.257  0.0976 -0.0916  0.0927
23356W        W40203   2.382   8.553   2.942  0.1505  0.1624 -0.0557
23357W        W40204   6.994  16.072  14.816 -0.1808  0.1765  0.1059
23358W        W40205   9.683   3.473  12.729  0.1470 -0.2871 -0.0198
23359W        W40206  14.230   0.126   5.390 -0.0339 -0.1276  0.0656
23360W        W40207   4.528  12.406   4.527 -0.2139  0.2089 -0.1987
23361W        W40208   8.280   1.190  14.433 -0.1711  0.0929  0.0668
23362W        W40209   0.661  13.316  15.497 -0.1757 -0.0920 -0.0781
23363W        W40210   9.275   5.092   0.426  0.0455  0.1431  0.1130
23364W        W40211  16.584  11.186  13.009  0.0938 -0.1112 -0.0511
23365W        W40212   7.526   5.507  15.828  0.0564  0.1155  0.0513
23366W        W40213   7.381   6.221   5.368  0.0438 -0.0818 -0.0062
23367W        W40214  13.113   5.581  13.209 -0.0610 -0.2511  0.1846
23368W        W40215  15.861   8.545   1.177  0.0616  0.2486  0.0270
23369W        W40216   3.921   4.053  14.483 -0.1612  0.2738  0.1679
23370W        W40217  15.162  10.033  12.344 -0.0197  0.1462  0.2836
23371W        W40218   6.977   6.426   2.513  0.2938  0.2926  0.1686
23372W        W40219  16.041   5.134   0.739  0.1423  0.0262  0.0160
23373W        W40220   6.172   4.156   3.387 -0.0450  0.3715  0.0420
23374W        W40221  17.916   6.221  15.787  0.0133 -0.1680  0.1141
23375W        W40222  15.256   4.851  14.553 -0.0531  0.0628  0.0296
23376W        W40223   1.287  12.432   1.285 -0.1247  0.0010 -0.1466
23377W        W40224  11.437  17.244   0.040 -0.1665 -0.0952 -0.0173
23378W        W40225  10.963  16.552   4.651 -0.1756  0.1713 -0.1313
23379W        W40226  12.399  14.860  16.262 -0.0364  0.0647 -0.1548
23380W        W40227   6.465  13.635  15.438 -0.1248 -0.0836  0.3193
23381W        W40228   2.338   2.394  14.870 -0.1446  0.0906  0.1931
23382W        W40229   1.780  16.105   5.504 -0.0150 -0.0660 -0.0914
23383W        W40230   9.465  12.081  15.811 -0.2166 -0.0398 -0.0624
23384W        W40231   6.215   1.059  13.326  0.3653 -0.0630 -0.0021
23385W        W40232  13.246   6.968  16.329  0.0328 -0.0282 -0.0989
23386W        W40233   2.086   7.218   2.775  0.0520 -0.1801  0.1116
23387W        W40234  16.143  11.435   5.618  0.4512 -0.0528 -0.4111
23388W        W40235  13.855  11.128   4.991 -0.0061 -0.0219  0.3698
23389W        W40236   7.126  16.973  12.444  0.0883 -0.3694 -0.2028
23390W        W40237  10.464  15.897   4.923 -0.1297 -0.0664  0.2127
23391W        W40238  18.002   1.335   5.138  0.1146 -0.2784 -0.1265
23392W        W40239   2.486   2.357   4.953  0.0123 -0.1788 -0.1126
23393W        W40240   3.751   0.852   5.408 -0.1358 -0.1016  0.0271
23394W        W40241  13.195   8.143  13.574  0.1008  0.0079  0.2829
23395W        W40242   0.388   0.511   0.794  0.3178  0.1138  0.0465
23396W        W40243  16.573  17.949  12.384 -0.1818  0.0804 -0.0723
23397W        W40244  16.837   8.588   0.859  0.0474  0.0007 -0.1093
23398W        W40245   7.546   9.819  12.107  0.1716 -0.1142 -0.1753
23399W        W40246  12.123  10.977   1.053 -0.0287  0.2052 -0.1530
23400W        W40247   3.388   5.107   4.922 -0.1676  0.0428  0.0247
23401W        W40248  14.321  12.443   5.514 -0.0356  0.1761 -0.2258
23402W        W40249   3.409   6.546  15.288 -0.1458 -0.1265  0.2416
23403W        W40250   5.410   4.593  12.551 -0.1464 -0.1444  0.0306
23404W        W40251  10.604   4.608  12.434 -0.0861  0.0572 -0.3272
23405W        W40252  15.011   9.043   3.197  0.2462 -0.2433  0.1179
23406W        W40253  12.519   8.015  15.521  0.3779 -0.1423  0.2829
23407W        W40254  14.706  17.559  15.065  0.1515  0.0959 -0.3657
23408W        W40255   1.094  15.444  15.348  0.0723 -0.2830 -0.1456
23409W        W40256  10.182   7.046   2.453 -0.0626  0.1736  0.2135
23410W        W40257  15.744   2.830   3.576  0.0752  0.1396 -0.1982
23411W        W40258   2.947  17.981  11.537  0.2102  0.0363 -0.2028
23412W        W40259  14.023  17.114  16.259  0.4436  0.1528  0.1510
23413W        W40260   0.006   4.206  13.954  0.1173  0.2224  0.2105
23414W        W40261   7.197   1.330  13.468 -0.1609  0.1387 -0.0490
23415W        W40262  17.066   6.939  12.255 -0.0308  0.0811 -0.0870
23416W        W40263  11.199   1.584   3.123 -0.0611 -0.0888 -0.2574
23417W        W40264  13.463  16.873   0.642  0.0097 -0.0730  0.1021
23418W        W40265  14.572   5.960  15.439  0.1409  0.1020 -0.1911
23419W        W40266  13.758   7.660  14.900  0.1874 -0.0919 -0.2091
23420W        W40267  13.813  14.330   3.630 -0.1136  0.2239  0.2112
23421W        W40268   6.302   4.730  12.456 -0.2997 -0.1061 -0.0149
23422W        W40269   3.382   9.690  13.152  0.1908  0.1632 -0.1017
23423W        W40270   8.429   0.233  12.283 -0.3593  0.2997  0.0433
23424W        W40271  17.146   1.772   0.118 -0.0043 -0.2172  0.0523
23425W        W40272  12.932  17.400   2.879  0.2218  0.0001 -0.0273
23426W        W40273   0.969  14.621   3.197  0.2351  0.1339 -0.2030
23427W        W40274   7.996  13.884  16.299 -0.1502  0.1332  0.0638
23428W        W40275   4.872  12.325   4.892  0.0920 -0.0948  0.1628
23429W        W40276   3.633  15.624   4.065  0.1138  0.0571 -0.1790
23430W        W40277   9.393   8.124   3.959 -0.0018  0.0501 -0.0562
23431W        W40278   3.052  11.738  16.052  0.0609  0.3943  0.0825
23432W        W40279   7.612  17.153  15.384  0.2806  0.0280 -0.0092
23433W        W40280   9.631  12.715   1.209 -0.1559  0.0617 -0.0455
23434W        W40281   6.302  16.437  11.481  0.1664 -0.1657 -0.0221
23435W        W40282  12.337   8.476  14.673  0.1282 -0.2159  0.0894
23436W        W40283  13.622   9.757  14.489 -0.3888  0.0465  0.1691
23437W        W40284  17.976   3.509  13.989 -0.4698 -0.1181  0.1386
23438W        W40285   2.817   7.413   4.501  0.0439 -0.1212  0.1940
23439W        W40286   7.587  16.522  15.268 -0.3088  0.0175 -0.1539
23440W        W40287   7.113  10.198   0.724 -0.1321  0.1888  0.0071
23441W        W40288   4.856  11.156   2.344 -0.4616  0.0273 -0.0422
23442W        W40289   7.465  10.024   0.446 -0.1160  0.1026 -0.1177
23443W        W40290  10.049  15.416  14.261  0.2736 -0.0701 -0.0229
23444W        W40291  14.374  14.147   4.813 -0.3221 -0.0281  0.1529
23445W        W40292   0.802   7.824  16.315  0.2133  0.3566  0.2017
23446W        W40293   5.244  13.893   0.364 -0.1793 -0.1052  0.0837
23447W        W40294   5.475  16.403   0.946  0.2761  0.1237  0.4980
23448W        W40295  12.339  15.853  13.688  0.3590  0.0501  0.1517
23449W        W40296  10.405   5.319   4.015  0.1266 -0.1535  0.0864
23450W        W40297  13.476  12.769   0.573 -0.1725 -0.1590 -0.1050
23451W        W40298   0.304   1.351   1.174  0.0164 -0.0648  0.0020
23452W        W40299  10.301  11.534  12.450  0.1286 -0.0672 -0.3471
23453W        W40300   3.755   5.161   2.324  0.1850  0.0568  0.0271
23454W        W40301  13.230  14.020   0.209  0.2429  0.1575 -0.0933
23455W        W40302   6.636  11.203   3.700 -0.1012 -0.1481  0.0442
23456W        W40303  16.352   4.890  15.824 -0.3058  0.0411  0.1591
23457W        W40304  15.712   3.595  14.632 -0.0721 -0.0835 -0.1121
23458W        W40305  12.535   8.432  13.112  0.3654  0.0701 -0.0834
23459W        W40306   5.716   1.229   1.718 -0.0095 -0.3487 -0.2010
23460W        W40307   7.523   5.317   6.197  0.0395 -0.0503 -0.1834
23461W        W40308  15.803   9.333  16.545  0.0630 -0.0063 -0.2054
23462W        W40309   3.829  16.029   3.738 -0.0768  0.2560 -0.0824
23463W        W40310   1.237   7.172  11.994  0.1717  0.0225 -0.1272
23464W        W40311  17.054   6.762  11.553 -0.2599  0.0303  0.2297
23465W        W40312   8.061   5.559   4.286  0.0104 -0.2189  0.0085
23466W        W40313  17.300  12.279   1.168  0.2595  0.0471  0.2037
23467W        W40314  11.124  14.825   0.946 -0.3336  0.3839  0.0191
23468W        W40315  15.193  10.240   4.372  0.1596 -0.1697 -0.0123
23469W        W40316  13.899   0.220   0.450 -0.2648  0.1389 -0.0429
23470W        W40317   1.580   9.224  11.603 -0.1713  0.1085 -0.1037
23471W        W40318   2.203   2.824   6.072 -0.1291  0.2069 -0.1427
23472W        W40319   1.137  11.735  13.220  0.0580  0.0994  0.3164
23473W        W40320  16.865   3.026  14.742  0.1780  0.0674  0.0419
23474W        W40321   3.565  11.626  11.627 -0.1332  0.0690 -0.1581
23475W        W40322   4.916  16.625  15.388  0.1481 -0.1696 -0.4208
23476W        W40323  13.715   0.024  12.446  0.0497  0.3356 -0.1015
23477W        W40324  11.679   9.259   1.980 -0.0131 -0.2051 -0.1704
23478W        W40325   7.945  17.475  16.579  0.0349 -0.1041  0.0748
23479W        W40326   9.567   2.923   4.962 -0.2037  0.1082 -0.1121
23480W        W40327   5.076  10.960  13.208  0.1420 -0.0456  0.3939
23481W        W40328   8.787   8.679   0.795 -0.0145  0.2909 -0.1364
23482W        W40329   5.733   0.155   1.552  0.0506  0.3017 -0.1272
23483W        W40330   6.167   6.287  13.114  0.2614  0.0385 -0.3027
23484W        W40331   0.594   4.115   3.172  0.3269  0.2711 -0.1967
23485W        W40332   9.838   6.880   4.376  0.1261  0.3770  0.3013
23486W        W40333   8.966  14.858  15.444 -0.0081 -0.2005  0.0041
23487W        W40334   3.962  15.363   6.236  0.3082  0.1763 -0.1475
23488W        W40335   9.510  13.127  13.024  0.1121 -0.1153 -0.1533
23489W        W40336   9.238   9.538  15.921 -0.1054  0.5062 -0.3166
23490W        W40337  16.234   6.180   3.175  0.1868 -0.0088 -0.2834
23491W        W40338  11.244  10.610  14.570  0.5360  0.2522  0.1216
23492W        W40339  16.253   8.290   5.767 -0.3185  0.2387 -0.3191
23493W        W40340  12.873  12.259  14.819 -0.1089 -0.2221 -0.0277
23494W        W40341   6.072   0.829  12.903 -0.4388 -0.0156 -0.1343
23495W        W40342   1.154   1.124  11.793  0.2551  0.2190  0.1895
23496W        W40343   4.718  11.571  12.143  0.0685 -0.1805  0.0695
23497W        W40344  11.533   4.669  12.757  0.2600 -0.1336 -0.0018
23498W        W40345  16.031   1.327  15.104  0.1940 -0.0145  0.0513
23499W        W40346  10.774   1.429   5.020 -0.4117  0.1440 -0.1594
23500W        W40347  16.794   1.884   1.959  0.2692  0.1418  0.2845
23501W        W40348   7.067  15.559   1.729  0.0482  0.0323 -0.0561
23502W        W40349   4.950  17.298   3.387  0.1801 -0.1625 -0.1586
23503W        W40350  12.304   6.251   5.682 -0.0554 -0.0039 -0.0713
23504W        W40351  14.887  15.937   4.574 -0.4310 -0.0173 -0.3385
23505W        W40352  15.604   4.604  11.577 -0.0775  0.1710 -0.0070
23506W        W40353  11.032   1.896   2.690 -0.0185 -0.0580 -0.0542
23507W        W40354  16.607   3.454   4.759  0.3014 -0.2564 -0.0360
23508W        W40355  12.652  11.936   4.311  0.0409 -0.3203 -0.1445
23509W        W40356   5.966  10.969  15.177  0.1290  0.0779  0.1359
23510W        W40357   3.929  16.978   3.314 -0.2830 -0.0114  0.0268
23511W        W40358   6.482  15.959   2.816 -0.0438 -0.0279  0.3303
23512W        W40359   9.317   5.607   3.906  0.0941  0.1232  0.3936
23513W        W40360  15.544   9.932   2.147  0.2570 -0.1494  0.3799
23514W        W40361   1.092  17.307   5.822  0.2028  0.1907 -0.2130
23515W        W40362  14.190  14.436   5.163 -0.0362  0.0123  0.1285
23516W        W40363   0.049  11.025   2.433 -0.1084  0.0565  0.0156
23517W        W40364   2.489   5.239  14.783  0.0125  0.2084 -0.2345
23518W        W40365   9.947  17.059  12.201 -0.0602  0.0135  0.0205
23519W        W40366  12.915  13.228  15.154  0.1938  0.2430  0.0790
23520W        W40367   7.792  15.459   0.435 -0.0803  0.0323  0.2196
23521W        W40368  14.647  13.558  11.532  0.0888 -0.2711  0.3268
23522W        W40369  15.062  15.118   0.597 -0.0208  0.0455 -0.0987
23523W        W40370  12.029  14.041   5.202 -0.2229 -0.0274 -0.3432
23524W        W40371  15.064   7.066  12.921 -0.1768 -0.2461 -0.2211
23525W        W40372   9.810  15.225   2.896  0.3377  0.1764 -0.3203
23526W        W40373  11.978  11.740  14.420 -0.3512  0.1131 -0.0339
23527W        W40374   8.484  11.818   2.515 -0.2370  0.0752 -0.1200
23528W        W40375  11.170   5.405  16.438  0.1179  0.0246  0.5628
23529W        W40376   1.276   8.111   4.022  0.3929  0.0346 -0.0297
23530W        W40377   2.612  18.036   1.772  0.0175  0.1116  0.0910
23531W        W40378  12.019   8.222  12.312 -0.1636 -0.3268  0.1234
23532W        W40379  10.187   5.450   0.220  0.0706 -0.0782  0.0994
23533W        W40380   4.387   2.728  12.765 -0.1583  0.3243  0.2574
23534W        W40381   4.602  12.214  12.669 -0.2696 -0.1973 -0.1705
23535W        W40382   8.930  16.589  12.322 -0.1561  0.1521  0.0725
23536W        W40383   0.080  15.592  14.487 -0.0047  0.1465  0.1408
23537W        W40384  17.431  11.577  15.828  0.0997 -0.1561  0.1533
23538W        W40385  12.157  14.301  16.268 -0.1644 -0.1879  0.0171
23539W        W40386  17.195  11.629  16.420 -0.0798 -0.1612 -0.3118
23540W        W40387   3.265   3.116   4.028  0.0374 -0.1589 -0.1514
23541W        W40388   3.165  12.165   2.950 -0.0703  0.0305 -0.1072
23542W        W40389   3.013  17.358  13.280 -0.1792  0.0605 -0.2317
23543W        W40390  11.592   2.468   0.132 -0.0897 -0.0978 -0.1331
23544W        W40391   5.865  13.301  11.882 -0.0786  0.1014 -0.1417
23545W        W40392   7.551   9.485   3.638 -0.2138  0.1364  0.0041
23546W        W40393  18.071   4.702   1.195 -0.2412  0.0129  0.0106
23547W        W40394   7.619   1.022  11.941 -0.1738  0.1225 -0.0125
23548W        W40395  13.758  17.449  14.038 -0.0938 -0.0303  0.2243
23549W        W40396   6.472   7.082   5.114 -0.0478 -0.2004  0.3414
23550W        W40397   2.290   2.096   4.100  0.2426 -0.4054  0.0544
23551W        W40398   6.823  10.750   3.850 -0.3543 -0.0721 -0.4241
23552W        W40399  14.496   0.844   2.498  0.1900 -0.1221  0.0537
23553W        W40400   9.684   1.640  13.106  0.1125  0.0765  0.0579
23554W        W40401   1.671   4.921  13.858  0.3176 -0.2056 -0.1224
23555W        W40402   3.172   0.960  13.311  0.0940 -0.0703  0.0374
23556W        W40403   4.346  17.454   5.159 -0.0230 -0.2649  0.0796
23557W        W40404   8.881   6.791   2.223  0.0245  0.2673  0.0755
23558W        W40405   0.787   2.561   3.310 -0.1117 -0.1841  0.2501
23559W        W40406   6.580   3.013   3.162 -0.0551  0.0974  0.2627
23560W        W40407  14.080   2.655  16.260 -0.0763  0.1012 -0.1972
23561W        W40408  13.987  13.611  11.784 -0.1202 -0.0801 -0.0534
23562W        W40409   6.694  12.548   2.501  0.0454  0.0501  0.2362
23563W        W40410  13.881  13.319   3.621  0.0751 -0.0445 -0.1819
23564W        W40411  11.142   4.948  12.779  0.2810 -0.3662  0.1879
23565W        W40412  13.135  17.706   3.167 -0.0746 -0.0367 -0.0027
23566W        W40413  11.185   3.997  14.555  0.0051  0.0854  0.3289
23567W        W40414   6.285   4.600   4.776  0.0743  0.4136  0.3076
23568W        W40415   7.304  11.556  13.477  0.0330  0.0301  0.0509
23569W        W40416  12.747   2.870   0.353 -0.2014  0.1442 -0.4249
23570W        W40417   4.864   8.722   5.487 -0.2687 -0.0469  0.2126
23571W        W40418   9.984   3.264   3.491 -0.0470 -0.1442  0.0787
23572W        W40419   9.445   5.413  12.192  0.1468 -0.0080 -0.0485
23573W        W40420  15.278  15.228  14.355 -0.1355 -0.0292 -0.1150
23574W        W40421   8.025  11.122   3.532 -0.0730  0.2290  0.2604
23575W        W40422  11.900   8.366   3.181  0.1069  0.0802 -0.1231
23576W        W40423  12.468   7.463  12.743  0.2311 -0.1428  0.0634
23577W        W40424  13.351   8.638   3.258 -0.3302  0.0883  0.0437
23578W        W40425  17.473  16.938   5.004  0.1723 -0.1151  0.0082
23579W        W40426   8.032   5.299  12.477  0.0242 -0.0678 -0.0841
23580W        W40427  13.320   3.359  15.242  0.0207  0.0615 -0.1307
23581W        W40428   9.742  13.819   2.801  0.3171  0.1100  0.3948
23582W        W40429   1.037   3.549   6.026 -0.1135  0.1345 -0.0359
23583W        W40430   0.001   6.696   0.220  0.3023 -0.0519 -0.0856
23584W        W40431   1.710   7.318  16.651  0.0203  0.1609  0.0780
23585W        W40432  16.271  12.591   4.492  0.1335  0.1924 -0.0949
23586W        W40433  15.154   3.380   1.270 -0.0299 -0.0703 -0.1299
23587W        W40434  17.184   0.990  13.016  0.3483  0.3288 -0.0831
23588W        W40435  11.755  11.909  11.929 -0.0930 -0.0309 -0.0232
23589W        W40436  15.315   0.833  15.724 -0.2639 -0.1784  0.0119
23590W        W40437   2.762   2.702  11.801 -0.0882 -0.2531 -0.0513
23591W        W40438   3.403   9.043  15.300  0.1870  0.0542  0.0561
23592W        W40439  15.503   0.450  16.033 -0.4692 -0.2913  0.0922
23593W        W40440   6.433  11.932  13.242  0.0001  0.0537 -0.2780
23594W        W40441  17.378   0.422  16.100  0.1903 -0.1976  0.0736
23595W        W40442  16.893  16.776  12.964  0.3561  0.1025  0.0751
23596W        W40443   3.417  14.098  11.626  0.0468  0.2395 -0.1730
23597W        W40444  13.465  12.853  11.704 -0.0527 -0.3193  0.0029
23598W        W40445   6.082  15.769   4.507  0.1616  0.0172 -0.0446
23599W        W40446  10.934  14.007  12.650  0.0783  0.0988  0.2815
23600W        W40447  16.433   4.293   3.076  0.0406  0.0984 -0.1670
23601W        W40448   2.656   2.785   4.788  0.1195 -0.0230  0.0385
23602W        W40449   6.567   9.827   0.906 -0.1129 -0.2501 -0.0524
23603W        W40450   3.788   6.205   5.235  0.0736 -0.0060 -0.4557
23604W        W40451  11.709  13.562  13.690  0.2236 -0.0700  0.0467
23605W        W40452  14.115   7.012  13.170 -0.4054  0.3783 -0.0673
23606W        W40453   2.762   5.617   4.229 -0.0312 -0.2787 -0.1852
23607W        W40454   4.872   3.814  15.128 -0.0009 -0.0857  0.1994
23608W        W40455   0.412  16.499   3.581  0.0866  0.1092 -0.0421
23609W        W40456   8.765   7.627   1.468  0.2415  0.2679 -0.1349
23610W        W40457   4.733  10.865   1.458  0.0636  0.0431 -0.1709
23611W        W40458  15.292   5.965  12.605  0.0166 -0.1830  0.0341
23612W        W40459   0.954  16.000   0.093  0.0041 -0.2261 -0.3184
23613W        W40460   8.062   4.653  14.447  0.1749 -0.0127  0.0338
23614W        W40461  11.244   8.712  13.004 -0.0032 -0.1813 -0.2326
23615W        W40462   4.425  16.134   1.458  0.0882 -0.0792 -0.2257
23616W        W40463   4.223   1.283  15.232  0.0874 -0.0693 -0.4438
23617W        W40464   0.388  13.938   1.365 -0.2432  0.0129 -0.1789
23618W        W40465  16.698   3.119  12.879 -0.2819  0.1336  0.0527
23619W        W40466   0.909  15.938  15.506 -0.1793  0.0747  0.1525
23620W        W40467  16.168  10.921  11.855 -0.0763 -0.0120 -0.1381
23621W        W40468  15.455  13.980  13.495  0.1532 -0.2144  0.3142
23622W        W40469   2.925   0.038  15.870  0.0458  0.0599  0.4845
23623W        W40470  17.381   3.754   3.515  0.1386  0.2372 -0.1598
23624W        W40471   4.711   9.949  14.529  0.1190  0.0167  0.4203
23625W        W40472   8.374   3.626   4.699 -0.1320 -0.1496 -0.0146
23626W        W40473  12.120  12.255  15.880  0.3229  0.0574 -0.0278
23627W        W40474   8.416   1.358  16.263 -0.2849 -0.0412  0.0961
23628W        W40475   4.007  15.753  14.740 -0.0899 -0.1421  0.2661
23629W        W40476   8.550  14.497   5.296  0.0187  0.1956  0.1388
23630W        W40477  15.936   4.033  11.451  0.2903 -0.1800 -0.2380
23631W        W40478  11.618   7.341   2.564  0.2932 -0.2261 -0.2452
23632W        W40479  11.489   1.935   2.921  0.1356 -0.1083  0.0584
23633W        W40480  14.373  14.059  15.810  0.1147 -0.3134  0.2606
23634W        W40481  15.355   8.561   5.895 -0.0631 -0.2036  0.4000
23635W        W40482  12.211  15.385  14.238 -0.1568 -0.2795 -0.0017
23636W        W40483  16.248  15.426  14.243  0.1988  0.1325  0.0630
23637W        W40484   3.064   1.534   3.480  0.0404 -0.0884 -0.1397
23638W        W40485   9.261   6.163  15.262  0.1052 -0.2099 -0.3776
23639W        W40486   8.677  14.408   0.828  0.2668  0.0766 -0.1357
23640W        W40487  11.576   4.952  15.600  0.1492 -0.1005  0.0708
23641W        W40488  14.425   3.325   5.314  0.0202 -0.0376  0.1271
23642W        W40489  16.339   3.009  13.992 -0.3296  0.0003 -0.1903
23643W        W40490  10.566  14.932   2.284  0.2975  0.2374 -0.2487
23644W        W40491  10.577  14.618  12.240 -0.0064 -0.1240  0.3066
23645W        W40492  13.427   5.938   1.183 -0.2658 -0.1656  0.1233
23646W        W40493  12.420   9.539  16.667  0.1452  0.1476  0.1600
23647W        W40494   4.911  17.596  11.718 -0.5227  0.3950 -0.0134
23648W        W40495  10.378  13.967  12.924  0.2687 -0.1499  0.1234
23649W        W40496   3.542   6.806   1.814  0.0111 -0.1832  0.1064
23650W        W40497  10.454  10.791   2.893  0.0712  0.1404 -0.1515
23651W        W40498   7.411  12.791  15.536 -0.1166  0.1595  0.1719
23652W        W40499  13.583   5.659   1.933 -0.0836  0.1477 -0.2991
23653W        W40500   2.220   2.468   1.897  0.0123  0.3844 -0.0308
23654W        W40501   5.807   1.977  11.745 -0.2489  0.0276  0.0040
23655W        W40502   6.362   4.259   5.591 -0.3129  0.0979  0.1584
23656W        W40503   5.419   4.233   2.513  0.1854  0.0096 -0.2166
23657W        W40504  12.844  10.349  15.182  0.2521  0.0415  0.3060
23658W        W40505   8.655   5.944   1.051  0.1396 -0.0842 -0.0519
23659W        W40506  11.061   8.035   5.183  0.0434  0.3127 -0.0223
23660W        W40507   7.752   6.192  12.211  0.1926  0.2016 -0.0571
23661W        W40508   4.794   5.602  12.095  0.2444 -0.1561 -0.1802
23662W        W40509   1.941   6.163   4.341 -0.1560  0.1227  0.3566
23663W        W40510  12.691  10.454   0.266  0.0200  0.0921  0.2114
23664W        W40511  10.586  13.696   4.295  0.0563 -0.1800  0.3030
23665W        W40512  10.208  13.853   4.583 -0.1181 -0.0900 -0.0200
23666W        W40513   0.104   3.832  15.444  0.3095 -0.1087 -0.3527
23667W        W40514  13.362   7.175  12.741  0.1172 -0.1326 -0.1250
23668W        W40515   2.320   1.796   2.254  0.0297  0.0731  0.0516
23669W        W40516   4.728   1.270   4.026 -0.0586  0.0989  0.2147
23670W        W40517   7.008   3.040  15.309  0.2914  0.1120  0.2080
23671W        W40518   3.753   4.889  12.003 -0.2709 -0.0555 -0.2416
23672W        W40519  16.860   7.187   0.297  0.0814 -0.1865  0.1021
23673W        W40520  15.442   8.760   3.675 -0.3449  0.1250  0.2793
23674W        W40521   9.223   5.209  14.247 -0.1262  0.0731 -0.3751
23675W        W40522   7.055   8.500   1.277 -0.0733  0.1424 -0.1209
23676W        W40523   9.668  16.987  13.364 -0.1076  0.1162 -0.2247
23677W        W40524   1.214   1.549  13.212 -0.0190  0.0421 -0.0862
23678W        W40525   6.409  11.962  12.738 -0.0420  0.1964  0.0215
23679W        W40526   9.066   8.810   1.325 -0.0898  0.2700  0.0135
23680W        W40527  11.298  14.717   2.887 -0.0529 -0.1240 -0.0516
23681W        W40528  14.311  11.036  16.352 -0.0546  0.1263  0.1033
23682W        W40529  13.854   1.586   1.560  0.0293  0.0629 -0.1171
23683W        W40530   1.653   6.035  13.745  0.0476  0.0752  0.1443
23684W        W40531   0.868   2.330  12.307 -0.1937 -0.0589 -0.1609
23685W        W40532   6.495  16.306  12.546 -0.2201  0.2048 -0.2157
23686W        W40533  10.632  14.062   2.707  0.1018 -0.0212 -0.1241
23687W        W40534  15.864  16.843  16.586 -0.1570 -0.1620  0.4391
23688W        W40535  16.897   3.843   3.634  0.5108 -0.2710  0.0519
23689W        W40536   9.821   7.599  12.851  0.1761  0.0327  0.1305
23690W        W40537   0.991   2.750  14.949  0.2318  0.1151 -0.2060
23691W        W40538  13.099  10.197   2.275  0.2288 -0.1954  0.0511
23692W        W40539   6.198   0.522   0.428 -0.0124  0.1467  0.0492
23693W        W40540   0.602  10.071   5.550  0.0725  0.2309 -0.1633
23694W        W40541  13.791  16.628   4.769  0.3165  0.2694 -0.2506
23695W        W40542   4.073   2.173  13.331  0.1502 -0.0726 -0.0986
23696W        W40543  16.421   3.207  16.590  0.3458  0.2647  0.1410
23697W        W40544   1.157  17.148   3.247 -0.3315  0.1147 -0.1171
23698W        W40545  14.718   0.047  15.909  0.0159  0.1043  0.0742
23699W        W40546  13.671   3.379   5.356 -0.3881 -0.3926  0.2462
23700W        W40547   6.491  13.590   4.342 -0.2046  0.1047 -0.0060
23701W        W40548  10.099  13.581  13.103 -0.4599 -0.1404  0.1682
23702W        W40549   1.394  10.820   3.806  0.1591 -0.2730 -0.1392
23703W        W40550   2.932  11.281  15.671  0.1305 -0.1705  0.0592
23704W        W40551  15.095   0.296   1.501 -0.0421 -0.1186  0.1819
23705W        W40552   9.891   8.447  14.891 -0.2778  0.1078  0.0431
23706W        W40553   4.278  17.156   2.362 -0.0106 -0.1932 -0.0613
23707W        W40554   1.715  10.789   4.757 -0.2323  0.2881  0.2021
23708W        W40555   1.363   9.120   5.220  0.2022 -0.0093 -0.0719
23709W        W40556  14.811   9.620  11.623 -0.1755  0.2379  0.1560
23710W        W40557   7.064  17.087   3.550  0.0544  0.2973  0.0094
23711W        W40558   8.760   7.242   1.859  0.0740 -0.0986  0.0619
23712W        W40559   4.785   5.093   2.227  0.3384 -0.1948  0.0609
23713W        W40560   7.476   7.208   1.017 -0.0682 -0.0684 -0.2063
23714W        W40561  13.123  11.473   2.328  0.2818 -0.0405 -0.0657
23715W        W40562  16.862   0.929  16.391  0.3057 -0.1778  0.4722
23716W        W40563   4.194   8.675   5.271 -0.1317 -0.1774 -0.2178
23717W        W40564   5.856   7.463   0.424 -0.1850 -0.1195  0.0865
23718W        W40565  14.964  10.732  13.657  0.3490  0.0631  0.1767
23719W        W40566   6.211   6.462   1.811 -0.0356  0.0531  0.2090
23720W        W40567  12.773  14.952   1.695  0.2130  0.1084 -0.3010
23721W        W40568   8.040   7.753  12.537  0.1203  0.0953  0.0878
23722W        W40569   9.493   7.081  15.343  0.3959  0.0993  0.1643
23723W        W40570   1.991   3.889   2.784  0.3395  0.1679 -0.0539
23724W        W40571  17.171   1.373   4.168  0.2527 -0.0976  0.1947
23725W        W40572  16.333  13.301  14.064  0.0600  0.1044 -0.0325
23726W        W40573  17.261   5.872   2.293  0.3632  0.1749  0.0365
23727W        W40574   7.464  18.042  11.991  0.0082 -0.0676  0.0602
23728W        W40575   9.700   7.352   3.514  0.1788  0.1950 -0.2200
23729W        W40576   1.716   9.139  15.704 -0.3265  0.0217 -0.0603
23730W        W40577   7.655   5.577   1.877 -0.1963  0.2820  0.0457
23731W        W40578   2.090   2.826   0.696  0.2498 -0.0913  0.2876
23732W        W40579  12.587  16.685   4.972 -0.2020  0.1302 -0.0155
23733W        W40580  15.630   1.522   3.861 -0.2013  0.2778  0.0461
23734W        W40581   6.969   8.675   4.386 -0.2640 -0.1896  0.0847
23735W        W40582   0.997  15.628  16.391  0.0604  0.1932 -0.1521
23736W        W40583   7.244  17.613   1.679 -0.0855  0.2202  0.0864
23737W        W40584  15.490  13.995   3.005 -0.0476  0.0074 -0.0386
23738W        W40585   9.771   3.865  14.490 -0.2843 -0.0169  0.2295
23739W        W40586  11.011  15.548   2.880 -0.0035  0.0136 -0.0032
23740W        W40587   7.923   1.690   3.937  0.1400  0.2006 -0.3624
23741W        W40588   3.413   8.155   5.319  0.3391 -0.3420  0.1721
23742W        W40589  12.227  13.028  12.936  0.0382 -0.2401  0.1379
23743W        W40590  12.065  12.789   1.838 -0.1003  0.1933  0.2289
23744W        W40591  10.592  16.045   3.413 -0.0481 -0.0697  0.0113
23745W        W40592  16.821   9.247  12.678 -0.3129  0.1037  0.0717
23746W        W40593   5.462   0.669  14.507 -0.1761 -0.0289 -0.1614
23747W        W40594   0.001   4.316   2.748 -0.1031  0.2396 -0.0345
23748W        W40595  11.906   7.730   5.235  0.1831  0.2944  0.0862
23749W        W40596  14.763   3.402   2.774  0.0415 -0.2088  0.0715
23750W        W40597  14.892  14.855  13.560  0.1007  0.1163 -0.2698
23751W        W40598  15.936  14.110  15.727  0.2504 -0.0124 -0.2310
23752W        W40599  13.872   6.369  12.244 -0.1255  0.2231  0.1542
23753W        W40600   7.414  14.158   1.713 -0.5360  0.3443  0.1915
23754W        W40601  16.512   1.669   3.978 -0.1130  0.1808  0.1593
23755W        W40602  16.929   8.926   4.218  0.0334 -0.0432 -0.1483
23756W        W40603   5.468  11.766  14.492  0.0460 -0.1920  0.0760
23757W        W40604   2.182   8.430  13.099  0.0105 -0.1039  0.0527
23758W        W40605  16.655   0.548  16.571 -0.1551  0.0020  0.1517
23759W        W40606  16.434   6.873   5.051 -0.1853  0.2027  0.0089
23760W        W40607  14.260   7.787   6.301  0.1749  0.0717 -0.1725
23761W        W40608  15.346   2.282   0.369 -0.0699 -0.1956 -0.2217
23762W        W40609  13.373  17.367   1.108  0.0850 -0.0434 -0.2089
23763W        W40610  12.913  14.940   2.724 -0.2317  0.1110  0.0225
23764W        W40611   1.907   6.024  14.601  0.1597 -0.0820 -0.1183
23765W        W40612   1.877   4.483  13.602  0.0958 -0.1979 -0.1373
23766W        W40613   9.574   7.839   2.242 -0.1020  0.3708 -0.5335
23767W        W40614   8.803   2.238  13.191 -0.2048  0.0536 -0.1592
23768W        W40615  17.448   5.873  11.222  0.2247 -0.0549  0.2631
23769W        W40616  14.415   0.071   0.346  0.0391  0.1149  0.0022
23770W        W40617   1.326  14.891   1.852 -0.4351  0.1687 -0.2640
23771W        W40618   7.386   0.253   5.113 -0.0082 -0.1212  0.3576
23772W        W40619   9.799  13.584  16.612 -0.0066 -0.2326 -0.0502
23773W        W40620   5.279   5.497  12.773  0.1159  0.1273  0.1413
23774W        W40621  10.143   7.206   0.759  0.1121 -0.2043 -0.3966
23775W        W40622  14.591   5.642   1.483 -0.3413 -0.1042 -0.1476
23776W        W40623   5.422  14.011   3.649 -0.1907  0.3416 -0.0428
23777W        W40624   1.842   6.492  15.557 -0.0366 -0.0428  0.0583
23778W        W40625  12.203   8.741  15.779  0.0138 -0.0839 -0.0457
23779W        W40626  10.470   3.982  13.752 -0.3543  0.1664  0.0039
23780W        W40627   4.017  14.515   3.971  0.0060 -0.2078 -0.1435
23781W        W40628   8.684   2.968   4.732 -0.0872  0.0865  0.0844
23782W        W40629   9.682   9.240  13.841  0.0140 -0.0794  0.2406
23783W        W40630   0.325  11.807   2.137  0.2573 -0.0559 -0.3122
23784W        W40631   6.211   7.245   4.037  0.0138 -0.1160 -0.1459
23785W        W40632   4.116   9.962   2.254  0.2581  0.1417 -0.2328
23786W        W40633  10.955   7.053   3.944  0.0564 -0.2394  0.1974
23787W        W40634  14.630   8.475   4.421  0.0600  0.1092  0.0003
23788W        W40635  13.955  14.411  11.618  0.3099  0.2761  0.1776
23789W        W40636   7.391   1.093   4.875  0.0275 -0.1952  0.3745
23790W        W40637   7.342   8.715  12.940 -0.0697  0.0252  0.4253
23791W        W40638   9.488  14.324  12.595  0.2491  0.2592  0.1354
23792W        W40639  17.024   1.932   4.066 -0.0718 -0.2902 -0.0130
23793W        W40640   9.344  12.561   6.513 -0.2699 -0.0368 -0.4769
23794W        W40641   8.624   0.973   5.496  0.2079 -0.2025  0.1738
23795W        W40642  11.729  11.667   4.079 -0.0210 -0.0344  0.0751
23796W        W40643  10.771   2.956   0.816 -0.1469  0.0330 -0.0938
23797W        W40644  16.026  15.629   1.055  0.1480 -0.1507  0.0708
23798W        W40645   3.189   3.202   3.193  0.1914  0.3346  0.0294
23799W        W40646  16.538  11.528   0.414 -0.0682  0.0564  0.1510
23800W        W40647   0.593   3.528   4.377  0.1508  0.0700 -0.0762
23801W        W40648   6.044   4.616   5.754 -0.1586 -0.0629  0.0091
23802W        W40649   0.694   5.275  14.582  0.3922 -0.0420  0.1174
23803W        W40650  16.661   1.372  16.118 -0.1956 -0.0062 -0.0329
23804W        W40651  11.792   7.310  14.407 -0.0038  0.0827  0.2430
23805W        W40652   9.421   6.025   5.350 -0.1719 -0.3211 -0.0322
23806W        W40653   7.349   2.461   4.869 -0.0282 -0.1794  0.2090
23807W        W40654  10.382  12.832  16.379 -0.2575 -0.0459  0.0750
23808W        W40655   7.356   1.864  13.645 -0.2118  0.0476 -0.2039
23809W        W40656  13.606  14.782  13.085 -0.2593  0.2571  0.1003
23810W        W40657  10.547   7.487   1.451  0.2320 -0.1204  0.0012
23811W        W40658  17.243  11.200  14.795  0.0297  0.0043 -0.2318
23812W        W40659   4.516  17.921   1.928 -0.0795 -0.3495 -0.2094
23813W        W40660   5.635  17.145  11.413  0.5052 -0.0053 -0.0034
23814W        W40661  16.181   6.880   3.450  0.3431 -0.0153 -0.0923
23815W        W40662   3.310   5.938  13.458  0.1879  0.0502  0.0535
23816W        W40663   0.266  12.347  13.307  0.5340 -0.1118  0.1487
23817W        W40664   3.243  15.256   1.339  0.2466  0.0990 -0.2401
23818W        W40665   6.256  16.755   2.667 -0.1582  0.1669 -0.3422
23819W        W40666  10.231   0.762   5.188 -0.3920  0.2612 -0.1058
23820W        W40667  16.596  11.403   3.387 -0.0334  0.1590  0.0766
23821W        W40668   3.432  14.824   5.877 -0.3174 -0.2357  0.0057
23822W        W40669   1.155  17.999  14.263  0.1194 -0.0567  0.1331
23823W        W40670   6.691  14.506   3.022 -0.1124  0.1960 -0.5080
23824W        W40671   8.651   9.900   1.662 -0.0183  0.0282  0.0074
23825W        W40672   2.229   9.006   2.878 -0.1911  0.1016  0.0083
23826W        W40673  11.672  16.977  16.308  0.0438 -0.0906  0.2506
23827W        W40674  10.788  11.939   4.127 -0.1357 -0.0992 -0.3232
23828W        W40675   0.803   0.862   5.208 -0.2349  0.2802 -0.0339
23829W        W40676   6.878  16.881  14.775  0.1834 -0.3059  0.0373
23830W        W40677   6.276   2.634   4.395 -0.1043 -0.0442 -0.0540
23831W        W40678   9.135  13.188  11.304 -0.1547  0.2346 -0.0905
23832W        W40679   3.993   0.405   3.833  0.0053 -0.1392  0.2420
23833W        W40680   6.248   3.961   3.909  0.0144 -0.2178 -0.3088
23834W        W40681   0.158   3.233   4.268  0.0115 -0.1108 -0.0887
23835W        W40682   7.050  11.416   5.844  0.0261  0.1333  0.0971
23836W        W40683   5.539   6.058   3.717 -0.1389 -0.0332  0.0255
23837W        W40684  16.506  10.893   3.525 -0.0671 -0.2596 -0.1767
23838W        W40685  17.828   9.048   4.273 -0.0994 -0.2511 -0.1039
23839W        W40686   2.413  17.246  11.960  0.2780  0.0406  0.4793
23840W        W40687   0.267  14.648  15.641 -0.0527 -0.0070 -0.0566
23841W        W40688   7.832   3.887   5.172 -0.1691 -0.3089  0.1358
23842W        W40689  10.786  11.365  16.275 -0.1533  0.1134  0.0349
23843W        W40690  13.321   3.037   5.264 -0.2735 -0.0421  0.1073
23844W        W40691   2.644   0.576  15.462  0.1363 -0.0296 -0.0880
23845W        W40692  15.686   9.109  12.752  0.2772  0.2176 -0.0083
23846W        W40693  17.580   5.483  16.432 -0.0222 -0.1374 -0.1229
23847W        W40694  17.937   3.297  14.439  0.0040 -0.1303 -0.2258
23848W        W40695   9.566   8.392  13.460 -0.1985 -0.1499  0.1000
23849W        W40696   0.393  17.561   0.841 -0.2391  0.1210  0.0598
23850W        W40697   9.639   4.538   0.105  0.1175 -0.1657  0.0374
23851W        W40698   6.084   4.955  12.833  0.0113  0.0053 -0.0030
23852W        W40699   4.819   9.208   5.626  0.0457  0.0776 -0.0673
23853W        W40700   8.045   1.713  16.363  0.2915 -0.1662 -0.1779
23854W        W40701   7.435   7.899  15.663  0.2488 -0.0164  0.0427
23855W        W40702   0.849  10.467  15.107 -0.2377  0.2628  0.3159
23856W        W40703   2.042  17.517   3.874 -0.2829 -0.1834  0.2152
23857W        W40704  15.655  13.168   3.108 -0.2438  0.3702 -0.2393
23858W        W40705  15.796  10.364   2.037  0.0674  0.0278 -0.2159
23859W        W40706   1.959  11.245   3.254  0.1532 -0.0265 -0.1654
23860W        W40707   9.357  11.791  13.955 -0.2629  0.0368  0.3365
23861W        W40708  10.116  11.418  11.559 -0.0218  0.3015 -0.2343
23862W        W40709   9.868   0.136  12.214 -0.1434  0.0461  0.1549
23863W        W40710   6.463   8.196  16.684 -0.0024  0.0334  0.1450
23864W        W40711   2.027  15.301  15.807 -0.1107  0.0338  0.1258
23865W        W40712   9.790   5.025   0.367 -0.2178 -0.1712 -0.1077
23866W        W40713  12.858   7.315   2.118 -0.0384 -0.2143  0.1637
23867W        W40714   7.616  12.530  14.455  0.0553 -0.2878  0.0922
23868W        W40715   2.482   1.483   1.157  0.2793 -0.1526  0.0223
23869W        W40716   4.832  14.748  13.560 -0.0839  0.0993  0.0406
23870W        W40717   6.294  17.270   0.693  0.0316 -0.0331 -0.5438
23871W        W40718   8.037   6.452   0.098  0.4853 -0.1539 -0.1633
23872W        W40719   4.514  12.402  15.118  0.1538 -0.0119  0.2628
23873W        W40720  10.670  15.951  13.785 -0.2456 -0.1889 -0.2113
23874W        W40721  12.869  10.946   2.632 -0.2045 -0.2100  0.0773
23875W        W40722  12.344   8.187  10.641  0.3487 -0.2319 -0.0971
23876W        W40723  15.858   1.736  13.750  0.2386  0.2311 -0.1418
23877W        W40724   3.659  13.145  15.494 -0.0952 -0.2643 -0.2709
23878W        W40725   4.383   7.888  12.329  0.3463 -0.1636 -0.0639
23879W        W40726   9.029  13.431  14.989 -0.0599 -0.2130 -0.1077
23880W        W40727   5.061   6.353  15.402 -0.0697 -0.0808  0.0839
23881W        W40728   6.767   6.165  11.851  0.0694 -0.0209 -0.1788
23882W        W40729  17.464  12.135  15.028 -0.0283 -0.2346 -0.2596
23883W        W40730  13.186  15.276   1.512  0.1079 -0.1069 -0.1317
23884W        W40731   8.599   4.695  12.860  0.2725  0.0303 -0.1488
23885W        W40732   3.825   6.749  13.934 -0.2090  0.1931 -0.1438
23886W        W40733   0.636  11.481   5.334  0.0250 -0.2185 -0.3854
23887W        W40734   7.919  14.937   4.174 -0.0114  0.0127 -0.0752
23888W        W40735  10.625   2.079   4.366 -0.1081  0.1431  0.2565
23889W        W40736  15.059   9.873   3.913 -0.0786 -0.0070 -0.0897
23890W        W40737   1.545  14.953  15.500  0.1568  0.0337  0.0232
23891W        W40738   8.192   6.112   1.305  0.1664  0.1458  0.1414
23892W        W40739  13.525  16.676   1.740  0.0539  0.3054  0.2779
23893W        W40740  11.068   6.660  16.180 -0.0452  0.2307  0.2426
23894W        W40741  17.833   3.874   4.837  0.0104  0.2958  0.0026
23895W        W40742  10.268   4.319   1.495  0.0593 -0.1027  0.0982
23896W        W40743   8.350   1.778   2.953  0.0195 -0.0789  0.0371
23897W        W40744  13.122   0.852   2.137  0.1221  0.0282  0.0836
23898W        W40745   0.075   7.131   4.070 -0.2324 -0.2161 -0.0656
23899W        W40746   7.811  14.182   4.800  0.0969  0.1139  0.0285
23900W        W40747  13.723   7.228   2.158 -0.0743 -0.3357  0.1225
23901W        W40748   1.766   0.781  11.542  0.0255 -0.1138 -0.1039
23902W        W40749   6.033  13.548   1.919  0.0518 -0.2736 -0.1071
23903W        W40750   2.364   2.576  16.330 -0.3324 -0.0503 -0.2694
23904W        W40751   1.845  10.595   2.001  0.0102 -0.0603  0.4095
23905W        W40752   5.924   2.448   4.731 -0.2508  0.0007 -0.1063
23906W        W40753  13.659   1.690  16.656 -0.0337 -0.0920 -0.1465
23907W        W40754   4.404   7.480  16.608  0.2534  0.1799 -0.1272
23908W        W40755   9.040   3.131  14.547 -0.2537  0.1316  0.0770
23909W        W40756   1.262  11.901   3.176 -0.1198 -0.0960 -0.0417
23910W        W40757  10.322  15.626  16.009 -0.2554 -0.0524 -0.4209
23911W        W40758  10.837  14.653  14.755  0.2709 -0.1897 -0.0850
23912W        W40759   3.492  11.129   4.502 -0.2235  0.0026 -0.0928
23913W        W40760  15.295  15.761   0.290  0.0111 -0.1880 -0.0710
23914W        W40761  15.137  14.588   4.782 -0.0637 -0.1167 -0.0593
23915W        W40762  11.976   9.123   3.672  0.0498  0.0663  0.0088
23916W        W40763  11.121   2.117   0.338  0.1108  0.4267  0.0856
23917W        W40764   0.449   4.435  13.917 -0.0705 -0.2157  0.0177
23918W        W40765   6.700   3.151  16.455  0.0663  0.1821  0.1579
23919W        W40766  16.445   2.427  12.310 -0.4677  0.0033  0.1516
23920W        W40767   0.894  13.962  12.062 -0.2067 -0.0473  0.1133
23921W        W40768   2.767   4.891   5.922 -0.0434  0.0619 -0.1216
23922W        W40769   3.714  14.279   0.777  0.1973  0.2555  0.1303
23923W        W40770  10.410   1.301  16.038 -0.1640  0.0327 -0.2061
23924W        W40771  12.503  13.670   3.950 -0.2166 -0.0327 -0.2326
23925W        W40772   3.276   5.566   0.777  0.3138  0.1006  0.0593
23926W        W40773   9.678   4.313   5.926 -0.0273  0.0355 -0.3046
23927W        W40774   3.815   1.566  14.477  0.1052 -0.0995  0.0811
23928W        W40775  17.648   5.027  14.337 -0.1702 -0.1680 -0.0643
23929W        W40776  10.113   8.806  14.421  0.1799  0.0992  0.0128
23930W        W40777   9.412  17.314   4.989 -0.0920 -0.1395 -0.2969
23931W        W40778   4.681   9.235  16.624 -0.1277 -0.0930 -0.0016
23932W        W40779  11.657   6.205   1.771  0.1682  0.0155 -0.0293
23933W        W40780  15.820  12.804   1.744  0.0945 -0.2082  0.0775
23934W        W40781  11.890   1.079  13.544 -0.2431 -0.0834  0.0531
23935W        W40782   5.965   7.911  13.746  0.1436  0.0378 -0.0142
23936W        W40783   4.522  11.039  14.108  0.0306 -0.1667  0.2014
23937W        W40784  16.154  13.001   4.236  0.0664  0.1019  0.0621
23938W        W40785   2.216   7.548  13.034  0.3667 -0.1829  0.0242
23939W        W40786  13.108  10.622  13.456  0.3420  0.0832 -0.0219
23940W        W40787  15.076  13.091   1.528 -0.0035 -0.0923  0.1762
23941W        W40788   8.198  10.135   2.736 -0.1975  0.0630  0.1174
23942W        W40789  16.140   1.981  11.569 -0.3299 -0.2067 -0.0879
23943W        W40790  13.209   7.497  14.989 -0.3257  0.1135  0.2203
23944W        W40791   0.321   9.589  13.517 -0.0991  0.0040 -0.3405
23945W        W40792  17.100   8.553   5.976 -0.0001 -0.2455 -0.0415
23946W        W40793   2.954   5.506  16.541 -0.3401 -0.0552  0.1524
23947W        W40794  12.970   9.413  11.756  0.0045 -0.0813 -0.1319
23948W        W40795  14.241   0.660   3.142  0.3436  0.1588  0.0262
23949W        W40796  12.330   4.085   5.604  0.1435  0.0903  0.0371
23950W        W40797  16.572   7.188   3.217 -0.2433 -0.3523  0.1625
23951W        W40798   5.273   2.460   2.629  0.1181  0.3236 -0.3697
23952W        W40799   2.534  14.112  16.272  0.0640  0.0877  0.1730
23953W        W40800  12.406   5.774   1.465 -0.1461 -0.0726 -0.1557
23954W        W40801   6.933  16.725   4.816  0.3416 -0.2814  0.0132
23955W        W40802   0.643   3.154   1.045  0.2784 -0.0700  0.1628
23956W        W40803   6.395  13.201   2.740 -0.1915 -0.0375 -0.6128
23957W        W40804  12.615   4.376   0.582  0.1166 -0.3290  0.1337
23958W        W40805  15.489  13.382  14.225  0.0010  0.4331 -0.1602
23959W        W40806  15.825   1.919   5.551  0.0028 -0.1514  0.3432
23960W        W40807  14.094  13.497   4.075  0.1454  0.0698  0.0158
23961W        W40808  16.861  15.450  13.631 -0.2107 -0.3188  0.0129
23962W        W40809  12.850   3.025  14.538  0.1838  0.0589  0.2427
23963W        W40810  17.754  15.187  14.680  0.2497  0.0668  0.2375
23964W        W40811   2.838  13.182  13.453 -0.3161 -0.0181  0.0570
23965W        W40812   9.677  13.220  16.085  0.0892  0.1260 -0.2941
23966W        W40813   3.322  13.225  12.962  0.0193 -0.0152  0.1921
23967W        W40814  15.677   6.784   0.226 -0.1504 -0.1089  0.2556
23968W        W40815   3.545  16.468   5.330 -0.1443 -0.3999  0.3062
23969W        W40816   6.873   3.514   4.383 -0.2491 -0.2539  0.3804
23970W        W40817   4.819   6.976  13.885 -0.0930  0.0238  0.2434
23971W        W40818   2.489   7.629   4.076 -0.2921  0.2133 -0.2175
23972W        W40819  16.434   6.665  14.053 -0.3728 -0.0522 -0.1259
23973W        W40820  13.875  17.113   4.824  0.2161  0.2700  0.1638
23974W        W40821   3.713  17.308  14.662 -0.0588  0.4380 -0.3114
23975W        W40822   1.366  14.405   5.067 -0.1514  0.3032  0.0087
23976W        W40823   7.657  15.182   0.066  0.4537  0.0461 -0.0472
23977W        W40824   6.105  14.855   1.217  0.1535 -0.0725  0.0267
23978W        W40825   0.943   1.360  12.737 -0.3544  0.2566 -0.2305
23979W        W40826  16.210  12.313  13.786  0.2715 -0.1522 -0.2428
23980W        W40827   0.741  12.847   5.470 -0.4594 -0.0686 -0.0115
23981W        W40828   2.527  11.751  12.486 -0.6003 -0.0577  0.0989
23982W        W40829  11.802  12.994   1.491  0.2626 -0.0858 -0.1818
23983W        W40830   8.721  14.788  16.352  0.0293 -0.0772  0.0998
23984W        W40831  10.168   7.094  14.670  0.1132 -0.2205 -0.0813
23985W        W40832  11.278   8.851  16.519 -0.3779 -0.4704  0.2085
23986W        W40833  16.800  13.469  12.878 -0.2869  0.0732  0.2470
23987W        W40834   8.358   1.887   1.906 -0.0981 -0.0852  0.3262
23988W        W40835  16.315  15.528   1.668 -0.0266  0.0070  0.1396
23989W        W40836  17.308  15.119   0.193 -0.0075  0.2907  0.3140
23990W        W40837  16.158   4.453  14.950 -0.1753  0.0569  0.0251
23991W        W40838   3.012   8.962  13.085 -0.2364  0.2148 -0.0327
23992W        W40839   9.324  16.171   3.630 -0.0524  0.2730  0.1905
23993W        W40840   0.807   9.206   5.192  0.0494  0.1383 -0.1445
23994W        W40841  12.718   5.401   0.737  0.0644 -0.2271 -0.1653
23995W        W40842  11.739  10.521  13.549 -0.0353  0.0747  0.2320
23996W        W40843   5.567  10.106   1.851  0.0602 -0.1137  0.1781
23997W        W40844  11.815  12.784  13.054  0.2049  0.3962  0.2137
23998W        W40845   7.930  16.122  13.687  0.0462 -0.1612 -0.1071
23999W        W40846  16.482  10.401   2.709 -0.0661  0.1442 -0.0160
24000W        W40847   6.654  10.148  16.615 -0.0954 -0.2292  0.1567
24001W        W40848   4.612  15.538   0.835 -0.0454  0.2501  0.1306
24002W        W40849   7.239   2.406   2.175  0.0142 -0.2423  0.0126
24003W        W40850   0.557   2.751  13.851 -0.1719 -0.2360 -0.1477
24004W        W40851   3.404   6.468  13.392 -0.0559  0.3099 -0.1856
24005W        W40852  17.735  11.757   4.892  0.0273 -0.1141 -0.2311
24006W        W40853  11.435  15.986  15.414 -0.1470  0.0636  0.0835
24007W        W40854   7.513   4.840   5.283 -0.2320 -0.3708  0.0558
24008W        W40855  14.672  18.048  15.329 -0.1555  0.0014 -0.0452
24009W        W40856  10.785   7.094  11.393 -0.0777  0.3868 -0.0155
24010W        W40857   9.563   5.683   0.898  0.3101  0.2858 -0.1195
24011W        W40858   8.746  16.972  16.106  0.0374 -0.0903 -0.0541
24012W        W40859  12.074  11.916   5.102  0.2246 -0.1439 -0.2389
24013W        W40860   2.162   3.834   0.523 -0.0111 -0.1661  0.2434
24014W        W40861  15.021  14.018  14.737  0.2272 -0.0552  0.0179
24015W        W40862   7.580   5.592  15.303 -0.0834 -0.0288  0.0272
24016W        W40863   4.366   9.421  13.705 -0.0477 -0.1848 -0.1897
24017W        W40864  16.093  13.003   5.241  0.0026  0.1800  0.1701
24018W        W40865  16.118  10.668  15.213  0.3010 -0.3367  0.1024
24019W        W40866  16.303  15.283   2.631  0.0938  0.1297 -0.1799
24020W        W40867  12.108  15.138  14.645  0.0881 -0.1921  0.5293
24021W        W40868   0.124   3.013   2.497  0.1538  0.0545  0.3544
24022W        W40869  17.771   3.700  11.586 -0.0652 -0.0472  0.0604
24023W        W40870   9.195   8.194  11.789  0.1107  0.1083 -0.0236
24024W        W40871  13.829   2.181  16.463  0.0870  0.2037  0.2544
24025W        W40872   1.116   5.544   6.010 -0.0745 -0.2977 -0.1427
24026W        W40873   8.001  14.327   2.781 -0.1568 -0.0259  0.4973
24027W        W40874   2.595  14.150  11.971 -0.0102  0.0785  0.1052
24028W        W40875   9.636  13.654   4.556  0.0113 -0.3234 -0.1629
24029W        W40876  11.843   3.785   0.365 -0.1904 -0.2783  0.1330
24030W        W40877   0.616   7.286  14.668 -0.3222 -0.3392  0.1413
24031W        W40878   2.140   6.423   2.291  0.1638 -0.1136  0.3097
24032W        W40879   1.487   2.630   3.778 -0.2488  0.1713  0.0243
24033W        W40880  10.420   6.611   3.575 -0.5436  0.1939  0.0396
24034W        W40881  10.488   6.434  13.076 -0.1775 -0.3532  0.0706
24035W        W40882  14.566  11.011   0.044  0.2088  0.0331  0.1284
24036W        W40883   8.785  11.668  13.380 -0.0663 -0.0489  0.0876
24037W        W40884   8.843   8.518   5.447  0.1657 -0.0511  0.0450
24038W        W40885   3.846  16.019   2.569  0.1714  0.0325  0.1949
24039W        W40886  16.300  10.217   2.259  0.0546  0.1338 -0.0845
24040W        W40887   9.397  17.205   0.535  0.1533 -0.0009 -0.1065
24041W        W40888  12.347   2.592  15.222 -0.1642 -0.2277 -0.1930
24042W        W40889   1.104  12.318  14.454  0.2245  0.0924  0.1217
24043W        W40890  15.015   0.925  12.847 -0.0935  0.1047 -0.1395
24044W        W40891  15.987   6.737  15.968 -0.3424 -0.1450 -0.1225
24045W        W40892   3.032   1.000   1.159 -0.0754 -0.0697  0.1981
24046W        W40893   6.011   4.265  14.750  0.1330 -0.1506  0.3178
24047W        W40894  13.445  10.200   4.705 -0.2009 -0.0253  0.0841
24048W        W40895   3.115  11.521  11.847 -0.0252  0.2366  0.1477
24049W        W40896  16.559  16.989   2.094  0.0398  0.1213 -0.1908
24050W        W40897   2.991   9.573  15.324  0.0095  0.0666  0.1135
24051W        W40898   3.448  10.742   1.258  0.1055  0.0664  0.1890
24052W        W40899   7.737   6.857   3.329 -0.1469 -0.0890 -0.1654
24053W        W40900   7.035  10.124  14.737  0.1027 -0.1282  0.2047
24054W        W40901   8.297   9.709  16.007  0.1653  0.2853 -0.1576
24055W        W40902  11.378  17.203  12.511  0.4209 -0.2270 -0.1116
24056W        W40903   7.641   4.563  11.848  0.1606  0.1194  0.1759
24057W        W40904  17.596  14.110  11.635  0.1760 -0.2876  0.0868
24058W        W40905   6.258  11.357   1.320  0.1468  0.1071 -0.1930
24059W        W40906  11.541   1.916   5.535 -0.1575  0.0946 -0.1106
24060W        W40907   5.556   8.786   3.347 -0.3433  0.0163  0.0882
24061W        W40908   0.589   9.184   2.870 -0.1846  0.1653 -0.0605
24062W        W40909   3.931   2.151  15.128 -0.1178  0.2388 -0.1567
24063W        W40910  12.597  14.775  11.283  0.1110  0.1683  0.0762
24064W        W40911   2.987   3.800   0.094 -0.0671  0.0100 -0.0645
24065W        W40912   3.708   4.552  16.201 -0.1736  0.1306  0.0490
24066W        W40913   1.812   5.719   4.127 -0.2862 -0.0623 -0.2292
24067W        W40914   9.475   6.432   5.701  0.0864 -0.2726  0.0047
24068W        W40915   2.027  13.471   3.696 -0.1976  0.0047 -0.0489
24069W        W40916  11.696  17.591   4.639 -0.1273 -0.0817  0.0308
24070W        W40917  12.455   8.429   0.706 -0.0113 -0.0490 -0.1103
24071W        W40918  12.126   5.744  11.787 -0.0135 -0.0264  0.0483
24072W        W40919  14.414  15.783   0.012  0.0112  0.0216 -0.1733
24073W        W40920  11.536  14.531  15.025  0.2891  0.4457 -0.0934
24074W        W40921   9.503   6.361   1.448  0.0424 -0.1597 -0.1961
24075W        W40922  17.623   0.288  13.319 -0.0065 -0.2364  0.0233
24076W        W40923   6.946   8.569   0.771 -0.0668  0.0780  0.0574
24077W        W40924  16.799   7.281   1.662 -0.0335 -0.0147  0.0513
24078W        W40925  11.386   7.435   5.855  0.0237  0.0871 -0.2206
24079W        W40926  17.945  12.157   2.240 -0.0597 -0.0353  0.0532
24080W        W40927  15.282  18.023   4.560 -0.1309  0.1038 -0.0329
24081W        W40928   0.243  12.808   0.510  0.0546 -0.3210 -0.0946
24082W        W40929   0.115   7.537   3.103 -0.1468  0.1007  0.1514
24083W        W40930   6.912   5.425   3.858 -0.1278 -0.0043 -0.1561
24084W        W40931  12.026  16.857  15.378 -0.1670  0.0719  0.1592
24085W        W40932   2.767   9.605  14.514  0.0226 -0.0785 -0.1065
24086W        W40933   6.674   6.704   1.608 -0.0448 -0.3753  0.1222
24087W        W40934   0.685   1.742  14.972 -0.0405  0.1764 -0.1764
24088W        W40935   9.440  12.318  11.821 -0.3267  0.5060  0.1118
24089W        W40936  11.156   3.330   1.854  0.1785  0.1295  0.0500
24090W        W40937  13.810   7.782   1.324  0.1458  0.0203  0.2735
24091W        W40938  12.544   5.023   0.944  0.0607  0.4823  0.1412
24092W        W40939   0.484   3.842   3.945 -0.1606 -0.2231 -0.0259
24093W        W40940   6.444   6.897  15.206  0.1015  0.1678 -0.1322
24094W        W40941   8.496   4.011   2.087 -0.1950 -0.0325 -0.3111
24095W        W40942   6.766   5.977  15.625  0.2850  0.0533  0.1672
24096W        W40943  17.926   6.905  11.978  0.0383 -0.0677  0.0202
24097W        W40944  17.692   2.419   2.742 -0.1525  0.1091  0.0137
24098W        W40945  16.116  17.917  15.556 -0.0203 -0.0878  0.2529
24099W        W40946  13.280   4.747   4.685 -0.2139 -0.1906 -0.2303
24100W        W40947  10.675   0.712  16.642 -0.1748 -0.0627 -0.2257
24101W        W40948   6.532  15.951   4.706 -0.1726  0.0413 -0.1303
24102W        W40949  15.345   0.414   5.343 -0.1677 -0.2144 -0.1154
24103W        W40950   3.477   5.007  12.409  0.1291  0.2472 -0.0620
24104W        W40951  14.685   0.870   0.047 -0.2022  0.0355  0.4676
24105W        W40952   8.170  13.954  11.895  0.1689  0.1004 -0.1346
24106W        W40953   5.070   8.446  13.892  0.0188 -0.0221  0.1409
24107W        W40954   0.687  15.894  12.381 -0.0355 -0.2930 -0.2489
24108W        W40955   7.435  15.265   4.135  0.0956  0.0679 -0.0308
24109W        W40956  16.616   7.478  14.094 -0.3730 -0.2059  0.0344
24110W        W40957  10.160  15.661   0.223  0.2298 -0.1744  0.0011
24111W        W40958  15.454   1.250  16.647  0.1321 -0.1291 -0.3520
24112W        W40959  14.717  13.725   5.136  0.1927  0.3177  0.0207
24113W        W40960  10.254   0.947  12.187 -0.0257  0.1315 -0.1337
24114W        W40961   2.307   1.798   2.803 -0.0246 -0.2089  0.1570
24115W        W40962  16.375   8.180   5.287 -0.0138  0.1735  0.1099
24116W        W40963   8.251   4.197   4.104  0.1924  0.0432  0.0364
24117W        W40964   3.944   2.517  16.009 -0.3023 -0.0123 -0.2803
24118W        W40965   9.954   8.516   1.921 -0.1298  0.1029 -0.0655
24119W        W40966  13.884  12.399  11.763  0.1361  0.1929 -0.1299
24120W        W40967   6.078   7.192  12.612 -0.0593 -0.1092 -0.0829
24121W        W40968  12.690  16.743   1.859 -0.0173 -0.0379 -0.1458
24122W        W40969  10.314   2.178   4.734 -0.1510 -0.0901  0.1333
24123W        W40970   4.687   9.385   4.774  0.0935 -0.0525 -0.2006
24124W        W40971   7.578   3.567   6.054  0.1565 -0.1097  0.0154
24125W        W40972  15.672   4.404  13.040  0.0935  0.0232 -0.0267
24126W        W40973   6.703   5.697   3.213  0.2374  0.0931  0.2780
24127W        W40974  14.471   3.570  12.388 -0.1485 -0.0449  0.2042
24128W        W40975  13.884  12.710   5.379 -0.0595 -0.1194  0.1628
24129W        W40976  15.051   1.895   0.424  0.1276 -0.0466 -0.2551
24130W        W40977  12.944  12.986   3.742 -0.1647 -0.0748  0.1397
24131W        W40978  14.135  14.950   4.276  0.2350 -0.0136 -0.1758
24132W        W40979   1.049  10.138   4.656  0.5152  0.0539 -0.1282
24133W        W40980   4.909   9.199   2.942 -0.1793 -0.1033 -0.1270
24134W        W40981  15.547   2.039  13.439  0.1363  0.1211 -0.0461
24135W        W40982  14.055   1.514   0.181 -0.0755  0.1331  0.2238
24136W        W40983   7.282   1.262  16.678 -0.0127 -0.1700 -0.2060
24137W        W40984  15.582   9.585   3.776 -0.3742 -0.1316 -0.0509
24138W        W40985   3.312  11.622  12.285 -0.2477  0.0387  0.0859
24139W        W40986  12.709  17.833   4.904 -0.1559 -0.1600  0.1443
24140W        W40987   5.225  11.266   1.299 -0.0352  0.0743 -0.3598
24141W        W40988   2.798   2.082  11.693  0.0316  0.1975  0.1959
24142W        W40989   8.201  18.046   5.827 -0.1876  0.1019  0.1533
24143W        W40990   7.667   6.024  16.137 -0.2573 -0.0373  0.1725
24144W        W40991   5.772   9.817  15.683 -0.1137 -0.1079 -0.0347
24145W        W40992   6.693  17.498   0.400  0.1968 -0.1026 -0.2988
24146W        W40993   4.044  15.366  11.653  0.0173 -0.1374 -0.0551
24147W        W40994  14.824   7.032   0.679 -0.0155  0.0223 -0.2510
24148W        W40995  10.087   4.984   2.729 -0.1457  0.1243  0.3386
24149W        W40996  10.970   6.414  12.911 -0.0576 -0.3245  0.5337
24150W        W40997   7.243   9.110   2.752  0.0430  0.0839  0.2181
24151W        W40998   7.900  11.891   1.494  0.0194  0.4582 -0.2873
24152W        W40999   3.835  13.590   4.947 -0.0262 -0.1890  0.1527
24153W        W41000  10.293  17.760   2.389 -0.1040  0.2742  0.0960
24154W        W41001  16.022   1.943   6.002  0.1715  0.0903 -0.0649
24155W        W41002  15.852   6.282  16.047  0.0728 -0.0907 -0.0354
24156W        W41003   0.865   2.916   1.916  0.0512 -0.2265  0.1126
24157W        W41004  15.183   1.214   5.086  0.0293  0.0782  0.0439
24158W        W41005   9.248   9.066  14.025  0.1551 -0.0558  0.1630
24159W        W41006   3.941  10.498  12.644  0.0027  0.0109 -0.2010
24160W        W41007   4.042   9.748   0.217 -0.2646 -0.1587  0.1976
24161W        W41008  17.070  17.493   0.588 -0.0512  0.1474  0.2140
24162W        W41009   2.182  16.926  12.333  0.0835 -0.0736 -0.1130
24163W        W41010   0.200   8.864   1.697 -0.2604 -0.2357 -0.3688
24164W        W41011   8.451   7.876  11.783  0.2206  0.1806  0.0382
24165W        W41012  10.462   3.207  16.399  0.0877  0.1036 -0.0477
24166W        W41013   4.166  15.035  12.423 -0.0148  0.1409  0.0433
24167W        W41014  11.320   3.440  12.025  0.0024  0.0745  0.2787
24168W        W41015  13.843  17.932  16.392 -0.0283 -0.3219  0.0889
24169W        W41016  11.552  13.262  16.307  0.1703 -0.0369 -0.0116
24170W        W41017   8.129  17.801  12.467  0.0891 -0.2992  0.2712
24171W        W41018  13.581   6.221   0.790  0.1101  0.0839 -0.0929
24172W        W41019  16.646  11.808   2.383  0.0365  0.1872 -0.0120
24173W        W41020   0.843   7.962  14.016  0.0576 -0.1955 -0.1918
24174W        W41021   0.684  11.192  15.670  0.0191  0.0190  0.0594
24175W        W41022   9.717   2.574  11.479  0.0584  0.4242  0.1760
24176W        W41023  14.585  17.465   3.011 -0.0909  0.0520  0.0360
24177W        W41024   5.521  16.521   5.412  0.2270  0.0403 -0.1445
24178W        W41025  14.262   9.730   3.166 -0.0419 -0.0663 -0.1532
24179W        W41026  10.135  18.074  16.263 -0.0570  0.2657 -0.0775
24180W        W41027  15.328   0.461   2.418 -0.2458 -0.1612 -0.0297
24181W        W41028   4.695  11.168  12.999 -0.0475 -0.0464 -0.0091
24182W        W41029   6.951   1.888  16.048 -0.2806 -0.1137 -0.3732
24183W        W41030   2.967   8.182   2.932 -0.0507 -0.2489  0.1400
24184W        W41031   5.067  14.455   0.139  0.2049  0.0419 -0.2092
24185W        W41032   3.893   5.688   0.665  0.0697 -0.2301  0.2421
24186W        W41033   0.378   3.628  16.247  0.2578 -0.0583  0.3673
24187W        W41034   5.039   4.195  13.073  0.2359 -0.1380 -0.0173
24188W        W41035  15.787  16.693  11.992 -0.2419  0.0691 -0.1370
24189W        W41036  13.395  15.651   4.508 -0.1637  0.2369  0.2323
24190W        W41037   5.628   5.018  12.548  0.0126  0.0963  0.0262
24191W        W41038   8.557  14.688   1.402 -0.0068  0.1697 -0.0780
24192W        W41039   2.032  15.237   5.183  0.2015 -0.3073  0.1432
24193W        W41040   6.100   4.556   5.251  0.0555 -0.0893  0.1037
24194W        W41041  11.439  15.197   2.297 -0.0163 -0.0176 -0.1283
24195W        W41042   9.692  15.010   5.547 -0.1325  0.1069  0.1230
24196W        W41043   1.511   4.238  12.373  0.0532 -0.0837  0.0583
24197W        W41044   8.516   9.062  13.531 -0.0281  0.0632  0.0755
24198W        W41045   1.425  17.370  13.758 -0.1661  0.0775  0.0616
24199W        W41046  12.639   9.012  14.055 -0.1481 -0.1181  0.0372
24200W        W41047   4.638  16.315   0.381  0.0571 -0.1449 -0.0739
24201W        W41048  14.893  11.468  12.222 -0.1715  0.0231 -0.2013
24202W        W41049   0.651   7.235   5.249 -0.0958 -0.1226 -0.2315
24203W        W41050  15.748   0.153   0.164 -0.0385  0.0607  0.2091
24204W        W41051  12.510   2.356  16.199 -0.2100  0.3725 -0.1601
24205W        W41052   5.376   6.684   2.662  0.1225 -0.0710 -0.4857
24206W        W41053   3.544  13.654   2.075 -0.0729 -0.1843  0.0637
24207W        W41054   9.164   6.184  13.854  0.1469 -0.1511  0.3498
24208W        W41055   6.832  13.386   1.861 -0.0481  0.0270 -0.2491
24209W        W41056   7.837  16.056   4.751  0.0167  0.1873 -0.1580
24210W        W41057   4.942  10.824   5.218 -0.0985 -0.2248 -0.0847
24211W        W41058  14.923   2.644  15.414 -0.1769 -0.2050 -0.2587
24212W        W41059  14.848  17.212   3.409 -0.2951 -0.1643  0.1259
24213W        W41060   8.714  10.167   2.627  0.1144 -0.2321  0.0643
24214W        W41061  13.800   4.211   0.566 -0.1872  0.0296 -0.0061
24215W        W41062   8.730  16.100  16.643 -0.0712  0.0830  0.1839
24216W        W41063   4.187  15.106   3.512 -0.2993  0.2631 -0.1073
24217W        W41064  11.486  11.764   2.917 -0.0801 -0.1784 -0.1919
24218W        W41065  11.201  17.915   2.761 -0.0124  0.1009 -0.1766
24219W        W41066   8.220   6.907   3.535  0.1161 -0.1735 -0.0851
24220W        W41067   5.700  12.408   5.533 -0.1096 -0.0933 -0.3960
24221W        W41068  14.896   4.428   2.683  0.0893 -0.1974 -0.0593
24222W        W41069  13.699  17.458  16.091  0.0793 -0.0369  0.2817
24223W        W41070  10.453   8.611  11.710  0.0872 -0.1528  0.2210
24224W        W41071   7.736   4.204   2.310  0.1556  0.1277  0.2681
24225W        W41072  12.019  16.483  11.280  0.1467  0.1471 -0.2742
24226W        W41073   7.082  12.177   2.042 -0.0448 -0.0503 -0.1334
24227W        W41074   9.602   4.669  13.166 -0.0284 -0.0463  0.0773
24228W        W41075  17.003  17.161   2.512  0.0980 -0.1701  0.1398
24229W        W41076  14.677   9.561   3.926  0.1061  0.0536  0.0106
24230W        W41077   3.359  14.806   5.114 -0.1386 -0.0156  0.0868
24231W        W41078  12.049   8.432   1.629  0.0611 -0.0793  0.0090
24232W        W41079   9.792  16.514   0.215  0.1119  0.0890  0.2527
24233W        W41080   7.744   7.499  14.195  0.2090 -0.2044 -0.0195
24234W        W41081   6.240   1.004   0.626 -0.0246 -0.3723  0.0329
24235W        W41082   3.849   5.669   1.623  0.2023  0.0061 -0.0261
24236W        W41083  17.735   1.067  16.107 -0.0766 -0.0730  0.0198
24237W        W41084  12.494   9.677   3.107  0.0880 -0.2842 -0.2236
24238W        W41085   7.344   6.764  16.199  0.1127 -0.1129  0.0743
24239W        W41086  17.622   8.285  13.426 -0.0912  0.0328  0.0781
24240W        W41087   2.971  10.602   0.254 -0.1483 -0.4368 -0.2080
24241W        W41088  11.511   3.186  13.195 -0.0584 -0.1226 -0.3548
24242W        W41089  14.281  17.834  16.628  0.2044  0.0391 -0.0834
24243W        W41090   7.436   7.056  14.508  0.1352 -0.3771  0.2321
24244W        W41091  17.247   9.451   1.708  0.1292  0.0464 -0.0057
24245W        W41092  15.944   3.713   4.116 -0.2108 -0.0969 -0.1674
24246W        W41093  10.674   3.548   0.974  0.0431 -0.0797  0.0465
24247W        W41094   6.210  14.132   0.203  0.2474  0.1391  0.1467
24248W        W41095   8.484   9.726   5.133  0.0221  0.2753  0.1392
24249W        W41096   2.670   8.723  12.261  0.0133 -0.0338  0.0429
24250W        W41097   8.750   0.985  16.370 -0.0872 -0.0800  0.0481
24251W        W41098   5.120   0.136  13.192 -0.0272 -0.1992 -0.1449
24252W        W41099  10.740   0.427  11.922  0.0402 -0.0960  0.0247
24253W        W41100  14.308   7.654   5.536 -0.0248 -0.3852 -0.2314
24254W        W41101  12.262   0.538   0.633  0.2992  0.0506  0.0387
24255W        W41102   9.548   3.606   0.476 -0.1890 -0.0226 -0.1886
24256W        W41103  14.355   6.276   4.428  0.0040  0.1205  0.1328
24257W        W41104  17.809  17.933   0.237 -0.2025 -0.1923 -0.2123
24258W        W41105  14.000  10.829   0.051 -0.0149  0.0012  0.0896
24259W        W41106   9.837  13.403  13.509  0.1112 -0.0589  0.2833
24260W        W41107  12.292  14.456   5.335 -0.0447  0.2949  0.1236
24261W        W41108   5.782   4.838  15.408  0.1272  0.0065  0.0732
24262W        W41109   9.251  15.548  12.018 -0.1122 -0.3253  0.0370
24263W        W41110   4.780   0.358   0.684 -0.1282  0.0519  0.2245
24264W        W41111   8.459   0.665   1.043  0.2355 -0.0576  0.1900
24265W        W41112   2.967   9.417   5.313 -0.3814 -0.1118 -0.0286
24266W        W41113   6.438  12.786   3.304 -0.1974  0.0488 -0.1785
24267W        W41114   5.309  17.889  13.545 -0.0561  0.2261  0.2787
24268W        W41115   0.852  14.321  12.741  0.1150 -0.0008 -0.1012
24269W        W41116   8.771  11.140  10.617  0.0146  0.1568  0.3107
24270W        W41117  11.011  15.728   4.264  0.1620 -0.1383  0.1546
24271W        W41118  11.202  17.872   0.657  0.0194 -0.4866 -0.2226
24272W        W41119   8.571  15.700   4.593  0.2032 -0.0509  0.2928
24273W        W41120   6.515   3.897   4.397 -0.0237 -0.0056 -0.0330
24274W        W41121   9.198  11.681   2.079 -0.1986 -0.1060 -0.1074
24275W        W41122   2.707   9.115  15.388  0.0568  0.0046 -0.1736
24276W        W41123  13.600  14.226  13.962  0.3193 -0.3193  0.2782
24277W        W41124   8.582   9.416   4.739  0.2990  0.1387  0.0444
24278W        W41125   4.433   3.093   5.322  0.1104  0.1990  0.0922
24279W        W41126   2.616   4.989   1.193 -0.2216 -0.3440 -0.0452
24280W        W41127   3.163  14.296  15.386  0.0440  0.0610 -0.1356
24281W        W41128  12.783  13.517   0.460 -0.3476 -0.3158  0.0135
24282W        W41129  11.312  12.112   4.038 -0.2506 -0.2012  0.1093
24283W        W41130   3.021  11.918  12.541  0.0141  0.1120 -0.0458
24284W        W41131   3.104   0.816  15.490 -0.2878 -0.0352 -0.0469
24285W        W41132  17.035  13.103  11.971  0.1403 -0.0411 -0.0101
24286W        W41133  14.098   1.842  14.631 -0.1308 -0.1558 -0.1239
24287W        W41134   5.511   1.632  15.002  0.0648 -0.0197  0.0700
24288W        W41135   5.337  14.959   3.670 -0.0402 -0.2211 -0.0563
24289W        W41136  10.308   3.218  13.196 -0.2879 -0.2877  0.2137
24290W        W41137  12.060   9.261  13.939 -0.0828 -0.3128 -0.0674
24291W        W41138  13.643   7.298  16.665 -0.1511  0.2876 -0.2521
24292W        W41139   3.152   4.913  13.304  0.0116  0.1329 -0.2785
24293W        W41140  13.808  11.441   4.331 -0.0677  0.2440 -0.1085
24294W        W41141   6.433  11.825  15.085  0.1586  0.1587  0.0346
24295W        W41142  12.063   7.645   3.309  0.0164 -0.1352  0.2098
24296W        W41143   5.043  11.876   0.718  0.0927 -0.0489 -0.1184
24297W        W41144   2.244   0.871  16.220 -0.3336  0.0102 -0.1278
24298W        W41145   3.380  10.606  11.447 -0.0212  0.0506  0.1143
24299W        W41146   1.453  10.167  15.405 -0.0527  0.2007  0.1519
24300W        W41147   5.803   4.803  11.695 -0.1377  0.2884  0.0714
24301W        W41148  17.749   9.374   3.743 -0.3359 -0.0534 -0.1908
24302W        W41149   6.560   1.462   5.236  0.0398  0.1468 -0.0651
24303W        W41150   7.058   0.372   1.462 -0.0140  0.0530  0.1752
24304W        W41151   8.884   3.616  14.634 -0.1901  0.2752 -0.2286
24305W        W41152  17.731  13.464  15.370 -0.0971 -0.0163  0.0048
24306W        W41153  14.984  14.918   2.055 -0.0392 -0.0095  0.3742
24307W        W41154   0.180   3.268   5.681 -0.3112  0.3945 -0.0788
24308W        W41155  14.340   9.519  13.891 -0.0317  0.0924  0.4816
24309W        W41156  15.531   1.021  13.286  0.1739 -0.1228  0.2507
24310W        W41157  15.506   3.820   3.054 -0.1149  0.1673 -0.0245
24311W        W41158  11.426   2.766  15.316  0.0121  0.0508  0.0441
24312W        W41159   8.618  13.094  12.224  0.2186  0.1307 -0.0072
24313W        W41160   8.144   4.289   1.894  0.0464  0.0257 -0.0641
24314W        W41161  11.833  10.656  14.421  0.1768  0.1574 -0.2904
24315W        W41162   7.825   7.728   4.948 -0.2150  0.1709 -0.0731
24316W        W41163   8.563   4.549  15.662  0.0209 -0.2592 -0.4171
24317W        W41164  17.841  11.272   5.707  0.1333 -0.0102  0.2023
24318W        W41165  13.767   8.592   4.989  0.0228 -0.0103 -0.1426
24319W        W41166   2.570   4.523  14.358 -0.2841  0.2029  0.0304
24320W        W41167  14.357   6.101   1.048 -0.0720 -0.0914 -0.1806
24321W        W41168  10.496   4.158   6.081  0.0794 -0.3719  0.1597
24322W        W41169  15.979  17.814   4.092 -0.0524 -0.1109 -0.1665
24323W        W41170   1.354  14.619   0.834  0.1344  0.1056  0.0938
24324W        W41171   2.858   4.925  11.662  0.4719 -0.1396 -0.0446
24325W        W41172   7.946   5.225  15.744 -0.2052 -0.0285  0.1360
24326W        W41173   6.102  10.827  14.233 -0.2225  0.2019  0.2191
24327W        W41174   2.376  10.919  16.072 -0.0494 -0.0176 -0.0652
24328W        W41175  14.008   0.244   4.463  0.2208  0.1831 -0.1380
24329W        W41176  12.500  16.649  11.474  0.0464 -0.2234 -0.3225
24330W        W41177   7.676   5.663  12.093  0.1634  0.0212  0.1517
24331W        W41178   0.516  10.445  13.684  0.1522  0.1416  0.2505
24332W        W41179   3.112  11.376   2.467 -0.0609  0.4187 -0.0531
24333W        W41180   6.559   6.256  16.342  0.2766  0.0807  0.0701
24334W        W41181  10.140  13.259  15.846 -0.1104  0.0406 -0.0445
24335W        W41182  16.369   4.385   1.284  0.0341  0.1931 -0.2383
24336W        W41183  16.964  15.922   2.897 -0.0241 -0.1278 -0.1585
24337W        W41184   4.406   4.656  13.339  0.0575  0.2501  0.0526
24338W        W41185   4.801   9.382   0.531  0.2915  0.0791 -0.1971
24339W        W41186  10.435   2.771  14.593  0.1281  0.1028  0.3107
24340W        W41187   9.502  14.671   3.069  0.1141  0.1244  0.1081
24341W        W41188  17.392  10.000   0.260 -0.1630 -0.3235 -0.0670
24342W        W41189   0.342   2.525  11.457 -0.1074  0.0685 -0.0678
24343W        W41190  12.501  10.921  12.495  0.2393 -0.0618  0.2847
24344W        W41191   8.874  16.156   3.378 -0.1630  0.2846 -0.0539
24345W        W41192   9.354  14.723  12.964  0.0134  0.1492 -0.0816
24346W        W41193   5.204  12.275   3.396 -0.0178  0.1192  0.2771
24347W        W41194  16.272  10.698  13.716 -0.1007  0.1310  0.1593
24348W        W41195   9.121   0.842   4.458 -0.0360  0.0302 -0.0218
24349W        W41196  16.974  11.399   0.120  0.1022  0.0986 -0.1514
24350W        W41197   3.214  16.696   1.640 -0.0386 -0.1793 -0.2057
24351W        W41198   6.281  12.505   5.302  0.0840  0.2349  0.0319
24352W        W41199  10.292   5.642   3.631  0.0435 -0.0497 -0.2854
24353W        W41200  10.769   3.374   2.876  0.1239 -0.1112  0.1989
24354W        W41201   6.557   7.448   0.466 -0.2682  0.2802  0.2127
24355W        W41202  10.101   4.553   2.344 -0.3944  0.1130  0.2085
24356W        W41203  12.411  10.136  14.981 -0.2775 -0.1436  0.1831
24357W        W41204  17.321   3.257   2.777 -0.0743  0.1401  0.1338
24358W        W41205   7.175  12.214  15.647  0.0707 -0.1341 -0.1630
24359W        W41206  14.398  10.446   2.226 -0.1533 -0.1824 -0.0868
24360W        W41207   8.020   4.390  12.172 -0.0339 -0.1839 -0.1567
24361W        W41208   1.390   0.439   0.588  0.0736 -0.1796 -0.0065
24362W        W41209  12.440   7.308   0.699 -0.1788 -0.2701  0.0839
24363W        W41210   4.400  17.531   1.604  0.0951  0.0373  0.0849
24364W        W41211  15.283  14.964  12.400  0.1220 -0.2127 -0.1302
24365W        W41212   3.506   7.776  11.981 -0.1668  0.1133 -0.1373
24366W        W41213  13.932   2.063  13.734  0.1339 -0.1023 -0.1345
24367W        W41214   8.226  12.794   1.341 -0.2288  0.1535 -0.1418
24368W        W41215   6.234  14.347  14.042  0.3226 -0.1033  0.1490
24369W        W41216  16.657   7.882   0.928  0.1884  0.2357 -0.2143
24370W        W41217  12.403   9.390   3.542 -0.1363  0.1926  0.3776
24371W        W41218  14.963  14.805   5.291  0.0891 -0.0384  0.5517
24372W        W41219   4.486   1.983   2.875 -0.0194  0.1769 -0.2106
24373W        W41220  13.781  11.914   2.981  0.2230 -0.0114  0.2145
24374W        W41221   4.068   5.577   4.389  0.0986 -0.0674 -0.1193
24375W        W41222  14.409  13.654  13.526  0.0949  0.3391  0.0244
24376W        W41223   9.413  11.173   5.129  0.2070  0.0462 -0.0091
24377W        W41224  10.558  13.986  11.916 -0.0223  0.2522  0.1890
24378W        W41225   7.229   2.944   3.988  0.4196  0.1493  0.0124
24379W        W41226   7.821  13.206  12.873  0.1310 -0.1763  0.0678
24380W        W41227   7.620  16.088  14.883 -0.4236  0.2013  0.0724
24381W        W41228   3.326  12.294  14.309  0.0448  0.1814 -0.0854
24382W        W41229   1.057  12.847  16.102  0.3329  0.0941  0.0319
24383W        W41230  12.785   0.566   1.822  0.1280  0.1556 -0.1632
24384W        W41231   9.472  14.266  12.054 -0.0955  0.3754  0.0157
24385W        W41232   0.813   6.992  13.219 -0.2159 -0.1384  0.0664
24386W        W41233   9.885  12.782  16.199 -0.0016 -0.0294  0.0563
24387W        W41234   3.181   1.055  11.426 -0.0752  0.2026  0.1975
24388W        W41235  17.264  16.568   0.950  0.0332  0.1035  0.1082
24389W        W41236   3.325  17.999  12.926  0.2328  0.4648  0.2771
24390W        W41237  12.491  16.588  11.995  0.1263 -0.0381 -0.0430
24391W        W41238   4.612  12.479   2.555  0.2586  0.0252  0.0401
24392W        W41239   2.704  17.429  11.079 -0.1784 -0.0078 -0.0277
24393W        W41240  12.479  17.776   0.861 -0.0282  0.0818  0.3970
24394W        W41241   3.347  15.178  16.487  0.0814 -0.1136  0.0539
24395W        W41242  15.977  17.600  11.814  0.2172 -0.0153 -0.1872
24396W        W41243  17.317   3.427  16.530  0.1223 -0.1178 -0.0993
24397W        W41244  10.936   8.751   1.716 -0.0192  0.3289  0.0495
24398W        W41245   6.833   4.808   2.511  0.1934 -0.1118 -0.1258
24399W        W41246   3.972   7.249  15.018 -0.1175  0.0918 -0.1511
24400W        W41247  12.927  18.044   4.427  0.0861  0.1411  0.0873
24401W        W41248   6.798  14.191   0.065  0.0283  0.1499  0.0533
24402W        W41249  13.338   9.196   5.524  0.0479  0.0525 -0.1752
24403W        W41250   6.801   1.886   0.264  0.1329 -0.2325 -0.0564
24404W        W41251   7.187   7.159  13.339  0.0194  0.0818 -0.1720
24405W        W41252  12.564   0.773  12.081  0.0695  0.0787  0.0702
24406W        W41253   1.818  14.998  13.635 -0.0375  0.0746 -0.0941
24407W        W41254   4.981   3.812  14.050 -0.0609  0.0949 -0.1708
24408W        W41255   4.199   6.434   2.246 -0.1098  0.0665 -0.2187
24409W        W41256   1.297  16.590   0.468  0.2645  0.1687 -0.0332
24410W        W41257   6.916  13.183   0.818 -0.0064 -0.1388  0.0812
24411W        W41258  12.378   2.529   0.262  0.3199  0.0516  0.2416
24412W        W41259   8.782  10.131   4.324 -0.1670  0.0219  0.0114
24413W        W41260  12.806   6.536   2.875 -0.1352 -0.0291  0.0657
24414W        W41261   2.127  14.823   0.686  0.0693  0.0281  0.1263
24415W        W41262   5.618   8.778  15.529 -0.2703 -0.1288  0.3151
24416W        W41263  15.869   5.905   3.844 -0.1403 -0.1553 -0.0493
24417W        W41264  18.017   1.219  12.620  0.0470  0.1129  0.1480
24418W        W41265   2.805  12.418  16.345  0.0908 -0.2697 -0.1430
24419W        W41266   2.454  14.749  16.595  0.0138  0.2644  0.1206
24420W        W41267   8.936   5.338  15.497 -0.0305 -0.0301 -0.1470
24421W        W41268  13.995   5.104   0.191 -0.0768  0.1489 -0.1513
24422W        W41269  16.851   4.663  14.580 -0.2163  0.3179 -0.0533
24423W        W41270  16.453   3.457  15.643  0.2811  0.1397  0.0272
24424W        W41271   3.300  14.255   2.633 -0.2154 -0.3595 -0.0297
24425W        W41272  12.521  11.918  16.050  0.2125  0.1585  0.0091
24426W        W41273  14.387   4.580   1.365 -0.0432 -0.0303 -0.2122
24427W        W41274  15.682   5.994  10.542 -0.0605  0.2112  0.1733
24428W        W41275   3.680  14.399  15.301  0.2603 -0.1191 -0.1592
24429W        W41276   1.137   7.539   2.809  0.1190  0.0073 -0.2257
24430W        W41277   0.273   8.935   5.848 -0.1473 -0.2862 -0.0975
24431W        W41278   3.722  18.034  14.669  0.0372 -0.1620 -0.0326
24432W        W41279  16.922  15.315   1.603  0.3577  0.0960 -0.0381
24433W        W41280   8.038   0.274  14.054  0.2652  0.1577  0.5068
24434W        W41281   2.461  16.773  11.775  0.0478  0.0880 -0.1553
24435W        W41282  12.874  11.199  14.489  0.0936 -0.0274 -0.1286
24436W        W41283   8.381   9.510  13.312 -0.1582 -0.0176 -0.5035
24437W        W41284   5.301   6.738   1.677 -0.0734  0.0308 -0.0920
24438W        W41285  14.456   9.821  14.886 -0.2159 -0.0652  0.1182
24439W        W41286   3.753  17.968  12.625  0.0598 -0.0277 -0.0229
24440W        W41287  11.384   8.898   6.228 -0.1855 -0.2224  0.2069
24441W        W41288  10.034   9.744  15.728 -0.2387 -0.0798  0.3212
24442W        W41289  16.187   9.644  16.632  0.0045  0.5169 -0.1061
24443W        W41290   7.716  16.786   1.562  0.1492  0.2630 -0.1765
24444W        W41291   6.808  11.873  11.157  0.1201  0.0752  0.0698
24445W        W41292   3.967   2.627   2.299 -0.0712  0.0036  0.1380
24446W        W41293   6.008   5.267  15.705  0.0599 -0.0498  0.1338
24447W        W41294  13.630  10.013   0.175 -0.0274  0.3993 -0.1438
24448W        W41295  17.276   7.648   5.417  0.0051  0.0589  0.0897
24449W        W41296  10.494  13.917  13.455 -0.2821 -0.1036 -0.1747
24450W        W41297   9.693  11.714   2.107 -0.0755  0.1087  0.1065
24451W        W41298   2.610  16.433   5.053 -0.0576 -0.2026 -0.0204
24452W        W41299  15.298  15.500  12.901 -0.1622 -0.2672 -0.3025
24453W        W41300  17.125  11.760   2.366 -0.2058  0.2054 -0.1538
24454W        W41301  16.825  14.234   6.068 -0.2270  0.1147  0.1847
24455W        W41302  10.235  11.941   0.092 -0.0384 -0.0457 -0.0555
24456W        W41303   1.893  13.278  15.348 -0.0317 -0.5176 -0.2198
24457W        W41304  12.249  15.324  15.086  0.1455  0.1232 -0.0141
24458W        W41305  10.598  15.305   2.614 -0.0473 -0.0126 -0.0115
24459W        W41306   7.051   7.634   3.469 -0.0681  0.1347  0.1665
24460W        W41307   4.012   2.847  15.586 -0.0997  0.0106 -0.0776
24461W        W41308  15.943  12.482  13.296 -0.2567  0.2641  0.0414
24462W        W41309   2.760  11.355   6.844 -0.1326  0.1166  0.0010
24463W        W41310   2.568  17.809  14.567 -0.0231  0.1052 -0.0537
24464W        W41311   2.554  15.488   2.614  0.1200  0.2143 -0.1007
24465W        W41312   5.474  16.692  16.274  0.2376 -0.0496  0.0641
24466W        W41313   7.586   6.324   4.446  0.0155 -0.0947 -0.1041
24467W        W41314  15.621   6.491   5.339  0.2009 -0.2166 -0.0179
24468W        W41315   2.082  12.742   5.645 -0.0753  0.0848 -0.1077
24469W        W41316   9.059   1.797   5.448  0.0367 -0.0817  0.3665
24470W        W41317   2.826  13.184   3.195  0.0082  0.1076 -0.0846
24471W        W41318   9.113  17.354  11.634  0.2876  0.1969  0.0822
24472W        W41319  13.854   7.512   5.286  0.1252  0.1118  0.0380
24473W        W41320   1.101  16.965  14.398  0.0202 -0.1131 -0.0841
24474W        W41321  14.798   4.912  16.273 -0.1204 -0.1694 -0.0140
24475W        W41322   4.218   0.203   5.619  0.1692  0.1217  0.0990
24476W        W41323  16.788  13.911   3.381 -0.0751 -0.3343  0.3100
24477W        W41324  17.251   8.070  13.157 -0.2288 -0.2073 -0.2667
24478W        W41325  10.666   7.153   0.961  0.0785  0.0499  0.2787
24479W        W41326  15.344  16.085   4.633 -0.2162  0.1156  0.4085
24480W        W41327  11.461   1.939   4.665  0.0478 -0.2851 -0.2775
24481W        W41328  16.086   9.103   0.233  0.1241  0.0109  0.2107
24482W        W41329   9.305   0.119  11.361  0.0397 -0.1132 -0.3695
24483W        W41330   3.505   0.765  14.829  0.1538  0.0728 -0.2485
24484W        W41331  10.953   9.594  14.567  0.0952 -0.1178 -0.3948
24485W        W41332  15.673   1.582  12.336  0.0304 -0.1996  0.0860
24486W        W41333  13.553  10.109   2.054 -0.2295 -0.0293 -0.1310
24487W        W41334   7.015  15.190   3.495  0.2697 -0.1755  0.1270
24488W        W41335  13.340   5.626   4.182 -0.1049 -0.0930  0.1338
24489W        W41336   0.274   7.390  12.476  0.1042 -0.0234  0.0954
24490W        W41337   9.018   3.191  16.067  0.1826  0.0153  0.1182
24491W        W41338   2.081  14.388  16.530  0.3045  0.3086  0.2900
24492W        W41339   4.184   6.460  13.656 -0.1581  0.3212 -0.1344
24493W        W41340  17.090  16.411  15.546 -0.4600 -0.1809  0.0481
24494W        W41341  11.780   1.877  12.456  0.0130  0.0027 -0.2019
24495W        W41342  13.818   6.560   1.325  0.2177 -0.1042  0.0078
24496W        W41343  15.356   0.341  14.114 -0.1190 -0.1962 -0.0841
24497W        W41344   6.435  12.108   2.706  0.2284  0.0980  0.0721
24498W        W41345   0.777  13.103  12.933  0.1206  0.0242  0.0405
24499W        W41346   9.723  14.848   1.777 -0.2024 -0.2751  0.0408
24500W        W41347   3.152  17.308   4.155 -0.1375  0.1335 -0.1276
24501W        W41348  14.429   6.945  12.720 -0.0540  0.2511 -0.1935
24502W        W41349   2.170   0.861   5.578 -0.1285  0.0154  0.0575
24503W        W41350  17.690  15.939   1.173  0.1177 -0.3165 -0.6666
24504W        W41351   6.114   9.426   1.633 -0.0484 -0.0136 -0.0853
24505W        W41352   9.593   1.287  16.362  0.2236  0.1016  0.0352
24506W        W41353   1.113  14.184  13.796 -0.1886  0.0946  0.2267
24507W        W41354   7.995   2.101   2.292  0.0617  0.0778 -0.0424
24508W        W41355  13.939  12.507  13.933 -0.0538 -0.2481  0.1422
24509W        W41356   8.663  14.763   3.732 -0.1855  0.0263  0.0877
24510W        W41357  16.922   8.431   1.411  0.3083  0.1872 -0.2203
24511W        W41358  11.044  15.893   3.278  0.0574 -0.1421 -0.0523
24512W        W41359  17.070  17.338  11.990  0.1861 -0.3240 -0.1196
24513W        W41360   2.055  16.011   2.383  0.0262 -0.0014  0.1459
24514W        W41361   4.623  16.338  15.743  0.1797 -0.0153 -0.0639
24515W        W41362   6.633   1.409   2.589 -0.0613  0.1099 -0.1063
24516W        W41363   9.698   1.432   2.049 -0.0251  0.2666  0.0196
24517W        W41364  15.034   1.380  15.942  0.3244 -0.0680  0.1868
24518W        W41365   7.034  17.662  16.641  0.0264  0.0725 -0.1034
24519W        W41366  13.094  12.169   5.249  0.0455  0.2222 -0.2868
24520W        W41367  14.564   6.621  16.012  0.2034 -0.1387  0.1852
24521W        W41368   6.032  14.257   4.579  0.1222 -0.0239 -0.2118
24522W        W41369   1.904  13.231   5.609 -0.0759  0.1847 -0.0778
24523W        W41370  16.375   0.556   3.098 -0.1483 -0.1314 -0.1109
24524W        W41371  12.299   6.845  16.339 -0.2312  0.2506 -0.0698
24525W        W41372  16.264  11.940  12.479 -0.0338 -0.0887  0.1730
24526W        W41373   2.130  17.376  12.571  0.3279 -0.3218  0.1308
24527W        W41374  17.181   7.508  16.268 -0.0499 -0.1215 -0.1503
24528W        W41375  17.753   4.654   5.755  0.1648 -0.0839 -0.2108
24529W        W41376  14.044   2.212  15.222  0.0324  0.1430 -0.2217
24530W        W41377  18.033   3.838  13.539 -0.1568 -0.0205 -0.3992
24531W        W41378   6.882  15.171   4.110 -0.0721  0.2511  0.1411
24532W        W41379  14.229  17.860  11.672 -0.0346 -0.0374 -0.0300
24533W        W41380  13.771   8.359   2.887 -0.1925  0.3592 -0.1092
24534W        W41381   6.321   8.081  14.586  0.2163  0.2901  0.0451
24535W        W41382   1.249  12.241  15.380  0.1761 -0.0699  0.0066
24536W        W41383  15.417   4.183   0.626 -0.0275 -0.0636 -0.0985
24537W        W41384   2.919  18.065  12.283 -0.1070  0.0109  0.1509
24538W        W41385   3.286   3.162  12.465 -0.0248  0.1004 -0.1930
24539W        W41386   5.968   1.142  15.501 -0.0541 -0.0331  0.1284
24540W        W41387  13.976   8.132  15.734 -0.0848 -0.1322  0.3250
24541W        W41388   1.343   3.172   5.302  0.0668 -0.3075 -0.1460
24542W        W41389  11.786   5.741   1.543 -0.0691  0.1313  0.0831
24543W        W41390   0.634   0.653   2.327 -0.1234  0.0229  0.2219
24544W        W41391  15.476   3.522  13.656 -0.2288 -0.0157  0.3733
24545W        W41392   6.603  10.545   6.316 -0.1810  0.0994  0.0301
24546W        W41393   0.896   1.850  12.939  0.1095  0.2090  0.2748
24547W        W41394   6.888   4.170  16.191  0.3865  0.0372  0.3005
24548W        W41395  13.518  16.695  12.771 -0.0743  0.3489 -0.0134
24549W        W41396  16.663   5.175   5.582  0.2082 -0.1604  0.1263
24550W        W41397   5.851   1.030  16.370  0.0431  0.2943 -0.0594
24551W        W41398   7.042  17.924  12.257 -0.2562 -0.3000  0.1745
24552W        W41399  11.568  13.244  14.033 -0.2836  0.1716 -0.1198
24553W        W41400  11.262   7.086   4.302  0.1747 -0.0950 -0.4389
24554W        W41401   7.559   1.822   4.269  0.2045 -0.2836  0.1173
24555W        W41402   2.062   8.541   5.279  0.2313 -0.3133 -0.3327
24556W        W41403   8.523   2.456   2.514 -0.2039 -0.0289 -0.4112
24557W        W41404  16.253   8.459  13.432  0.1849  0.0602  0.1922
24558W        W41405   4.088   8.194  13.074  0.0152  0.1751  0.2748
24559W        W41406   2.684   6.215  15.656 -0.2478  0.0178 -0.0317
24560W        W41407  17.624   0.077  15.495 -0.0291 -0.4692  0.0099
24561W        W41408  15.648   5.444   3.397  0.5110 -0.1827 -0.0008
24562W        W41409  11.219   3.447  15.920 -0.0977 -0.1212 -0.1438
24563W        W41410   4.725  11.558   1.999  0.0111 -0.0343 -0.4163
24564W        W41411   1.050  11.329  14.853 -0.2271 -0.2453 -0.1361
24565W        W41412   4.716  16.881   3.124 -0.0620  0.1157  0.1031
24566W        W41413  16.030   1.952  12.779  0.2052  0.1990 -0.2875
24567W        W41414   5.084  10.731   2.594  0.2322 -0.0664 -0.2544
24568W        W41415   0.568  13.655   0.781 -0.2111  0.1662 -0.2658
24569W        W41416  11.568  12.737   2.909  0.0299  0.1326 -0.0103
24570W        W41417  13.379  17.605   2.659  0.0263  0.1424 -0.2115
24571W        W41418   2.240  14.726  13.422  0.2217  0.0457 -0.0840
24572W        W41419   8.150   7.005   3.051 -0.0443  0.0348  0.1298
24573W        W41420  13.159   4.092  15.554 -0.1101  0.0772 -0.0439
24574W        W41421   0.365  12.497   1.344  0.1157 -0.1929 -0.2582
24575W        W41422   6.002   3.955  11.228  0.2005 -0.1808  0.0542
24576W        W41423  13.368  17.963   3.792 -0.2418 -0.0930 -0.4182
24577W        W41424  13.349   7.647  13.528  0.1292 -0.0551  0.0468
24578W        W41425   2.149  17.831   4.233 -0.2214  0.1312  0.0775
24579W        W41426  10.814   7.614  16.441 -0.0117 -0.0131 -0.1667
24580W        W41427  18.000  14.798   1.280 -0.0971  0.0138  0.1450
24581W        W41428  11.765  13.027   4.949 -0.2424  0.2576  0.4005
24582W        W41429   3.388  16.666  15.417 -0.0346  0.0323  0.1137
24583W        W41430   2.816  12.669   6.580 -0.0792 -0.1182 -0.1710
24584W        W41431   6.279   1.309   4.264 -0.0757 -0.1409  0.0786
24585W        W41432  14.865  17.667   5.570 -0.2687 -0.0585  0.1136
24586W        W41433  13.669   6.774  15.119 -0.0341  0.2143 -0.1518
24587W        W41434   5.453  12.747   4.319  0.1656 -0.4342  0.1062
24588W        W41435  17.105  13.507   1.041 -0.1896 -0.0469 -0.1608
24589W        W41436   7.903  10.262  15.146 -0.0990  0.1564  0.0644
24590W        W41437  10.837  17.373  11.709 -0.2687  0.0657 -0.1199
24591W        W41438  17.285  16.646   1.481  0.0821 -0.0231  0.1903
24592W        W41439  10.470   4.290   0.516  0.4678  0.2141 -0.1580
24593W        W41440   0.250  11.355  13.250 -0.1541  0.1214  0.1584
24594W        W41441  12.820  12.693   1.670 -0.1114 -0.0060 -0.1673
24595W        W41442  16.003   0.524  11.155 -0.1073  0.1502 -0.1320
24596W        W41443   2.160   0.394   3.410 -0.2187  0.1836 -0.3309
24597W        W41444   1.214   9.242  14.811  0.2130  0.0427  0.1800
24598W        W41445  17.168  16.318  13.689 -0.1815  0.1359  0.1635
24599W        W41446   4.378  15.091   6.207 -0.0140  0.4906  0.3093
24600W        W41447  17.418  16.836   4.358 -0.2808  0.2554  0.3314
24601W        W41448  12.562  13.303   2.616  0.1670  0.2426 -0.0435
24602W        W41449  10.273  11.099  14.990 -0.0451 -0.1144  0.0507
24603W        W41450   5.481  10.913  14.443 -0.0018  0.0072 -0.1235
24604W        W41451   3.728   9.885   2.538 -0.2503  0.1314 -0.1342
24605W        W41452  15.224   9.600   5.216 -0.2799  0.2298  0.0588
24606W        W41453   3.719  10.778   0.647  0.0638 -0.0132  0.3698
24607W        W41454   0.802   6.007   0.833 -0.3466 -0.0076  0.1797
24608W        W41455   9.913   6.699   3.951 -0.2105  0.0026  0.3277
24609W        W41456   2.749  17.791  13.553 -0.0145 -0.2528 -0.2848
24610W        W41457   7.623  11.148   5.479  0.0244 -0.2686  0.0330
24611W        W41458   0.516   9.399   3.994  0.2921 -0.1443  0.1170
24612W        W41459  12.318   1.584  13.199  0.1657 -0.1276 -0.0800
24613W        W41460   4.244   7.042   4.570  0.1114  0.0967  0.0013
24614W        W41461  10.170   3.248  12.677  0.2913 -0.1383 -0.0303
24615W        W41462   2.945  10.481  11.991 -0.3018 -0.1379 -0.0800
24616W        W41463   0.656   4.296   3.706 -0.0926  0.0742  0.1742
24617W        W41464  14.955  12.050  13.328  0.1992 -0.0197  0.0025
24618W        W41465   0.288   0.956   4.487 -0.1385  0.2046  0.2036
24619W        W41466   8.733   5.892  15.852 -0.1045  0.0890  0.0716
24620W        W41467   1.115   8.804   0.038 -0.1298  0.1721 -0.2017
24621W        W41468   0.751   4.935  15.013  0.3020  0.1547  0.3811
24622W        W41469  13.626   1.474   1.067  0.0222 -0.1465  0.1816
24623W        W41470  11.478  17.424   3.861 -0.2330  0.0638 -0.0150
24624W        W41471   1.229  17.143  14.875 -0.0325  0.1766  0.0455
24625W        W41472   5.397   5.681  13.784 -0.0174  0.2597  0.1493
24626W        W41473  16.033  17.050  11.823  0.1104 -0.2115  0.0661
24627W        W41474   3.514   3.336   2.324  0.0174  0.3106  0.0144
24628W        W41475   4.647  14.265   3.449  0.3964 -0.3013  0.0438
24629W        W41476   1.127  17.990  11.860  0.3136 -0.0875 -0.1617
24630W        W41477   8.751  12.918   4.185  0.1890 -0.0547 -0.1496
24631W        W41478   7.861  14.200   3.933 -0.2359 -0.1043 -0.0470
24632W        W41479  17.241  14.161  15.684  0.1429 -0.0671  0.0259
24633W        W41480   2.086   1.413   0.116 -0.2168  0.1728 -0.0314
24634W        W41481  16.212  17.002   3.991  0.1955 -0.0188 -0.0844
24635W        W41482   6.139   9.738   4.263  0.2818 -0.2149  0.2382
24636W        W41483   9.432   0.258   0.941  0.1130 -0.1166 -0.0904
24637W        W41484   4.963   5.401  13.942 -0.3460 -0.0149  0.0448
24638W        W41485  13.293   1.685   2.613  0.1831 -0.4048 -0.1355
24639W        W41486  11.796   9.695   2.817 -0.0508 -0.3255 -0.0213
24640W        W41487  10.404   4.160  15.794 -0.2713  0.0179 -0.1843
24641W        W41488   4.690   1.837  16.038  0.1021  0.2986  0.5474
24642W        W41489  12.299  12.881   1.426  0.0714 -0.0740 -0.0346
24643W        W41490   9.341   0.579   2.477 -0.3036 -0.1030 -0.0613
24644W        W41491  12.872   2.914   1.318 -0.1701 -0.0647  0.0540
24645W        W41492   9.715  14.348  11.640 -0.1892 -0.1014  0.4392
24646W        W41493   9.617   9.199   4.802 -0.0490  0.1707 -0.1381
24647W        W41494   1.372   6.518  12.630 -0.2840 -0.0949  0.2647
24648W        W41495  15.591   8.990   1.098 -0.0621 -0.1424 -0.2396
24649W        W41496  16.095   2.642   0.596 -0.1789  0.0292  0.0208
24650W        W41497  11.511  17.580   5.348 -0.0822  0.1372  0.1567
24651W        W41498   7.759  14.489   1.206  0.1106 -0.2092  0.1527
24652W        W41499   0.529   0.577  13.071  0.0360  0.0966  0.1977
24653W        W41500   8.503  13.910  13.586 -0.1105 -0.2244  0.1374
24654W        W41501   8.452   2.034   0.495 -0.1140  0.2425  0.1235
24655W        W41502  10.254   1.446  13.026 -0.1155  0.1281 -0.1508
24656W        W41503  12.805   3.986  13.258  0.0702 -0.5751  0.0455
24657W        W41504   7.821  13.188  11.447  0.0117  0.0498 -0.0654
24658W        W41505   9.354   6.485  13.138 -0.1075 -0.1819  0.2291
24659W        W41506   2.273  15.739   4.190  0.0596 -0.0989 -0.2161
24660W        W41507   0.724  10.897   1.061 -0.1333  0.2745  0.1361
24661W        W41508   7.748   7.273  11.839  0.0677  0.0548 -0.2605
24662W        W41509  14.781  11.458   3.166  0.0539 -0.0931 -0.3203
24663W        W41510  17.092  17.630   1.548  0.0400  0.0185  0.2788
24664W        W41511   1.312  13.010   4.173  0.5319  0.1606 -0.2696
24665W        W41512   2.839   6.974  11.735  0.1409 -0.1794  0.3115
24666W        W41513   0.000  15.769   2.541  0.1570 -0.1001 -0.1200
24667W        W41514  14.527   5.875  12.570 -0.2639  0.1114 -0.2308
24668W        W41515  14.370   6.360  12.675  0.1517  0.0822 -0.0280
24669W        W41516   3.247   7.973   3.751 -0.0595 -0.3492 -0.2291
24670W        W41517  17.384   6.289   0.847 -0.0077 -0.3145 -0.0404
24671W        W41518  14.167  16.304   4.503  0.0160 -0.0252 -0.2519
24672W        W41519  11.521   5.730   2.032  0.0337 -0.3455 -0.1101
24673W        W41520  10.589   4.900  14.458 -0.3871  0.0564  0.1738
24674W        W41521   6.172  17.654   0.406 -0.1150  0.0298  0.2826
24675W        W41522  16.139   4.599  13.905  0.2098 -0.1849 -0.0874
24676W        W41523  11.488  16.451   0.389  0.2101 -0.0560  0.1179
24677W        W41524  17.671  14.480  16.234 -0.0318  0.0401 -0.0419
24678W        W41525  10.410   8.881   5.337 -0.1842 -0.0778 -0.0332
24679W        W41526   3.086  10.848   2.190 -0.4621  0.0305 -0.0703
24680W        W41527   7.790   1.996   5.218 -0.0199  0.0190  0.0143
24681W        W41528   1.525   7.073  14.520 -0.1590  0.0894 -0.2988
24682W        W41529  16.911   2.694  13.726 -0.1823  0.0191  0.2250
24683W        W41530   8.760  14.192   1.314  0.1032 -0.2820 -0.0583
24684W        W41531  10.343  12.857   2.136  0.1101 -0.1409  0.0822
24685W        W41532  11.340   4.729  15.976  0.1195 -0.0962 -0.1488
24686W        W41533   3.322   7.059  11.693 -0.1923 -0.1242  0.0684
24687W        W41534   5.022   0.339  12.009  0.1533  0.3697 -0.1760
24688W        W41535   7.986   6.233   2.838  0.0560  0.0937  0.0698
24689W        W41536  14.251   6.328   3.902  0.2692  0.3093 -0.4968
24690W        W41537   9.786   4.477   1.657  0.0238  0.2243 -0.1244
24691W        W41538  11.042   0.325   2.500  0.1296  0.1404  0.0723
24692W        W41539  14.190  13.345  16.028  0.0836 -0.3083  0.0040
24693W        W41540   5.831  12.485  16.061 -0.2817 -0.0858  0.1537
24694W        W41541  17.727   3.639  15.094  0.5383 -0.0192  0.1587
24695W        W41542  15.049  14.373  13.568  0.1118 -0.0971  0.0137
24696W        W41543  10.614   2.435   1.798 -0.0823 -0.0761 -0.2182
24697W        W41544  13.494   3.780  15.692  0.0900  0.2776  0.0208
24698W        W41545   4.710  12.809   5.721 -0.3064 -0.2698  0.3453
24699W        W41546  13.966  14.852  12.680 -0.0024  0.0209 -0.0690
24700W        W41547  15.900  14.782   3.832 -0.1500  0.0342  0.0526
24701W        W41548  12.600   1.739  12.783  0.0456  0.2436  0.0695
24702W        W41549   4.649   8.077   3.508 -0.0013 -0.1466  0.1355
24703W        W41550   1.900  16.381  16.672 -0.3105 -0.2654  0.0298
24704W        W41551  13.614  15.346   1.811  0.3320  0.1507  0.2209
24705W        W41552  17.451   3.997  15.932 -0.2094  0.1336  0.0404
24706W        W41553  11.512  12.649   1.834 -0.1741  0.1245 -0.1216
24707W        W41554  16.366  12.337  12.082  0.1422  0.0687 -0.0778
24708W        W41555   1.151  10.463  11.993  0.0328 -0.0407 -0.0862
24709W        W41556   4.373   8.795   6.241 -0.1076  0.1712 -0.0216
24710W        W41557  11.087   7.858   2.166  0.1103  0.1489 -0.2080
24711W        W41558  10.671  11.619   2.126  0.0774  0.0746  0.0958
24712W        W41559   5.719  11.394   1.394 -0.1179  0.0678 -0.0950
24713W        W41560   3.330  17.590   3.505  0.1325  0.2643  0.0310
24714W        W41561   4.721  13.371  13.500  0.1064 -0.0851 -0.1944
24715W        W41562   4.456  16.554  16.204  0.0721  0.1800  0.1784
24716W        W41563   3.090   0.203   2.001 -0.1290 -0.0921  0.1466
24717W        W41564   8.090  10.470  12.700  0.0353 -0.3432 -0.0244
24718W        W41565  13.722  15.401  11.351  0.0159 -0.1672  0.2336
24719W        W41566   7.862  14.627  15.867  0.1510 -0.1277  0.1258
24720W        W41567  12.860   1.030  12.591 -0.1960  0.0400  0.1146
24721W        W41568  16.323   7.683   1.234 -0.0229 -0.0079 -0.0433
24722W        W41569  16.283   2.152   3.938 -0.1459  0.0123 -0.0490
24723W        W41570   6.101   4.301   6.126 -0.2666  0.1610 -0.0290
24724W        W41571  14.818   7.995   0.531  0.2134 -0.0282  0.0286
24725W        W41572   3.696  12.684   5.429  0.1346 -0.0593 -0.0677
24726W        W41573   8.470   8.549  14.432 -0.2389  0.0397  0.0222
24727W        W41574  11.327   3.852   3.312 -0.4160 -0.2664 -0.0968
24728W        W41575  17.232   6.265  11.536  0.0789 -0.0977 -0.0525
24729W        W41576   5.170  12.908  12.651  0.2586  0.2268 -0.1654
24730W        W41577  14.847   8.195  13.586  0.0247 -0.1010  0.0394
24731W        W41578   1.881   6.131   3.796  0.1003  0.2388  0.2602
24732W        W41579   1.459  15.586  13.800 -0.0702 -0.0333  0.0473
24733W        W41580   8.230  15.640   5.989 -0.1422  0.1946  0.1865
24734W        W41581  11.386  16.676   4.278 -0.2904  0.0558 -0.3729
24735W        W41582   1.711  14.897  16.378  0.3005  0.0130 -0.0849
24736W        W41583   9.072   0.222   1.384 -0.6177  0.0464  0.3274
24737W        W41584  17.792  10.695   2.652  0.1257 -0.0466  0.0333
24738W        W41585   2.116  11.928  13.636 -0.0971 -0.1187  0.0249
24739W        W41586   0.822   4.082  13.000 -0.1815  0.2925  0.0096
24740W        W41587   1.783   5.204   5.002 -0.1021 -0.3897  0.0336
24741W        W41588  11.366   8.614  13.569  0.2389  0.2343  0.1462
24742W        W41589   4.940  10.896   0.564 -0.0962 -0.2090  0.0393
24743W        W41590   9.811   3.901  12.150 -0.4910 -0.2076 -0.1572
24744W        W41591   6.611  14.966   4.498 -0.0662 -0.0282  0.3041
24745W        W41592   8.939   4.554   2.951  0.0676  0.2369 -0.0904
24746W        W41593  17.814   7.345  13.526  0.2030  0.0021  0.1325
24747W        W41594   5.083  14.910  13.971 -0.1392 -0.0300  0.0546
24748W        W41595   3.606  11.644   2.545  0.3022 -0.2591 -0.0199
24749W        W41596  12.205  10.782   3.393 -0.1665  0.3577 -0.0929
24750W        W41597   8.160  12.172  15.792  0.1361 -0.1793  0.0886
24751W        W41598   1.367   1.478   3.008  0.1722  0.0799  0.1377
24752W        W41599   4.518   1.896  11.635  0.0617  0.0708 -0.0677
24753W        W41600  11.791   8.163  16.257  0.0506 -0.0108 -0.2325
24754W        W41601   6.649   5.361   4.302 -0.2466 -0.1621 -0.3337
24755W        W41602   2.113  15.624   3.363 -0.0738 -0.0707  0.3309
24756W        W41603  16.092  10.084  16.356 -0.0925  0.1149  0.2435
24757W        W41604   3.594   5.186  13.288  0.0816 -0.0237  0.1125
24758W        W41605  15.686  11.892   1.077 -0.1212  0.1741 -0.0250
24759W        W41606   4.134  13.370  12.498  0.3534  0.1421 -0.0529
24760W        W41607   0.943  17.628   3.101  0.2499  0.4298  0.1587
24761W        W41608  12.307  13.527  12.996 -0.0435  0.4280  0.0146
24762W        W41609   4.845  14.087  11.657 -0.1832  0.2825 -0.0984
24763W        W41610   3.729  12.967   1.966 -0.3675 -0.1334  0.0638
24764W        W41611   7.475  12.819  11.978 -0.0019  0.1308  0.0347
24765W        W41612   5.069   5.184   4.354  0.1982 -0.2049 -0.0133
24766W        W41613  11.149  15.582  12.497  0.1104  0.0463 -0.0207
24767W        W41614   8.787   0.183  13.437  0.0204 -0.1242  0.2641
24768W        W41615  10.711   8.370  11.365  0.1207 -0.3843  0.1040
24769W        W41616   3.857  16.956  11.624  0.2337  0.3498  0.0908
24770W        W41617  12.994  12.654   0.389  0.1564  0.2890  0.0825
24771W        W41618   8.207  15.914   4.189 -0.2877  0.0863 -0.1588
24772W        W41619  11.908  11.996   5.573 -0.2551 -0.3249  0.0055
24773W        W41620   5.823   8.041  12.146 -0.0953 -0.1107  0.1382
24774W        W41621  14.724  12.931  12.859  0.3601 -0.1397  0.1128
24775W        W41622  13.715   9.236  15.037  0.0031 -0.2083 -0.0272
24776W        W41623   8.992  11.472   3.595  0.0360  0.1804  0.1383
24777W        W41624   6.286   6.215   0.683 -0.1563  0.1725 -0.2011
24778W        W41625  11.406  12.618  15.314  0.2249  0.1720  0.2746
24779W        W41626  16.545   4.188   2.240 -0.1730 -0.0423  0.4471
24780W        W41627  11.526  13.399   5.331 -0.0897  0.0467 -0.3092
24781W        W41628   1.956   2.720  16.045 -0.1914  0.2182  0.1297
24782W        W41629  11.264   6.809  13.711  0.0332 -0.1230  0.2919
24783W        W41630  11.148  14.133  16.399 -0.2778 -0.0146 -0.1921
24784W        W41631   4.797   7.115   3.640  0.0267 -0.1208  0.0155
24785W        W41632   4.877  14.987   2.678 -0.2068  0.1403 -0.3371
24786W        W41633   7.788   5.262   5.287 -0.2898  0.2640 -0.2079
24787W        W41634  16.543   5.112  14.455 -0.2062 -0.6036  0.1609
24788W        W41635  12.479   7.381   3.792 -0.1743  0.1595  0.2829
24789W        W41636  11.634   5.839   2.554  0.0888  0.0305 -0.1775
24790W        W41637   1.297   3.039   1.623  0.3454  0.0262  0.0017
24791W        W41638  10.214   2.517   3.670 -0.1188  0.0385 -0.1182
24792W        W41639   1.393  12.361  14.882  0.2145  0.4019  0.1809
24793W        W41640  14.266  16.453   5.012 -0.0600  0.3094 -0.1626
24794W        W41641  15.991   8.392   4.929 -0.0732 -0.0345 -0.0127
24795W        W41642   6.573   6.420  13.955  0.0316 -0.0318 -0.2561
24796W        W41643   4.517   8.498   3.980 -0.1418 -0.3418 -0.3102
24797W        W41644   7.789  13.551   2.186 -0.2108  0.0796 -0.0997
24798W        W41645   1.082   3.828  15.699 -0.0474  0.0114 -0.1640
24799W        W41646   6.380  12.696   3.902 -0.1203  0.0091 -0.0741
24800W        W41647   8.154  12.710   2.669  0.3002  0.3040 -0.1309
24801W        W41648   8.272  17.580   1.734 -0.1590 -0.0463  0.2682
24802W        W41649  17.268   2.410  11.968  0.3083 -0.0413 -0.1007
24803W        W41650  11.849   0.335   3.098 -0.3166 -0.3347  0.3445
24804W        W41651   7.448   2.261  13.370 -0.2798 -0.1162 -0.2226
24805W        W41652   9.680   6.365   0.528 -0.0582 -0.2630 -0.1834
24806W        W41653   0.433   6.890   1.051  0.2793  0.2406 -0.1001
24807W        W41654  14.985  11.858   2.631 -0.3575  0.2500  0.0496
24808W        W41655   9.352   4.809   4.818  0.1056 -0.2150 -0.0642
24809W        W41656   7.567   7.072   3.769 -0.2166 -0.2870 -0.0374
24810W        W41657   4.227   0.282  11.735 -0.0513 -0.0508 -0.0722
24811W        W41658  14.076  14.729  13.308 -0.2519  0.2059  0.2424
24812W        W41659   4.260   8.670  14.295 -0.1836  0.0668 -0.0614
24813W        W41660  17.774  11.291  11.533  0.2129 -0.0220 -0.0505
24814W        W41661  16.499   0.716   5.022 -0.1887  0.0593  0.0021
24815W        W41662  10.604   4.519   6.447 -0.0296 -0.1539  0.0383
24816W        W41663   0.904   2.179   0.822 -0.0462  0.0201 -0.3397
24817W        W41664   5.469   7.852   3.458 -0.0478 -0.0054 -0.0461
24818W        W41665   6.012  12.828  12.756 -0.1249 -0.0758  0.1041
24819W        W41666  17.562   7.154  11.596 -0.0558 -0.3678 -0.0108
24820W        W41667  17.718   9.883   5.415 -0.3099  0.0634 -0.2409
24821W        W41668  11.798  15.076  14.112 -0.0588  0.0181  0.2157
24822W        W41669   1.988   3.989   4.787 -0.1337 -0.1306  0.0233
24823W        W41670   5.824  13.577   5.001 -0.0791 -0.2195 -0.0086
24824W        W41671   4.039   1.785  12.930 -0.0587 -0.0235  0.0695
24825W        W41672   6.722  14.733  15.294 -0.2795  0.1144 -0.2558
24826W        W41673  17.500  13.665  11.848  0.1348 -0.1874  0.4000
24827W        W41674   6.674   2.867  15.884  0.1112 -0.0159 -0.0333
24828W        W41675  13.978   3.201   0.486  0.1982  0.0757 -0.6381
24829W        W41676  10.809   8.698  15.208  0.1636  0.0577 -0.1570
24830W        W41677  15.324  16.914  11.958  0.4129 -0.2554 -0.1470
24831W        W41678  16.003   4.764   0.328  0.0608  0.1419 -0.0566
24832W        W41679  10.188   7.853   1.376 -0.0614 -0.2223 -0.0447
24833W        W41680  10.525   1.727   2.407 -0.1414  0.1412  0.1648
24834W        W41681   3.077   7.105   3.769  0.1800 -0.1538 -0.0841
24835W        W41682  17.905  10.167  15.671  0.1004 -0.1225 -0.1451
24836W        W41683  15.629  11.323   1.810 -0.4955 -0.1057 -0.0028
24837W        W41684   3.733  16.776  13.454  0.0674  0.0400  0.1093
24838W        W41685  15.961  12.474  14.251  0.2594  0.4593  0.3138
24839W        W41686   5.790   8.753  11.712  0.1847  0.1139 -0.1019
24840W        W41687   5.370   9.726   1.187  0.1710 -0.0838 -0.0962
24841W        W41688   5.988  15.634  13.955  0.0972  0.0366 -0.0554
24842W        W41689   4.665  13.567  12.245  0.2458 -0.2710 -0.1991
24843W        W41690  16.237  10.915   4.967  0.0798  0.0378 -0.4829
24844W        W41691   8.995  12.061  13.717 -0.3385  0.1338  0.0507
24845W        W41692   0.696   7.243  15.591 -0.0461 -0.1947  0.0933
24846W        W41693   0.916  16.782   4.135  0.0470 -0.0644 -0.0885
24847W        W41694  10.146   6.599  14.226 -0.0399 -0.0928  0.0839
24848W        W41695  14.307   4.295   0.600 -0.0368 -0.0933  0.1397
24849W        W41696  10.902   0.150   3.017 -0.3326  0.1418 -0.0930
24850W        W41697   7.007  13.287   5.819  0.1825  0.1756  0.2438
24851W        W41698   6.335  15.752   0.129  0.1234  0.0340 -0.1188
24852W        W41699  12.534   6.905   4.353 -0.2029  0.1262 -0.3587
24853W        W41700  13.621   8.418   5.480  0.0850 -0.0485  0.3342
24854W        W41701   7.832  13.259   5.254  0.2961 -0.1205 -0.2149
24855W        W41702  10.081   8.168  13.436 -0.0054 -0.0534 -0.2161
24856W        W41703  13.560   8.314   3.560  0.3073 -0.2321 -0.2200
24857W        W41704  12.675   1.686  15.463  0.0572 -0.1247 -0.3332
24858W        W41705   4.326   6.887   5.092 -0.2722  0.3052  0.0204
24859W        W41706  10.791   9.271  10.816 -0.1269  0.1313 -0.2478
24860W        W41707   7.046  16.103  13.793 -0.1380  0.0937 -0.0275
24861W        W41708  12.485   6.023   0.893 -0.0757  0.1643 -0.0097
24862W        W41709  13.058   8.854  16.196 -0.1971  0.0685  0.0390
24863W        W41710  16.621   3.517   0.408  0.2194  0.0046 -0.2557
24864W        W41711  17.249   4.121   2.759  0.0331 -0.0240 -0.0637
24865W        W41712  15.648   9.885   0.766 -0.1375 -0.2327  0.0174
24866W        W41713   8.348  10.578   1.103  0.2418  0.1882 -0.0368
24867W        W41714   7.692   0.351   2.639 -0.1865 -0.1588  0.1928
24868W        W41715  12.948   1.556  15.850 -0.0155 -0.3011  0.0670
24869W        W41716   5.624   1.137  15.861  0.1445  0.0258  0.3558
24870W        W41717  13.730   2.996   4.121  0.0352 -0.0803 -0.2874
24871W        W41718  10.083  15.146   3.779 -0.1368  0.0546  0.0337
24872W        W41719   4.519   6.334   4.874 -0.1585 -0.1982  0.2368
24873W        W41720  11.709   5.311   0.638 -0.2471  0.0525  0.2444
24874W        W41721  13.101   7.650  12.803  0.1179 -0.0072 -0.0506
24875W        W41722   2.072  12.260   4.627  0.0387 -0.0926  0.0478
24876W        W41723   8.498   1.772   4.186  0.0116 -0.1110 -0.0734
24877W        W41724  14.122  11.670   2.257  0.1574  0.1417  0.1023
24878W        W41725  16.931  13.056   0.567 -0.3109  0.0368  0.1605
24879W        W41726  13.833  15.624   2.220  0.0995 -0.0597  0.2508
24880W        W41727  11.834   6.867  15.796 -0.1045 -0.4237 -0.0647
24881W        W41728   4.412   9.462  15.988  0.0168 -0.2197 -0.1297
24882W        W41729  17.206   3.679   1.964 -0.0271 -0.3293 -0.1401
24883W        W41730  10.198   9.697   4.083  0.4628  0.3984 -0.3619
24884W        W41731   9.203  14.994   5.460  0.2190  0.1556 -0.0705
24885W        W41732  16.257   2.497   0.113  0.2953 -0.2985  0.1704
24886W        W41733  10.842   0.531  15.850  0.0537  0.4494  0.2969
24887W        W41734   0.596  11.609  15.378 -0.1095 -0.0081  0.2935
24888W        W41735  12.837  13.430   0.994  0.0495 -0.0168 -0.2070
24889W        W41736   0.680   2.684  14.343 -0.1469 -0.3074 -0.0972
24890W        W41737  12.114  11.607  13.962  0.0671  0.2327  0.0322
24891W        W41738   9.295   1.934  14.824 -0.0291  0.2523  0.0065
24892W        W41739   6.578   3.447  14.477 -0.1622 -0.2208  0.1045
24893W        W41740   3.463  11.586   0.230 -0.0454 -0.0301  0.1480
24894W        W41741   3.537  10.698   4.822 -0.0006  0.0109 -0.0643
24895W        W41742  11.385   6.968   2.275 -0.1616 -0.0644  0.2304
24896W        W41743  12.731   1.038   1.921  0.1412  0.2094  0.1069
24897W        W41744   7.195   8.519  13.506 -0.1215  0.2642  0.1723
24898W        W41745   6.551  11.586  12.487 -0.0775 -0.0399 -0.2329
24899W        W41746   7.005   7.466   2.017 -0.0299 -0.1472  0.4988
24900W        W41747  15.489  16.150   3.911  0.5921  0.0305 -0.0511
24901W        W41748   3.544   3.609  16.007  0.1041  0.2041 -0.0795
24902W        W41749   8.912   6.624   1.220 -0.2406 -0.1959 -0.2959
24903W        W41750  10.096   2.663  14.935  0.0450 -0.0346 -0.2105
24904W        W41751  17.406  15.573  13.645  0.0977  0.2850  0.0068
24905W        W41752   5.335   4.113  14.273 -0.0069 -0.2154  0.1351
24906W        W41753  14.473   4.160   2.536  0.0011  0.1440  0.0308
24907W        W41754  17.943   2.801  11.543 -0.3567  0.1590 -0.1427
24908W        W41755  12.801  13.142   5.374 -0.0616 -0.2828 -0.2371
24909W        W41756  11.485   8.218  15.849 -0.1114  0.2621 -0.1790
24910W        W41757  15.203  17.679   4.983 -0.1640  0.1783 -0.2331
24911W        W41758  11.161   1.368  13.172  0.0532 -0.0952 -0.0157
24912W        W41759   5.769  10.609   4.611  0.1382 -0.2121 -0.0999
24913W        W41760   5.374   4.615  13.042 -0.2871  0.1898 -0.3500
24914W        W41761   3.579   6.388   2.122 -0.3159 -0.3285  0.0443
24915W        W41762  15.063   0.420   3.094  0.2708  0.0846  0.3312
24916W        W41763   8.954   2.749   3.453 -0.1137  0.1921  0.1104
24917W        W41764  10.463  13.407  14.595  0.1092 -0.0895  0.1735
24918W        W41765   8.107   5.736  15.724  0.2738  0.0698 -0.1428
24919W        W41766   0.918   0.653   1.403  0.2356 -0.0948  0.2785
24920W        W41767   5.409   1.660  12.127  0.0403  0.5660  0.2457
24921W        W41768   5.059   1.100  14.337  0.1894  0.0961  0.0214
24922W        W41769  17.996   9.182   4.803 -0.2673 -0.2432 -0.2584
24923W        W41770  15.744  12.691  12.826 -0.2465 -0.2224 -0.0737
24924W        W41771   5.312  14.183  12.861 -0.4750  0.1507  0.1036
24925W        W41772   5.515  12.190   4.336 -0.3083 -0.1200 -0.0759
24926W        W41773   5.039  17.027  13.018  0.1788  0.0113 -0.4905
24927W        W41774  10.593   0.506   5.436  0.3888  0.0735 -0.1352
24928W        W41775   0.168   0.230  14.120  0.0235 -0.2686 -0.0333
24929W        W41776  11.341  16.593  11.923 -0.0125  0.1725  0.1619
24930W        W41777   4.681   4.462  11.202  0.0869 -0.2139 -0.3854
24931W        W41778  13.045  12.573   4.798 -0.1959 -0.1447 -0.1108
24932W        W41779   3.952  14.113  15.616  0.2582  0.1001  0.1859
24933W        W41780  15.871  13.605   0.568  0.0884  0.2142 -0.4157
24934W        W41781  15.364  10.538   1.450 -0.2454 -0.3076  0.0163
24935W        W41782   8.925  15.086   4.081 -0.1897  0.0243 -0.0826
24936W        W41783   5.461  11.089   0.901  0.2600 -0.0434  0.0969
24937W        W41784   2.917  11.398   1.434  0.3587 -0.4838  0.2202
24938W        W41785   6.576  10.447   4.812  0.1092 -0.1299 -0.0831
24939W        W41786   5.924  15.711   3.413 -0.6105  0.0638 -0.0750
24940W        W41787  16.701  15.208  13.078  0.0448 -0.1013 -0.1535
24941W        W41788  14.984   4.072  15.246 -0.1756  0.2720  0.1974
24942W        W41789  11.655  14.042  14.596 -0.1280 -0.0874  0.0978
24943W        W41790  17.917   4.022   5.612 -0.1586  0.1442  0.2019
24944W        W41791   1.668   3.977  11.411 -0.0018  0.2147  0.0575
24945W        W41792   1.183  11.013   5.968 -0.1775  0.1733  0.1897
24946W        W41793   4.751   6.526   3.313  0.0347  0.0680  0.1046
24947W        W41794  17.830   8.338   5.329 -0.2260 -0.0075  0.1877
24948W        W41795  16.058  17.453   0.977  0.2378 -0.0086 -0.0589
24949W        W41796   4.660   2.222   0.515 -0.1786 -0.0548  0.1022
24950W        W41797   1.165  17.392  15.918  0.0264 -0.0528  0.1146
24951W        W41798  12.198  11.233   1.459  0.1104 -0.1407  0.0022
24952W        W41799   6.445   5.580  15.817  0.2331 -0.1693  0.0018
24953W        W41800  14.564   2.667   4.066 -0.1652 -0.0183  0.1803
24954W        W41801   2.480   7.439   2.057  0.1445 -0.0144 -0.2295
24955W        W41802   4.483  15.836  14.596  0.1763 -0.3719  0.0168
24956W        W41803  16.782   1.478  12.715  0.2903  0.2102 -0.1103
24957W        W41804   2.000  17.644  13.081  0.2577  0.1150  0.2500
24958W        W41805   6.429  11.302  15.792 -0.0100  0.0155  0.1508
24959W        W41806   8.317  12.712   0.180  0.2409  0.2001 -0.3129
24960W        W41807   1.595   5.236  13.405 -0.1017 -0.0560 -0.2244
24961W        W41808  17.356  13.321   4.039 -0.1033  0.1028 -0.1095
24962W        W41809  15.599   2.802   0.488 -0.1865 -0.0234  0.1993
24963W        W41810   6.220   9.047   1.250 -0.1105 -0.3089  0.3696
24964W        W41811  11.994  12.730   3.882 -0.0989 -0.1541  0.0837
24965W        W41812  13.559  11.254   0.081  0.0810  0.1016 -0.2157
24966W        W41813  14.726   2.255   4.323 -0.1925 -0.2210  0.0182
24967W        W41814   8.967  10.869   3.943 -0.1719 -0.1171  0.0999
24968W        W41815  10.092   4.515  13.724 -0.1911 -0.4860 -0.1220
24969W        W41816   1.993   3.028  14.203  0.2266  0.2428 -0.1473
24970W        W41817   7.454   3.795  13.388  0.2228  0.2415 -0.0820
24971W        W41818   4.240  13.310  13.420  0.1979  0.1061 -0.0789
24972W        W41819   0.880   8.537  15.405  0.1579 -0.2204 -0.0026
24973W        W41820  13.932  12.901  14.857  0.2220  0.1112  0.2983
24974W        W41821  10.239   8.175   4.564  0.1707  0.2931  0.2112
24975W        W41822   3.309   8.372  14.508 -0.0322  0.1482 -0.0433
24976W        W41823   9.002  12.303  14.134 -0.0967 -0.0924  0.1575
24977W        W41824   7.429  15.523   3.471  0.0074 -0.2218  0.2515
24978W        W41825  12.963  10.793   0.689  0.0338 -0.1015 -0.1565
24979W        W41826  15.467  11.915  13.278 -0.1475 -0.0464 -0.1639
24980W        W41827  10.596   1.859  11.723 -0.1037  0.0841 -0.0206
24981W        W41828  13.808   7.548   0.909 -0.0469 -0.0482  0.0130
24982W        W41829   1.161  13.423  12.803 -0.1945  0.1916 -0.1085
24983W        W41830  17.973   5.183   1.106 -0.0366 -0.1085  0.2186
24984W        W41831  10.435  15.595   0.618  0.1440  0.1125  0.2020
24985W        W41832   1.160  14.686   3.780 -0.1986  0.0794  0.0880
24986W        W41833  13.117  10.026   3.285  0.1350  0.1259  0.1290
24987W        W41834   7.344  15.611  13.478 -0.0043  0.2400  0.0130
24988W        W41835  17.326   1.272  13.642 -0.1832  0.0126  0.1473
24989W        W41836   1.812   3.636   1.543 -0.0167 -0.0855  0.0617
24990W        W41837   4.986   7.304  14.265  0.0486  0.1114  0.0824
24991W        W41838   6.217   4.808   6.178  0.1070 -0.2237  0.2080
24992W        W41839  13.684  15.124   0.116  0.2430  0.1107  0.1885
24993W        W41840   2.009  15.141  15.277 -0.4610  0.3615  0.1102
24994W        W41841   4.185  14.952  11.849 -0.4864  0.0428 -0.1320
24995W        W41842  11.530   4.298   2.700  0.0876 -0.0585  0.4954
24996W        W41843   8.606   8.717   1.718 -0.0636 -0.0530 -0.1294
24997W        W41844  16.090   9.438  15.741  0.1440 -0.0052  0.0121
24998W        W41845  10.906  17.597  15.762 -0.5958  0.0689 -0.1286
24999W        W41846   0.480  17.712  12.783 -0.3105 -0.0348 -0.0320
25000W        W41847  13.755   6.663   2.698 -0.3421  0.2211  0.1229
25001W        W41848   6.197  17.848  12.007 -0.0008 -0.1406 -0.2132
25002W        W41849  15.150  15.320   3.990 -0.0067  0.1316  0.0070
25003W        W41850   5.407   8.950  14.671 -0.2084 -0.2490  0.1983
25004W        W41851   6.699   0.645   2.950 -0.0678 -0.0856 -0.2346
25005W        W41852   7.330   3.360   4.609  0.1547  0.1538 -0.2311
25006W        W41853  12.753  13.303  11.444 -0.1218 -0.0087 -0.0326
25007W        W41854   2.457  14.361  13.679  0.1473  0.2947  0.1125
25008W        W41855   3.388   5.811  11.605  0.0057 -0.3002  0.3135
25009W        W41856   2.119   4.970   4.088  0.0092  0.1643  0.2746
25010W        W41857  10.785   2.572   5.612  0.0540  0.2989 -0.1785
25011W        W41858   2.071  17.849  15.104  0.2265  0.0589 -0.0278
25012W        W41859   7.075  16.130  16.400  0.3389  0.1409 -0.1023
25013W        W41860   9.031   5.664  14.505  0.3076  0.1738 -0.2664
25014W        W41861   8.146  13.838  15.818  0.1420 -0.0754  0.1782
25015W        W41862  10.968   8.358  13.222 -0.2991  0.1629 -0.3579
25016W        W41863  15.980  16.940   2.583 -0.1840 -0.1008  0.2332
25017W        W41864  16.105  12.537  12.447  0.1401  0.0914  0.3020
25018W        W41865   2.069  12.417   2.383 -0.0106 -0.1759  0.1178
25019W        W41866  17.619  16.607   3.944  0.0707  0.1743 -0.0485
25020W        W41867  17.207  14.218   3.308 -0.3701 -0.2354  0.2964
25021W        W41868  14.552  16.535  14.581  0.0100  0.3546  0.0990
25022W        W41869   3.869  11.060   4.216 -0.1961 -0.2019  0.0532
25023W        W41870   9.622  12.479   0.753 -0.2579 -0.1936 -0.0225
25024W        W41871  14.735   8.797   2.276  0.0595  0.2913  0.0856
25025W        W41872   5.518   0.323  11.734  0.0878 -0.0258  0.1284
25026W        W41873  15.689   0.757  12.341 -0.3390 -0.1585  0.0410
25027W        W41874   3.462   2.471  14.737 -0.1778  0.2260  0.1180
25028W        W41875   1.927  13.669  14.032  0.1042  0.2157 -0.0679
25029W        W41876  14.046   3.165  16.187  0.2447  0.1388  0.1045
25030W        W41877   1.604  12.674   2.207  0.0062  0.4647  0.0274
25031W        W41878   4.705  18.059   4.423 -0.1109 -0.2181 -0.1968
25032W        W41879   8.847  10.933   2.226 -0.2438  0.0886  0.0608
25033W        W41880  11.995   3.015  15.272 -0.2439  0.1119 -0.1741
25034W        W41881   7.252  14.275  13.287 -0.0630  0.2812 -0.0496
25035W        W41882   0.246  12.929  16.510 -0.1755  0.1903  0.3397
25036W        W41883  14.294   5.688  13.741  0.0188 -0.2952  0.2835
25037W        W41884  10.909   3.338   2.347  0.1805  0.0446 -0.2443
25038W        W41885   5.673   7.888   0.288 -0.0410 -0.4567  0.0000
25039W        W41886   7.459   2.653   1.394 -0.1702  0.0023  0.2444
25040W        W41887  13.692  12.036   1.733  0.1514  0.3234 -0.0515
25041W        W41888   7.465  13.790   1.320 -0.1589  0.0530 -0.0669
25042W        W41889  17.150  14.884   1.762  0.3144 -0.2242  0.0506
25043W        W41890   1.263   1.475  15.643  0.2209  0.1972 -0.2915
25044W        W41891   0.964   5.697  12.852  0.0848  0.3179  0.2075
25045W        W41892   6.246   4.249  11.538  0.0288  0.0861 -0.0331
25046W        W41893   5.475   4.761  13.568  0.0831 -0.0799 -0.4671
25047W        W41894  15.942   1.018  12.872 -0.0739  0.0802 -0.2220
25048W        W41895  14.271   6.855  15.638 -0.0424  0.1426 -0.0596
25049W        W41896   6.198   0.001   4.681 -0.0817 -0.1829  0.1304
25050W        W41897   4.909  10.644  15.034 -0.1749  0.0977 -0.2872
25051W        W41898  11.235   7.666  12.757  0.1011 -0.2983 -0.0549
25052W        W41899  15.108   5.636   1.497 -0.0304  0.0068 -0.3620
25053W        W41900   9.686  15.329   1.008  0.4082  0.1651  0.0952
25054W        W41901   6.057  10.368   1.756  0.2081  0.2543 -0.1527
25055W        W41902   5.728  14.766   0.033  0.2816 -0.3694  0.1803
25056W        W41903  13.032   2.001  15.232  0.1065 -0.2220  0.0591
25057W        W41904   1.796  15.211   3.474  0.0320 -0.2870  0.2739
25058W        W41905   5.635   7.370   3.407  0.0912  0.2786 -0.0538
25059W        W41906  12.471  18.003  11.048 -0.0050 -0.0149  0.0579
25060W        W41907  12.735  13.343  16.599  0.5604  0.1860  0.1128
25061W        W41908   6.281   0.255  14.609 -0.2443  0.1071  0.0396
25062W        W41909  14.184  11.927  11.825 -0.0303  0.2202 -0.0883
25063W        W41910  14.898   3.321   6.328 -0.1177  0.1336  0.1382
25064W        W41911   5.700  16.037   3.111  0.0313 -0.2209 -0.1703
25065W        W41912   2.439  16.473  14.145  0.0182  0.1070  0.0575
25066W        W41913   9.176   8.450  12.258  0.2157 -0.0145  0.0942
25067W        W41914   6.251   5.545  14.557 -0.1182 -0.2910 -0.1980
25068W        W41915   5.349   8.574  15.973 -0.0619 -0.1026  0.0245
25069W        W41916  17.567  17.762   1.415  0.0398 -0.0224 -0.0941
25070W        W41917   2.315   2.656  13.099 -0.2362  0.0004 -0.1012
25071W        W41918   3.931   8.921  14.608 -0.1372  0.2972 -0.0029
25072W        W41919  15.123   7.322  15.132  0.0479 -0.1378  0.2037
25073W        W41920   3.161  15.163   3.939 -0.1391 -0.0647  0.3989
25074W        W41921   9.872  13.221  12.732  0.5024  0.3305 -0.0130
25075W        W41922  12.597   2.652   2.450 -0.0357  0.1079 -0.1472
25076W        W41923  11.202   9.282  12.845 -0.0713  0.1402  0.4212
25077W        W41924   1.201  14.500   0.309 -0.1142  0.0431 -0.1149
25078W        W41925   2.040  15.509  13.631 -0.3460 -0.1495  0.1840
25079W        W41926   9.201  16.690   2.536  0.1597  0.1354  0.1881
25080W        W41927   7.089   5.948   4.998  0.0153 -0.2867  0.0451
25081W        W41928   5.987   7.699   3.135  0.0067 -0.0790  0.0317
25082W        W41929  15.747  14.781  16.407  0.4326 -0.4394 -0.0241
25083W        W41930   6.780  16.441   2.109 -0.3105 -0.0555 -0.3927
25084W        W41931  17.936   3.336   2.881 -0.0984 -0.3951  0.0995
25085W        W41932   5.184  11.113   3.606 -0.0505 -0.1426 -0.2172
25086W        W41933  10.161  11.075   2.624  0.4096 -0.2801 -0.2651
25087W        W41934  11.567  17.175   4.302  0.1837  0.1327 -0.0736
25088W        W41935  15.223   4.640   0.369  0.0094  0.3763  0.0128
25089W        W41936   6.391   2.091   5.965  0.2191 -0.2152  0.0981
25090W        W41937  15.244   5.783  11.563 -0.2861  0.1954  0.2085
25091W        W41938   0.955   3.302   1.385  0.0718  0.0068 -0.0886
25092W        W41939   0.460  13.506  16.468 -0.3517  0.2162  0.1826
25093W        W41940  13.990  10.400  13.702  0.1533 -0.1156 -0.0378
25094W        W41941   8.418  17.308   0.248 -0.3027 -0.0210  0.0497
25095W        W41942   7.735  15.774   4.290  0.1870 -0.2129  0.0911
25096W        W41943  12.308   8.979  14.398 -0.1771  0.0044 -0.1768
25097W        W41944   2.546   8.570   5.098  0.1111  0.0416 -0.0003
25098W        W41945   3.518  10.770  12.811 -0.2331  0.0739 -0.1215
25099W        W41946  12.061   5.025  15.338 -0.1795  0.0944 -0.1930
25100W        W41947   1.569   8.551  16.203  0.2450 -0.0483  0.2599
25101W        W41948  11.922   8.213   2.511  0.0649  0.0003  0.2576
25102W        W41949  14.862  11.110   4.780 -0.1992  0.1178  0.4703
25103W        W41950   5.943   5.228  15.047  0.0439  0.0565 -0.0738
25104W        W41951   3.417   4.298   3.003  0.1858  0.2601 -0.1555
25105W        W41952   7.963   4.684   1.643 -0.3233 -0.4162 -0.3275
25106W        W41953  14.509   8.013  15.828  0.1618 -0.0262  0.2106
25107W        W41954  16.164  15.577   5.045  0.1043  0.2660 -0.0742
25108W        W41955   7.334   2.711   3.493 -0.1591  0.3608 -0.0353
25109W        W41956  10.081  15.597   1.197  0.0241 -0.1341  0.1317
25110W        W41957  15.439   0.470   0.375 -0.1980  0.0911  0.2178
25111W        W41958  12.622   2.752  16.524 -0.0108  0.1600  0.1859
25112W        W41959   5.913  13.362  16.216 -0.1266  0.3657 -0.1067
25113W        W41960  17.173   9.531  13.873 -0.1528 -0.3746 -0.0990
25114W        W41961  10.761  10.719  12.898  0.0391  0.0959 -0.0614
25115W        W41962  12.828   2.378   2.093 -0.1315 -0.2220  0.2462
25116W        W41963   4.418   9.621   5.610  0.4184  0.0137  0.0445
25117W        W41964  10.649   8.878   0.297  0.1354 -0.2268  0.0815
25118W        W41965   9.567  12.535   0.003  0.1645  0.3739  0.1914
25119W        W41966  13.882  14.347   2.703 -0.3353 -0.1024  0.2042
25120W        W41967  10.706  12.431   5.510 -0.0660  0.1271  0.0681
25121W        W41968   4.956  15.092  11.347 -0.0881 -0.1521 -0.2211
25122W        W41969  17.534   8.396  14.155 -0.0494 -0.1164  0.0790
25123W        W41970   4.956  15.192   1.026  0.0374  0.2932  0.2606
25124W        W41971  16.580   6.250  15.823  0.0866  0.0696 -0.1668
25125W        W41972   4.345   9.384   0.302 -0.0424  0.2720 -0.0701
25126W        W41973   0.994  10.635   3.542  0.1372 -0.4318 -0.0487
25127W        W41974  11.106   3.265   5.781 -0.2315  0.1801 -0.0716
25128W        W41975  13.794   4.666   2.089 -0.0744  0.0272  0.1060
25129W        W41976   2.134   9.184  15.169 -0.0412  0.3091 -0.1976
25130W        W41977   0.189   6.147  12.250 -0.0727 -0.2342  0.1877
25131W        W41978   0.621  10.106   2.940 -0.3930 -0.1345 -0.2525
25132W        W41979  17.239  16.908   0.631  0.0609 -0.1563 -0.1613
25133W        W41980   4.049  12.573  12.847  0.1755  0.1776  0.4880
25134W        W41981   3.677  13.116   4.805  0.2820 -0.0251 -0.0011
25135W        W41982   6.056   1.458  14.602 -0.3167  0.2350 -0.0489
25136W        W41983   1.365  13.584  11.965 -0.1250 -0.1878  0.0191
25137W        W41984   5.875   0.726  14.231  0.0268  0.0910  0.2187
25138W        W41985   7.029  13.390  13.373  0.1595 -0.1933  0.0634
25139W        W41986   1.068   6.568  13.322  0.2660  0.3678  0.1152
25140W        W41987   9.289   4.700  11.707  0.1637  0.1179  0.2862
25141W        W41988  17.441   2.849  11.736 -0.1402 -0.0042 -0.1825
25142W        W41989   1.555   8.447   2.609  0.2548 -0.1049  0.0163
25143W        W41990  15.237   4.849  11.777 -0.1516 -0.2604 -0.1019
25144W        W41991  18.036   0.885   4.087 -0.0067 -0.3417  0.0329
25145W        W41992   0.357  10.687  15.174 -0.2807  0.0628 -0.0097
25146W        W41993   0.573   3.050   4.137 -0.1047  0.0033  0.2034
25147W        W41994  17.128   6.249  15.025 -0.0416  0.3887  0.2187
25148W        W41995   5.035  15.692   2.625  0.0549  0.0137  0.3577
25149W        W41996  13.230  17.027  11.517  0.0796  0.0578 -0.2218
25150W        W41997  14.664  12.256  12.257 -0.1320  0.0885  0.0592
25151W        W41998   9.015  16.939   3.802 -0.1720  0.1951  0.3384
25152W        W41999  12.658  17.112   2.253  0.4406  0.0887 -0.1363
25153W        W42000   5.761   3.916  14.444 -0.0155 -0.0946  0.0116
25154W        W42001  13.013  13.470   2.776 -0.1375  0.0549 -0.2609
25155W        W42002   0.288  10.571   5.316 -0.0448  0.1798  0.0263
25156W        W42003  14.318  11.519  10.677  0.2980 -0.0936 -0.0416
25157W        W42004   9.405   5.604  14.936 -0.1695  0.1732  0.0647
25158W        W42005  15.825   0.837   0.584 -0.2381 -0.1429  0.1465
25159W        W42006  13.299   7.062  12.195  0.1922  0.1054 -0.1897
25160W        W42007   0.374   1.632  15.439 -0.0997  0.0559  0.1989
25161W        W42008   9.910  12.850   1.654 -0.1661  0.0884  0.2863
25162W        W42009   3.243  12.574   2.639 -0.0491  0.2027  0.1590
25163W        W42010   3.606   3.092  15.903  0.0625 -0.0428 -0.0921
25164W        W42011  16.625  15.453   4.013  0.0856  0.0379  0.1042
25165W        W42012   8.735   3.599  15.268 -0.3513 -0.2232 -0.1366
25166W        W42013  16.730  13.313   1.849 -0.2986  0.0905  0.1482
25167W        W42014  11.489  11.898   3.416  0.1006 -0.2727  0.0976
25168W        W42015  12.856  13.047   3.259 -0.3272 -0.1687 -0.0266
25169W        W42016   2.526  11.930  16.193  0.2407  0.0656  0.3035
25170W        W42017  16.025  16.542   4.979 -0.1410 -0.0155  0.0454
25171W        W42018   7.006   1.078  15.820 -0.2568 -0.0125 -0.2984
25172W        W42019   4.593  11.938   2.560 -0.0067 -0.0382  0.3394
25173W        W42020   7.857   6.349   5.287  0.1092  0.0063  0.1764
25174W        W42021  14.875  17.644   1.433  0.2003  0.0419 -0.3433
25175W        W42022  17.292   3.429   5.497  0.1783  0.2147  0.0205
25176W        W42023   7.522   5.100   1.975  0.1190  0.0983  0.1479
25177W        W42024   6.139   2.847   2.974  0.0734  0.1032  0.0909
25178W        W42025   8.748   9.153   0.098  0.0827  0.0865  0.0259
25179W        W42026   1.297   0.739   1.715  0.1778 -0.4331  0.0556
25180W        W42027  15.061  10.895  14.137  0.0797 -0.1296 -0.1554
25181W        W42028   0.227  15.591  15.163 -0.1421 -0.2401  0.1490
25182W        W42029  13.305  15.075  11.554 -0.1223 -0.0333 -0.0400
25183W        W42030  16.598  15.578   3.408 -0.4651  0.5103 -0.2252
25184W        W42031  17.476   3.851   5.191  0.0641 -0.1539  0.2440
25185W        W42032   7.626   2.245  12.425 -0.2843  0.0574  0.0175
25186W        W42033   3.677  13.559   1.218  0.1820  0.0227  0.2247
25187W        W42034  17.815   0.963   0.036  0.0475 -0.2538  0.2545
25188W        W42035  14.780  17.382  14.141 -0.0772 -0.0944  0.1703
25189W        W42036  12.977   7.795   3.169  0.2155  0.0920 -0.0091
25190W        W42037   4.396   8.703   1.053  0.3114  0.3925 -0.2418
25191W        W42038  11.082   7.440   2.586  0.1461 -0.0813 -0.0654
25192W        W42039  13.255   1.188   5.787  0.0381  0.0020 -0.0359
25193W        W42040  14.095  11.143   0.922  0.1236  0.4634  0.2295
25194W        W42041   3.830  15.052   5.760 -0.2154 -0.2943 -0.0068
25195W        W42042  16.959   5.994   1.767 -0.0596 -0.1157  0.0726
25196W        W42043  11.266  13.240   1.657  0.0721  0.0260  0.2497
25197W        W42044  11.390  11.556  14.042 -0.0521 -0.4133 -0.1696
25198W        W42045  16.936   6.890   2.009  0.0458 -0.0969 -0.1238
25199W        W42046  14.644   2.349   5.327 -0.1141  0.0970 -0.2750
25200W        W42047  11.858   3.488   5.257 -0.2368 -0.0594  0.1601
25201W        W42048  14.003  15.831  16.135 -0.2327  0.0511 -0.0168
25202W        W42049   5.779  14.424   2.885 -0.0149  0.2518 -0.0871
25203W        W42050   8.623  10.623   4.395 -0.1934 -0.2528 -0.0357
25204W        W42051   5.652  10.862   2.525  0.2604 -0.0115 -0.0056
25205W        W42052   3.361   6.208  11.920 -0.0076  0.1277 -0.1260
25206W        W42053  16.149  14.110   5.649  0.1183 -0.0656  0.0468
25207W        W42054  13.929  16.890  13.943 -0.0270 -0.0172 -0.1140
25208W        W42055   5.705   3.242   1.197  0.2109  0.0802 -0.1973
25209W        W42056   2.445  17.822   0.022 -0.2316 -0.0708 -0.0183
25210W        W42057   7.202   7.661  15.996 -0.0538  0.0262 -0.0516
25211W        W42058   2.835   0.880   3.937 -0.0926  0.0192 -0.0174
25212W        W42059  13.169   3.583   1.683  0.1935 -0.1061  0.0718
25213W        W42060   0.269   6.640  12.131 -0.1633  0.2003  0.0967
25214W        W42061  15.993   4.371  14.314 -0.4435  0.2198 -0.1525
25215W        W42062   1.996  14.196   3.491 -0.0956  0.0040  0.2823
25216W        W42063   3.441  11.286   2.866 -0.0467  0.0704 -0.1086
25217W        W42064   1.830   2.938  12.268 -0.2708  0.0152  0.2121
25218W        W42065  11.240   2.797   5.640 -0.1102  0.1417 -0.0939
25219W        W42066   0.790   1.537   3.990 -0.0038  0.1231  0.1876
25220W        W42067  14.666   1.986  15.856  0.0547 -0.0615 -0.0233
25221W        W42068   8.957  15.030  11.880 -0.1032 -0.1921  0.0758
25222W        W42069  12.926  11.744  14.605 -0.0871 -0.1237  0.0353
25223W        W42070   0.758  17.967   0.721 -0.0671  0.2175 -0.0675
25224W        W42071  15.484  11.960  14.280 -0.2638  0.2038 -0.2138
25225W        W42072  11.840   8.318  13.441 -0.1937  0.1944  0.1040
25226W        W42073   4.546   0.715  11.546 -0.0022 -0.3094 -0.0002
25227W        W42074   7.952   5.875   5.098 -0.1212 -0.0200 -0.1540
25228W        W42075   3.829  16.566   2.474  0.0440  0.0581  0.0509
25229W        W42076   9.381   0.240  16.159  0.1427 -0.2655 -0.1457
25230W        W42077  16.299  13.780   3.227  0.1000  0.0548  0.2594
25231W        W42078   3.634   6.273  14.295  0.0243 -0.0359 -0.2493
25232W        W42079   6.639  15.126  14.446 -0.1590 -0.0742 -0.2320
25233W        W42080   0.422  13.698   3.559  0.0605  0.1420  0.2663
25234W        W42081   3.398  10.123  12.327  0.3900  0.0223  0.1425
25235W        W42082  13.336  14.358   0.522 -0.0244 -0.1637  0.2024
25236W        W42083  16.226   8.907  15.810 -0.1371 -0.2137  0.0102
25237W        W42084   6.155   3.847   5.827  0.2116 -0.2613 -0.2603
25238W        W42085  10.586  15.569   1.042  0.1525 -0.1262 -0.2322
25239W        W42086   5.756  16.972   2.269 -0.0254 -0.1678 -0.1824
25240W        W42087   5.983  12.904   3.663  0.0401  0.2865 -0.0257
25241W        W42088   2.847  16.918   1.945 -0.1448  0.0871 -0.1036
25242W        W42089  15.626  10.149  11.881 -0.0669  0.1817 -0.0491
25243W        W42090   9.849  11.762  16.052 -0.0386 -0.0771 -0.1527
25244W        W42091   6.101   1.312  16.020  0.1077 -0.1420 -0.4052
25245W        W42092  10.430  15.804  11.338 -0.1371 -0.0148 -0.1612
25246W        W42093   0.434  14.987   0.356 -0.1026  0.1327  0.1109
25247W        W42094   5.071   7.353   1.710 -0.1869  0.3387  0.2983
25248W        W42095  11.704   5.828  13.594 -0.0326 -0.0477  0.0516
25249W        W42096   0.588   2.012  12.564  0.0775 -0.0119 -0.0215
25250W        W42097   8.696   3.917   0.045  0.0756  0.0375 -0.0699
25251W        W42098   5.460   3.639   4.360 -0.0346  0.2214 -0.2549
25252W        W42099   7.178  13.787  13.140  0.0566 -0.1387  0.2317
25253W        W42100  17.234   4.339  15.138 -0.1042  0.1982  0.0466
25254W        W42101  16.192   5.561  12.846 -0.3468  0.2429  0.1127
25255W        W42102  15.022  14.758   4.305 -0.0616  0.0876  0.1640
25256W        W42103  11.151  17.243   4.955 -0.3054 -0.0812 -0.2124
25257W        W42104  12.832   2.452   1.125  0.0895  0.2417  0.0941
25258W        W42105   7.806   9.290  12.541  0.0243  0.1171  0.0243
25259W        W42106   3.280  15.164  12.487 -0.1631  0.0939 -0.1861
25260W        W42107   0.864  16.434  11.295 -0.0773 -0.0874  0.0422
25261W        W42108   3.730   1.449  12.774 -0.3613  0.1602  0.0700
25262W        W42109  17.279   6.173   3.371  0.1125  0.2160 -0.0842
25263W        W42110  14.646  17.590   4.640  0.1541 -0.2387 -0.2155
25264W        W42111  13.607   6.831  13.019  0.0389  0.2220 -0.0278
25265W        W42112  12.292  17.898  14.042 -0.0323 -0.1366 -0.2268
25266W        W42113  17.205  14.827   0.692  0.1547 -0.1632  0.0582
25267W        W42114  16.579   5.417  13.872 -0.1020  0.3524 -0.2707
25268W        W42115   0.242  14.290  12.663 -0.3441 -0.2358  0.1173
25269W        W42116  10.114  16.978   2.205  0.0290 -0.0169  0.3200
25270W        W42117  11.343   1.969   3.455 -0.5796  0.0984 -0.1332
25271W        W42118  14.304   5.670   0.310 -0.2185 -0.3059  0.0862
25272W        W42119  11.823   5.845   3.664 -0.2176 -0.1617  0.1535
25273W        W42120  14.345  16.619  14.071  0.0394 -0.2436  0.0331
25274W        W42121   5.624   7.294   0.906 -0.0545  0.1845  0.1699
25275W        W42122  17.944   6.227  14.367  0.1088  0.0339  0.3795
25276W        W42123  13.292  12.640  14.928 -0.0700  0.1494 -0.2611
25277W        W42124   6.159   9.160  13.586  0.0703 -0.3400 -0.0586
25278W        W42125   2.689  17.404  15.286 -0.0391  0.0546 -0.2030
25279W        W42126   4.460  17.794  13.669  0.1182 -0.1341  0.1419
25280W        W42127   2.620  10.383   4.290 -0.2185  0.0501 -0.0163
25281W        W42128  17.708   9.409  13.911 -0.0840  0.0671  0.3350
25282W        W42129  14.057   9.623  16.331  0.0488 -0.1880  0.2641
25283W        W42130   2.684  11.114   2.178  0.2793 -0.0307 -0.1432
25284W        W42131  12.311   9.720  13.156 -0.2901 -0.0670  0.3543
25285W        W42132  12.636  18.014   1.242  0.0417 -0.0877  0.0192
25286W        W42133  10.070   5.754   1.035 -0.1026 -0.3376 -0.1448
25287W        W42134  17.283  11.346  15.265 -0.3156  0.2357  0.2425
25288W        W42135  17.035   4.919   0.215 -0.0634 -0.0721  0.4340
25289W        W42136   8.605  14.703  15.129 -0.1592 -0.0593 -0.0886
25290W        W42137   6.115   9.158  11.709 -0.0354 -0.2389  0.1785
25291W        W42138  10.513  18.018  13.667  0.0259  0.3000  0.0468
25292W        W42139   5.727  12.132   3.136 -0.2012 -0.1626 -0.0187
25293W        W42140  17.514  14.633  13.014  0.0365  0.0413 -0.1050
25294W        W42141   6.692   5.825  10.661 -0.0539 -0.1217 -0.0856
25295W        W42142  13.235   5.240   1.958 -0.1607  0.0708 -0.0136
25296W        W42143   8.713  12.708  15.477 -0.1560  0.1656  0.0351
25297W        W42144   8.384  12.201  16.281 -0.2537 -0.1699  0.1540
25298W        W42145   4.572   0.509   4.610 -0.2449 -0.1907 -0.0850
25299W        W42146   4.177  13.587  14.233  0.3011 -0.0236  0.0380
25300W        W42147   6.434   6.220   4.407 -0.0503  0.2148  0.2273
25301W        W42148   9.590  12.617  13.988  0.2045  0.0118 -0.1253
25302W        W42149   0.323  14.556  16.667  0.0707 -0.0322 -0.2236
25303W        W42150  16.085   5.801  12.055  0.2980  0.1879  0.1567
25304W        W42151   0.338   5.046   2.301 -0.0794  0.4095 -0.0892
25305W        W42152  10.933  12.353   4.567 -0.0552  0.0680  0.2684
25306W        W42153   6.228  16.286   4.412 -0.1751 -0.0709 -0.1712
25307W        W42154  13.570  11.791   4.034 -0.1215 -0.1183  0.0877
25308W        W42155   2.480   2.188  16.008  0.2048  0.2053  0.0871
25309W        W42156   2.765   4.607  13.111  0.1210 -0.1601  0.1540
25310W        W42157   0.563   6.477  16.311 -0.4190  0.1340 -0.4134
25311W        W42158   8.664   0.905   3.285  0.0844 -0.0162 -0.1372
25312W        W42159   8.589   7.014  11.574  0.2898 -0.0047 -0.2519
25313W        W42160  11.876   0.047  15.615  0.0232 -0.4781 -0.0097
25314W        W42161  18.003   5.823   1.909  0.0359  0.1693  0.2393
25315W        W42162  14.149  12.151   2.161 -0.1365  0.0760  0.0054
25316W        W42163  11.090   8.337   5.727  0.0145 -0.1633  0.1427
25317W        W42164  11.986   1.135   1.697 -0.1218  0.0030  0.0364
25318W        W42165  17.603  11.891  16.583 -0.0187 -0.1404 -0.1875
25319W        W42166   5.568   4.671   5.610 -0.0462 -0.0209  0.1236
25320W        W42167  12.861   8.712   3.205 -0.1502 -0.0515 -0.0126
25321W        W42168   7.432   4.574   3.957  0.1048 -0.1460  0.0865
25322W        W42169  14.550   7.272  11.669  0.2063  0.1434  0.6170
25323W        W42170   9.345   5.800   1.384  0.3974 -0.4163  0.1452
25324W        W42171  13.241   4.357  14.503 -0.0647 -0.1229 -0.1534
25325W        W42172   3.225   6.656   3.984 -0.0962  0.0120 -0.1644
25326W        W42173  10.565   7.114   2.866  0.0415  0.2156  0.1519
25327W        W42174   1.693   5.624  14.432  0.1390  0.2800 -0.0163
25328W        W42175  10.599   5.961  12.765  0.3403  0.0118 -0.0601
25329W        W42176  17.237   5.799   0.664  0.1376  0.4532  0.0650
25330W        W42177   2.828  10.940  12.201  0.2197 -0.0607  0.0242
25331W        W42178   7.866  14.830  13.157  0.0060 -0.1943 -0.0088
25332W        W42179   2.429   8.690  15.320  0.0040 -0.0172  0.0308
25333W        W42180  15.968   3.011   0.213 -0.1325 -0.0201 -0.0056
25334W        W42181  17.605   4.877  13.355 -0.0417 -0.1950  0.0382
25335W        W42182   2.626  13.276  14.651 -0.1092  0.0623 -0.1958
25336W        W42183   6.709  13.737   5.122  0.0581 -0.2310  0.1221
25337W        W42184   1.511   6.082   3.437  0.2192 -0.2451  0.0286
25338W        W42185   5.790   4.441   3.293  0.0289 -0.1388 -0.1436
25339W        W42186   2.291  15.618   0.228  0.1470 -0.0260  0.0213
25340W        W42187  10.378  17.251  12.496  0.0326 -0.1346  0.0109
25341W        W42188   4.922  10.895  14.532 -0.0433  0.0951  0.1245
25342W        W42189  10.967  12.854   3.660 -0.1875 -0.0494  0.0082
25343W        W42190  16.313  12.168  16.534  0.0635 -0.2674  0.0689
25344W        W42191  12.729  17.114  16.330  0.0191  0.2046 -0.0188
25345W        W42192   7.788   8.873  12.824 -0.0158 -0.0462 -0.0061
25346W        W42193   1.081  17.852   5.431  0.2441  0.1582 -0.0811
25347W        W42194  10.104  14.859   1.191  0.0425 -0.3516 -0.0993
25348W        W42195   4.524  12.903   4.462 -0.3955  0.1548  0.0935
25349W        W42196   3.866   1.344  15.632  0.1739 -0.0149  0.3713
25350W        W42197   2.371   7.399  16.447 -0.1138  0.0583  0.1853
25351W        W42198   5.333  13.750   4.880 -0.0889  0.1383  0.0365
25352W        W42199   4.520  11.546   0.013 -0.2135 -0.1156  0.3010
25353W        W42200  16.667   5.592   5.319  0.1660 -0.1774 -0.1811
25354W        W42201  11.341  12.173  11.976 -0.0932 -0.1541  0.1509
25355W        W42202   2.112   1.774  13.538 -0.3400  0.2662  0.0031
25356W        W42203   9.149  15.992   1.348 -0.0502 -0.0878 -0.0238
25357W        W42204   0.251  17.093  14.982  0.0423 -0.0792 -0.0030
25358W        W42205  14.900  15.253  12.215 -0.0371 -0.1423  0.0550
25359W        W42206   1.231   1.979   2.034  0.2701  0.3507  0.0314
25360W        W42207   2.177  10.445   5.219 -0.1208  0.1611  0.1087
25361W        W42208   5.264   1.122  14.784  0.0159  0.0130  0.0466
25362W        W42209   5.708  11.057   3.399 -0.2888 -0.1658 -0.3739
25363W        W42210   7.922  11.242   2.131  0.3521 -0.2346  0.2626
25364W        W42211  14.832   7.800   2.519 -0.0721  0.0297 -0.3281
25365W        W42212   4.980  10.133  14.916 -0.0641  0.3659 -0.0480
25366W        W42213   2.626   6.496   2.197 -0.0894  0.1303 -0.0781
25367W        W42214   5.308   6.963  14.627 -0.1598 -0.0153 -0.0400
25368W        W42215  15.752  14.954   1.854  0.0444  0.1555 -0.1235
25369W        W42216  16.415  13.682   1.942  0.1113  0.0976  0.1041
25370W        W42217  13.505  15.657  16.514  0.1137  0.0428 -0.1570
25371W        W42218  12.702  11.754   5.784  0.1600 -0.1306  0.1698
25372W        W42219   2.982  14.934   2.248  0.1708  0.1570  0.1925
25373W        W42220  11.586   0.828   1.642 -0.0067 -0.0220  0.2672
25374W        W42221   1.165   6.516  15.255  0.2628 -0.0628 -0.2318
25375W        W42222  14.473   8.787  11.872 -0.0343  0.1811  0.2841
25376W        W42223   8.853  12.876  14.985 -0.0410 -0.0747 -0.0137
25377W        W42224   7.215  10.769   2.368 -0.1190  0.1919  0.2722
25378W        W42225   4.450   7.332  14.175  0.0068  0.0319  0.3061
25379W        W42226  13.341  12.232   3.353  0.2222 -0.2192 -0.2034
25380W        W42227   3.300   7.195  15.556 -0.1729  0.2495  0.2102
25381W        W42228   0.550  17.964  15.223 -0.1005  0.1178 -0.2290
25382W        W42229   1.210  16.398  14.685 -0.2913  0.0224 -0.1293
25383W        W42230  11.211   0.502   0.764  0.3205 -0.2517  0.0671
25384W        W42231   0.376  15.635   5.573  0.1678 -0.0069  0.0654
25385W        W42232   1.336   7.405  14.851  0.0002 -0.1559  0.1861
25386W        W42233   5.502  10.426   2.687 -0.0504  0.1883  0.2073
25387W        W42234   2.623   8.764   0.251  0.3085  0.1891 -0.5426
25388W        W42235   5.351  11.071  12.721  0.0465 -0.0471  0.2426
25389W        W42236   9.398  16.781   2.084  0.1049  0.1643 -0.2496
25390W        W42237   1.707   4.698  11.034 -0.3136 -0.0309 -0.2669
25391W        W42238   1.676  13.912   6.222  0.0342 -0.1116  0.0335
25392W        W42239   5.936  13.590   2.381  0.1665 -0.1102 -0.0477
25393W        W42240  11.333  14.702  11.787  0.1180  0.2934  0.0615
25394W        W42241  15.038  11.863  14.415 -0.0296 -0.0308 -0.0102
25395W        W42242   7.888   7.170  14.570 -0.0323  0.1227 -0.0988
25396W        W42243   9.151  17.859  11.804  0.3862  0.0921 -0.0193
25397W        W42244  13.243   6.122  14.644  0.2006 -0.0672  0.1156
25398W        W42245   7.010  10.554  16.308 -0.2498 -0.1987  0.0079
25399W        W42246  16.040   9.266  15.279 -0.0902 -0.3308  0.3483
25400W        W42247   1.712  10.073  11.583  0.0410  0.1906  0.2500
25401W        W42248   4.437  10.629   3.848  0.1089 -0.0926 -0.0225
25402W        W42249   6.102  13.374  15.155 -0.2064  0.1554 -0.2209
25403W        W42250   6.895   0.434   5.045 -0.2141  0.1278  0.1066
25404W        W42251   2.133   2.888  15.501 -0.0489 -0.1769 -0.1699
25405W        W42252   2.237  10.237  13.499 -0.0672  0.2984 -0.3404
25406W        W42253  10.353  13.573   1.305  0.1412  0.0688 -0.0426
25407W        W42254  10.937  13.631  13.403  0.0760 -0.1546  0.1900
25408W        W42255   8.874   1.770  16.040 -0.3630  0.1152 -0.3596
25409W        W42256  13.424  14.145   2.847  0.1441 -0.2388 -0.0967
25410W        W42257  14.157   5.665   3.771 -0.0724  0.0819 -0.0684
25411W        W42258   6.316  10.841  11.953 -0.2407  0.1727  0.2286
25412W        W42259   3.383   4.512  13.166  0.2311  0.0783 -0.0059
25413W        W42260   7.305   1.034  14.371  0.4113 -0.0249 -0.2310
25414W        W42261   6.628  14.722   5.056 -0.0178 -0.0242 -0.0656
25415W        W42262  17.812   6.001   5.662 -0.1457 -0.0921  0.0806
25416W        W42263   7.439   0.250   2.201  0.0538 -0.0582 -0.0718
25417W        W42264  14.636  11.692  14.693  0.1300 -0.1098  0.0559
25418W        W42265   4.498   5.757  12.510  0.0338  0.2248 -0.2994
25419W        W42266   7.084  17.575   1.091 -0.2621 -0.1168  0.1366
25420W        W42267   1.468  13.910   1.412 -0.2921 -0.3169 -0.1025
25421W        W42268  14.371   3.712   2.763 -0.1413  0.2550 -0.1912
25422W        W42269  12.643  12.649  11.927  0.1125  0.0543 -0.0404
25423W        W42270   4.513   8.230   2.590 -0.0488  0.1384 -0.0504
25424W        W42271   2.541  15.365   3.144  0.2787 -0.1591 -0.0091
25425W        W42272  13.860  13.775   1.787 -0.1127  0.1537  0.1798
25426W        W42273  10.225   7.412   0.219  0.0283  0.1838  0.2032
25427W        W42274   9.745   9.681  14.058 -0.0628 -0.1214 -0.1314
25428W        W42275  13.005  14.205  15.764 -0.1186  0.0304  0.0970
25429W        W42276   3.413   6.879  13.045 -0.0506 -0.1822  0.0485
25430W        W42277   6.704   7.471  16.083 -0.0684  0.1525 -0.0134
25431W        W42278   3.586  17.134   3.645  0.0775 -0.2661 -0.1110
25432W        W42279   7.616  13.329  11.943 -0.4520  0.0866  0.1420
25433W        W42280  17.918  12.037  13.160 -0.3004 -0.4040 -0.2003
25434W        W42281  10.096  11.061   3.114  0.3875 -0.1396 -0.4398
25435W        W42282  13.606   9.363  15.918 -0.0613  0.0391  0.1470
25436W        W42283   7.898   2.971   3.693 -0.3006 -0.0771  0.2827
25437W        W42284   0.375   2.319   4.123  0.0009  0.1932  0.1458
25438W        W42285   8.539   7.384  11.961  0.0430  0.1938  0.2040
25439W        W42286   9.159  17.434   4.572  0.2425  0.0131  0.3999
25440W        W42287   5.817   6.183   1.924  0.0324  0.0258 -0.0162
25441W        W42288  12.147   6.993   5.052  0.0499 -0.0274  0.0142
25442W        W42289   4.055   4.353  15.484  0.3981 -0.2447 -0.0325
25443W        W42290  11.151   1.563   3.727 -0.0569  0.0375  0.0072
25444W        W42291  10.674   3.889   4.016  0.4711  0.1255 -0.1465
25445W        W42292  17.673  16.605   2.209  0.0312  0.0757  0.0019
25446W        W42293  11.927  14.020   2.385  0.2098  0.1518  0.0177
25447W        W42294  12.563  17.603   2.142  0.0094 -0.0774 -0.0778
25448W        W42295   8.148   2.803  13.593  0.0377 -0.1419 -0.0903
25449W        W42296   2.588  10.619  13.778  0.1546 -0.0723 -0.0425
25450W        W42297   2.639  14.077  15.353 -0.2299 -0.1036  0.2918
25451W        W42298  17.675   7.903   3.684  0.0474  0.2805  0.1353
25452W        W42299   1.764  11.131   1.908 -0.1022 -0.3273  0.3157
25453W        W42300   4.445   8.549   1.706  0.0783  0.0414 -0.1182
25454W        W42301   5.470  14.074  11.056  0.1277  0.0364  0.1736
25455W        W42302   3.950   9.285   0.012 -0.0190 -0.0411 -0.2214
25456W        W42303   3.925  12.252   5.684 -0.0991 -0.1439  0.1947
25457W        W42304   1.600   9.880  14.974  0.3994 -0.1155 -0.0039
25458W        W42305   5.120   9.297  14.905 -0.0426 -0.2207 -0.3283
25459W        W42306  11.970   1.731   5.794 -0.3042  0.0396 -0.2660
25460W        W42307   8.599  15.817  13.245  0.0307  0.0464  0.2224
25461W        W42308   0.541  16.134   1.154 -0.0525  0.3096  0.1971
25462W        W42309   0.092  11.154   1.485  0.1736  0.1684  0.2718
25463W        W42310   5.769   0.382  15.753 -0.3391  0.1223  0.0994
25464W        W42311   8.380  10.806   4.839 -0.1474 -0.0775  0.0893
25465W        W42312  11.265  12.092  11.475  0.0237 -0.1872 -0.1046
25466W        W42313   8.648  16.389  11.854 -0.0588  0.0284 -0.0146
25467W        W42314   5.508   8.981  12.942  0.4053 -0.2221  0.1111
25468W        W42315   1.063   7.059   3.254 -0.2318  0.1600 -0.2143
25469W        W42316   5.383  11.008   5.034 -0.0163 -0.0122 -0.1485
25470W        W42317   1.355   1.808   2.607  0.0147 -0.0906  0.0724
25471W        W42318   9.040  12.647   2.481 -0.0559 -0.3026 -0.1504
25472W        W42319  11.864  15.420   4.110 -0.1018 -0.0945 -0.1543
25473W        W42320   8.258   8.853   2.920 -0.0039 -0.1556 -0.3100
25474W        W42321  15.869  13.611   3.021 -0.3051  0.3135 -0.0118
25475W        W42322   8.935   4.590   0.748  0.2087 -0.1437 -0.0940
25476W        W42323  10.883   5.499   4.191 -0.1876 -0.0341 -0.1591
25477W        W42324   3.639   3.503   5.165 -0.2349 -0.0998 -0.0461
25478W        W42325   2.675  12.445  14.982 -0.2116  0.2927 -0.0265
25479W        W42326  11.606   9.413   5.671 -0.0716  0.2078  0.3988
25480W        W42327   2.024   8.093   5.170  0.0572  0.1012  0.0874
25481W        W42328   5.015   0.331   3.303 -0.2309 -0.1382 -0.0910
25482W        W42329  13.810  11.631  16.569 -0.1717 -0.0068 -0.0126
25483W        W42330   6.824   6.320  13.463 -0.0457 -0.0201 -0.0590
25484W        W42331   2.138   7.408   0.809 -0.0539 -0.1604  0.1932
25485W        W42332  14.317  16.533   2.778 -0.1477  0.0905 -0.1653
25486W        W42333   9.991   7.470   5.340  0.1511  0.1002  0.1452
25487W        W42334  13.742  13.769  15.156 -0.0399  0.0597 -0.0426
25488W        W42335  10.046   3.735  16.640 -0.1437 -0.1314  0.1987
25489W        W42336  14.558  11.445   2.053  0.0536 -0.0491 -0.1220
25490W        W42337   2.955   6.804  14.123 -0.0622  0.1703 -0.1019
25491W        W42338   6.124   5.231  14.007 -0.1216 -0.0315  0.0084
25492W        W42339  17.516  11.770   0.438 -0.3218 -0.2371 -0.0611
25493W        W42340   5.805  16.950  12.074  0.0578  0.1139 -0.2422
25494W        W42341   0.642  14.783  11.737  0.1227  0.4128 -0.0673
25495W        W42342  10.406   2.962   2.641  0.0138  0.0985 -0.2139
25496W        W42343   1.164   7.829  15.978  0.0626 -0.0853  0.3667
25497W        W42344   1.093  18.032  16.351 -0.0105 -0.1694  0.0892
25498W        W42345   1.427  17.697   3.271  0.0983  0.0901 -0.1689
25499W        W42346   6.544  17.092   3.531  0.0600  0.1261  0.2122
25500W        W42347   9.838   1.256   3.063 -0.0370 -0.0659  0.2421
25501W        W42348   2.924   2.160  15.213 -0.0354  0.0226 -0.0756
25502W        W42349   1.451   9.651   2.329  0.2078  0.2879 -0.1845
25503W        W42350   6.516   3.304   5.132  0.1152  0.1701 -0.0243
25504W        W42351   4.726  11.697  16.291 -0.1253 -0.0801  0.2984
25505W        W42352   4.516   2.732   4.715  0.0144 -0.0399  0.1444
25506W        W42353   8.888  14.245   4.196  0.0822  0.1249  0.0440
25507W        W42354   9.315  12.932   0.253 -0.1345  0.0725  0.1168
25508W        W42355  11.770  12.733  14.508 -0.0263  0.2096  0.1673
25509W        W42356  15.885   3.160   1.779 -0.1667  0.0352 -0.0065
25510W        W42357   8.220  16.688   2.092  0.0187 -0.2507  0.2974
25511W        W42358   0.064  16.403   1.972 -0.2873 -0.0371 -0.1760
25512W        W42359   8.655   8.352   2.073  0.1880 -0.3803  0.1287
25513W        W42360  16.609  11.282  13.519 -0.1790 -0.1111 -0.0209
25514W        W42361  15.590  11.859   3.611  0.1651 -0.4629 -0.2842
25515W        W42362  17.431   8.000  11.350  0.0965  0.0899 -0.3580
25516W        W42363  16.963  10.630  13.085  0.2009 -0.0933  0.1160
25517W        W42364  11.017   4.089   5.062  0.0153  0.0559 -0.1816
25518W        W42365  10.935   2.074   3.698 -0.2470 -0.0066 -0.1907
25519W        W42366   9.369  14.173  13.101 -0.0457 -0.2738 -0.1146
25520W        W42367   4.339   3.967   1.327 -0.0640 -0.3597 -0.2645
25521W        W42368   5.638  15.078  15.422 -0.1469  0.0367  0.2472
25522W        W42369  11.972   5.416  15.718  0.0872 -0.0033  0.2843
25523W        W42370  15.685  12.227  13.858  0.2573  0.0843  0.0442
25524W        W42371   2.845   6.054   4.708 -0.1521 -0.0927 -0.3220
25525W        W42372   6.421   5.185   0.465  0.0698 -0.1936 -0.2092
25526W        W42373  11.422   4.963  16.464 -0.0859 -0.0860 -0.1640
25527W        W42374   4.992  11.563   0.287  0.0952 -0.1665  0.1760
25528W        W42375  12.144   8.162   0.443  0.1952 -0.0448 -0.2217
25529W        W42376   1.908  12.527   3.611  0.2862  0.0947 -0.2621
25530W        W42377  14.706  10.998   3.286 -0.0236 -0.2822  0.0382
25531W        W42378   5.336  17.968   1.258  0.1526 -0.1971  0.0646
25532W        W42379  13.460  10.488  13.817 -0.0787  0.1898 -0.2437
25533W        W42380  10.477  16.578  14.007 -0.2187 -0.1331 -0.3164
25534W        W42381   3.235  11.267  16.161 -0.0935 -0.0449 -0.1365
25535W        W42382  10.897   9.293  15.926 -0.1273  0.1502 -0.0094
25536W        W42383  15.602   5.312  13.908  0.5165  0.0629  0.1351
25537W        W42384   3.216   4.921  14.750 -0.0900  0.1567 -0.1357
25538W        W42385   4.323  14.681  15.080 -0.0063  0.1453  0.0628
25539W        W42386   1.445  15.455  16.259 -0.0609  0.1621  0.1521
25540W        W42387   2.712   8.238  12.613 -0.2204  0.2191 -0.3817
25541W        W42388  16.197   6.296  15.115 -0.1745  0.0465 -0.0270
25542W        W42389  17.305   9.683  15.117 -0.4110 -0.0785  0.2912
25543W        W42390   8.173   8.090   4.229  0.0161  0.2238 -0.1809
25544W        W42391   2.252  13.143  13.310 -0.2461  0.0035  0.2086
25545W        W42392   2.760   0.116   1.338  0.0884  0.3040  0.0257
25546W        W42393   8.770   9.815  14.113 -0.0006 -0.1105  0.0989
25547W        W42394  12.533   9.186   1.838 -0.1836  0.1017  0.3849
25548W        W42395   2.598   3.271   4.543 -0.1177 -0.1776 -0.0961
25549W        W42396   1.089   5.033   3.155 -0.2823 -0.0287 -0.0716
25550W        W42397   1.572   9.574   3.750  0.1596 -0.1324  0.1599
25551W        W42398  10.318  15.229   3.183  0.2123 -0.0111 -0.1978
25552W        W42399  13.855   7.938   3.740 -0.1043 -0.0223  0.0308
25553W        W42400   0.597   1.054   3.511  0.0588  0.1420 -0.0956
25554W        W42401  12.879  13.337  16.117 -0.2591 -0.3883  0.0443
25555W        W42402   1.892   4.453   0.071  0.1759  0.0707 -0.0284
25556W        W42403  14.189   9.254   4.025  0.0342  0.1369 -0.1538
25557W        W42404  11.463   1.533   0.636  0.3718  0.2733  0.2256
25558W        W42405  15.263  15.547  11.821  0.0151 -0.1368  0.1072
25559W        W42406  15.759   8.993  15.608 -0.0953 -0.1763 -0.2121
25560W        W42407   8.151   5.162   1.228 -0.2630  0.0717 -0.1232
25561W        W42408  15.442   9.601  12.720 -0.1650  0.0352  0.2279
25562W        W42409   6.521   7.369  11.880 -0.3387 -0.0244 -0.0948
25563W        W42410  12.403   6.674   1.535  0.3392  0.1785  0.1863
25564W        W42411   8.835   9.280  13.897  0.1781 -0.1200 -0.3028
25565W        W42412  13.754   0.693  14.947  0.1791 -0.1699  0.2610
25566W        W42413   7.007   7.910   1.783  0.1180 -0.1114  0.0745
25567W        W42414   1.262   2.209  11.282 -0.1898 -0.1434  0.3147
25568W        W42415   4.724   4.264   4.564  0.0436  0.1114  0.0926
25569W        W42416   5.534  10.220  14.786  0.0093  0.0558 -0.1248
25570W        W42417   7.021  13.268  12.537  0.3027 -0.1147 -0.0697
25571W        W42418   3.882  16.581   4.399  0.3810 -0.0922  0.0225
25572W        W42419   9.516  10.360  15.298 -0.1731  0.0267  0.0023
25573W        W42420   5.142   5.547  15.250 -0.1753  0.0398 -0.0932
25574W        W42421  15.796  17.231  16.204 -0.3301 -0.2287  0.0678
25575W        W42422   2.254  11.756   3.136  0.1989 -0.1320 -0.1002
25576W        W42423   4.517   6.750   3.792 -0.0661  0.0022  0.0505
25577W        W42424   1.961  15.276   0.686  0.2560 -0.0116 -0.1999
25578W        W42425  12.030  16.108  15.583  0.0265  0.0595  0.1762
25579W        W42426   0.068   5.888  16.377 -0.2964 -0.0790  0.1714
25580W        W42427  10.197   4.130  14.554  0.0989  0.1025 -0.1752
25581W        W42428   6.205  15.477  13.434  0.1669  0.3339  0.1184
25582W        W42429   5.101   3.665   5.654 -0.0850  0.0543  0.1677
25583W        W42430   1.892  14.452   4.928 -0.0176  0.0053 -0.3325
25584W        W42431   1.848   0.760  13.371  0.1126 -0.1064 -0.1007
25585W        W42432  12.224  12.171  15.142  0.0358 -0.2386  0.0973
25586W        W42433   4.645   7.515  12.607  0.0984  0.1278  0.0825
25587W        W42434  11.366   3.532   2.358 -0.0785  0.0084 -0.3129
25588W        W42435  16.007   8.805  11.409  0.0369  0.2176  0.1176
25589W        W42436  10.169   3.601   4.937  0.0832  0.2883  0.2912
25590W        W42437  15.776   6.650  13.129 -0.0091  0.0844 -0.0388
25591W        W42438   4.501  12.157   2.984 -0.0565 -0.2130 -0.0756
25592W        W42439  15.925   4.914   2.671  0.2061 -0.0638 -0.0941
25593W        W42440  15.352   6.420  14.731 -0.0975 -0.1051 -0.1524
25594W        W42441   2.756   3.704  13.545  0.0138  0.0304 -0.3523
25595W        W42442   5.331   2.852  13.337 -0.1714  0.3803 -0.2266
25596W        W42443   5.216   6.146   1.120  0.0800  0.0279  0.0730
25597W        W42444  14.111   8.350   1.449  0.4826  0.1012 -0.0332
25598W        W42445   2.757   0.968   5.269  0.0968 -0.0639  0.1093
25599W        W42446   2.459  15.380  16.121  0.0751  0.0245 -0.0824
25600W        W42447  17.694  17.819  13.309 -0.0996 -0.0432  0.1334
25601W        W42448   5.413  13.291  16.161  0.4413 -0.0814 -0.0742
25602W        W42449   2.777   3.231   4.034  0.0168 -0.1566 -0.0642
25603W        W42450   1.664   3.513   2.585  0.0389  0.1232 -0.1952
25604W        W42451   8.157   7.485  15.430  0.0140 -0.2095  0.2138
25605W        W42452  14.936  11.236   2.310 -0.0417 -0.0886 -0.0326
25606W        W42453   4.542   6.758  12.767 -0.1327 -0.3293  0.2789
25607W        W42454   2.337  16.887  15.160  0.0724 -0.0039  0.2561
25608W        W42455   3.015  11.239   1.861  0.2772  0.0166 -0.0548
25609W        W42456  17.246  11.972   3.068 -0.3286 -0.0698 -0.2772
25610W        W42457   5.012  12.832   4.692  0.4093 -0.2338 -0.0302
25611W        W42458   1.543   4.500   5.312  0.1304  0.0769  0.0730
25612W        W42459  11.223  16.983   1.845  0.1971  0.1361  0.3039
25613W        W42460   7.442  12.798   3.084  0.0091 -0.1542  0.0863
25614W        W42461   4.162  12.153   6.214  0.0503 -0.0701  0.0875
25615W        W42462  12.578  17.037   0.846 -0.0808 -0.0035  0.2225
25616W        W42463   6.498   1.252  14.829 -0.3183  0.1487 -0.1727
25617W        W42464  15.575  13.566   2.264  0.3223 -0.2046  0.1416
25618W        W42465   7.090   9.635  12.458  0.2536  0.0459  0.2270
25619W        W42466  15.498  12.190  12.080 -0.2761 -0.0529 -0.2592
25620W        W42467   8.669   7.470   0.236 -0.1672 -0.1679  0.0036
25621W        W42468   8.886   4.842  15.368 -0.1455 -0.3033 -0.1651
25622W        W42469   8.975   1.654   1.072  0.0296 -0.0787  0.0981
25623W        W42470  12.272   9.286   4.668  0.1113 -0.1198  0.1154
25624W        W42471   1.799   6.247   1.320  0.3031  0.0237 -0.1801
25625W        W42472  17.168  14.688   3.660 -0.1365  0.0203  0.0157
25626W        W42473  14.784   0.406  11.310 -0.0178 -0.1961  0.0231
25627W        W42474   4.582  13.807   1.477  0.1229 -0.0676  0.1851
25628W        W42475  14.767  10.024  13.204  0.1557  0.1854  0.1215
25629W        W42476  16.858  17.982   0.083 -0.0498 -0.0387  0.1593
25630W        W42477  17.482  15.085  15.081 -0.1705  0.2681 -0.2691
25631W        W42478   4.531  12.152   0.845 -0.1359  0.0821  0.1949
25632W        W42479   3.436   7.019  14.102 -0.0461  0.2018 -0.0754
25633W        W42480  10.947   2.610  14.556 -0.0030  0.0441  0.0534
25634W        W42481  11.301  12.874  13.771  0.1677  0.1776 -0.0795
25635W        W42482   1.868  13.109   0.282  0.2586 -0.1024  0.2259
25636W        W42483  10.294  13.321   1.734 -0.0873 -0.2335  0.2883
25637W        W42484   1.960  10.196  14.928  0.0383 -0.1259 -0.0721
25638W        W42485   5.967   9.320  13.995  0.2277  0.0453 -0.1575
25639W        W42486   8.656  14.300  16.354 -0.2984 -0.2658 -0.0151
25640W        W42487  12.527  15.490   5.364 -0.0456  0.2064 -0.0347
25641W        W42488   8.365  16.964   2.478  0.1021 -0.1890 -0.2099
25642W        W42489  14.913   3.400  13.079  0.4515 -0.1108 -0.0932
25643W        W42490  11.955  10.274  14.832 -0.1238  0.2044 -0.0694
25644W        W42491  16.081   2.693  13.383 -0.3486  0.1007  0.0892
25645W        W42492   9.931   2.374   2.480 -0.0583  0.2359  0.3028
25646W        W42493  14.591   6.113  12.147  0.3590  0.1184  0.0021
25647W        W42494  12.372   8.911   3.432  0.0745  0.0771  0.1459
25648W        W42495  17.939   0.166   2.548  0.2062 -0.0414  0.0726
25649W        W42496   8.026   8.638   4.291  0.0198  0.1117  0.1088
25650W        W42497  17.740   0.061  13.956  0.0723 -0.0429 -0.0015
25651W        W42498   4.849   2.346   4.720  0.0510 -0.0201 -0.2695
25652W        W42499  12.882   4.944  11.787  0.0008 -0.1466 -0.3208
25653W        W42500   1.915   5.374  12.115 -0.0721  0.0399 -0.1071
25654W        W42501   3.781  10.231  14.506  0.1134 -0.0488 -0.1992
25655W        W42502   0.556   1.208   4.930  0.0361 -0.3899  0.0291
25656W        W42503  13.033  10.026   0.204  0.4760  0.1310 -0.0569
25657W        W42504   2.535  12.140   2.062  0.3917  0.0796 -0.0612
25658W        W42505   8.515   6.417   0.924  0.0319 -0.0037 -0.0054
25659W        W42506  15.729  16.436   3.596 -0.1961  0.2385 -0.1197
25660W        W42507  16.266   5.218   4.701 -0.0516  0.2673  0.1666
25661W        W42508   3.516  17.565   1.513  0.2035  0.0851  0.0309
25662W        W42509   9.599   8.867   6.211 -0.1822  0.1854  0.0365
25663W        W42510   2.706   3.294   1.858 -0.0856  0.0580  0.1796
25664W        W42511   0.709   5.034   0.839 -0.0553  0.0151 -0.0300
25665W        W42512  12.847  14.471   2.442 -0.2959  0.1360 -0.1606
25666W        W42513   1.021   6.210  12.773  0.1914  0.0085 -0.3535
25667W        W42514   5.951   3.394  15.590  0.1356  0.0687 -0.1174
25668W        W42515  16.980   1.405  14.725 -0.3374 -0.0432 -0.2500
25669W        W42516  12.249   4.613   3.202 -0.3379  0.0642 -0.2141
25670W        W42517   5.060   7.089  13.427  0.1861 -0.0042  0.0935
25671W        W42518   0.957  11.229   2.817 -0.0419 -0.0406  0.0853
25672W        W42519   6.802  10.119   5.559 -0.1881 -0.1213  0.1186
25673W        W42520   6.757  11.842   5.873 -0.1945 -0.1095  0.2494
25674W        W42521  11.697   8.620  15.627 -0.0394  0.0841 -0.3984
25675W        W42522   9.612   2.436   4.891 -0.3044 -0.2608  0.1460
25676W        W42523   0.181  13.020   3.118 -0.1804  0.2981  0.1496
25677W        W42524  15.162   1.651  11.450  0.2354  0.1797 -0.1207
25678W        W42525   5.076   4.936   1.202  0.1450 -0.1386  0.1387
25679W        W42526  10.421  17.159  11.965  0.1709 -0.0199 -0.1332
25680W        W42527  13.603  16.396   2.132  0.1537  0.1652 -0.1503
25681W        W42528   5.940   4.208  13.681 -0.2478 -0.2522  0.2528
25682W        W42529  16.536  15.165   0.693  0.1929 -0.0162 -0.2155
25683W        W42530  11.413   0.976  13.464 -0.0094  0.0890  0.2409
25684W        W42531   7.759   8.651  15.337 -0.0819  0.0078 -0.3507
25685W        W42532  16.946   0.152  12.138 -0.2158  0.0709  0.2347
25686W        W42533  16.680  12.748   2.038  0.0276  0.0513  0.3228
25687W        W42534   0.463   4.804  13.252  0.2250 -0.1817 -0.1859
25688W        W42535   1.657   7.184   0.459  0.0440  0.3094 -0.1597
25689W        W42536   3.289   9.577   3.365  0.0934 -0.0660  0.1790
25690W        W42537   2.984  16.469   4.184 -0.2457 -0.0078  0.2708
25691W        W42538  12.370  10.438   1.785  0.2189 -0.0834 -0.2269
25692W        W42539   2.731   1.466   1.694 -0.0228 -0.0950 -0.0951
25693W        W42540  16.837  13.895  14.748  0.0880  0.3903  0.0675
25694W        W42541   5.617   5.979  14.609  0.2429 -0.0403  0.1596
25695W        W42542   9.630   3.428   4.883 -0.0937 -0.3366 -0.1776
25696W        W42543   6.793   3.255   0.948 -0.1867  0.0618  0.0232
25697W        W42544   0.880   3.422   3.948  0.0301 -0.0307  0.0805
25698W        W42545   3.278   9.935   0.339 -0.1752 -0.0332  0.2145
25699W        W42546   0.845   1.781  14.498  0.3655 -0.0028  0.2319
25700W        W42547   0.580   7.449   6.068  0.0203  0.2524  0.0945
25701W        W42548   3.012  17.388   4.603 -0.3288  0.1951 -0.0944
25702W        W42549   6.035   6.412   5.365  0.3872 -0.1450 -0.0813
25703W        W42550   2.107  10.267  14.397  0.3817 -0.0698  0.2175
25704W        W42551   0.773   2.403  16.664  0.1274 -0.2433 -0.1211
25705W        W42552  11.837   7.547   2.066  0.2621 -0.2766 -0.1078
25706W        W42553   2.595  14.993  15.795 -0.1880 -0.0796  0.1708
25707W        W42554  15.718  11.278  14.793 -0.0680 -0.0730  0.2418
25708W        W42555  14.765   6.536   1.830  0.2812 -0.0083  0.3586
25709W        W42556   1.236  17.585  14.578 -0.1456  0.1471 -0.0248
25710W        W42557   3.926   5.855   2.870 -0.1730 -0.2198 -0.0344
25711W        W42558  11.533   5.693  15.015  0.1312  0.0750  0.3502
25712W        W42559   2.709  12.902   4.922 -0.2192  0.1800  0.1026
25713W        W42560   9.563   8.631   5.757 -0.0385  0.1430  0.3240
25714W        W42561  14.045   6.782  12.423 -0.0953 -0.1624  0.0478
25715W        W42562   7.469   2.762  14.985  0.0641 -0.1047  0.0801
25716W        W42563  14.495   8.544   1.776 -0.0443 -0.4409 -0.2098
25717W        W42564  15.260   1.398  14.578  0.0479  0.1155  0.1824
25718W        W42565   8.497  12.148   4.329 -0.4879  0.0529 -0.1409
25719W        W42566  15.793  13.307  15.194  0.3451  0.0968  0.0168
25720W        W42567  12.869  10.862   4.973 -0.1505  0.0801  0.2941
25721W        W42568  15.343  14.106  16.539 -0.3846 -0.1734 -0.0106
25722W        W42569   3.688   8.277  13.710  0.0274  0.0714 -0.1404
25723W        W42570  15.546   1.742   1.644  0.1748  0.3374 -0.2712
25724W        W42571  12.189   0.247   2.694  0.0421 -0.0246 -0.0409
25725W        W42572   0.878  12.608   1.554 -0.0396 -0.1303  0.2075
25726W        W42573   8.251   9.777  14.331  0.2775 -0.3013 -0.0441
25727W        W42574   0.833   8.735  13.162 -0.2975  0.1588 -0.0198
25728W        W42575  13.826   9.041   4.744 -0.3733  0.0787 -0.0694
25729W        W42576   7.568  11.583  12.161 -0.0641 -0.1053 -0.3678
25730W        W42577   2.332   8.063   2.161 -0.4093  0.0065  0.1982
25731W        W42578  12.656   1.394   0.976  0.0308 -0.2837 -0.1103
25732W        W42579  11.786   0.000   0.492 -0.2181  0.1543  0.0335
25733W        W42580   6.233  14.796   3.559  0.1338 -0.0615 -0.0499
25734W        W42581   1.276   8.282  14.116  0.1181 -0.3304 -0.1534
25735W        W42582   2.497   5.303  12.583  0.1907  0.3155 -0.0178
25736W        W42583   0.488   5.806   1.864  0.1911  0.2314 -0.2878
25737W        W42584   3.527  17.883  14.250  0.0187  0.1803 -0.0405
25738W        W42585   3.233   5.027  12.007  0.3175  0.0040  0.0874
25739W        W42586   8.595  13.318   4.455 -0.0462 -0.2751  0.1063
25740W        W42587  18.011  13.742  14.957  0.0600  0.1187  0.2219
25741W        W42588  15.101   7.581   4.899 -0.0357 -0.0344 -0.1522
25742W        W42589   2.788   1.991  11.001  0.1054 -0.1552  0.0307
25743W        W42590  10.303  14.406  11.524 -0.1561  0.0422 -0.1183
25744W        W42591  15.998  12.191   3.705 -0.0137  0.0045  0.2132
25745W        W42592  12.273  11.296   3.343  0.1134  0.4972 -0.1328
25746W        W42593   6.920   6.315  15.257 -0.0868  0.1267 -0.0864
25747W        W42594  16.037   7.350  14.565 -0.5404 -0.1318 -0.1838
25748W        W42595  17.255   0.922  15.891  0.2775  0.4524  0.0570
25749W        W42596   9.627  12.318  15.089 -0.1147  0.0374  0.0227
25750W        W42597   4.648   3.252   0.612  0.2540  0.0001 -0.3964
25751W        W42598  17.997   5.874  11.862  0.1657  0.1034  0.0179
25752W        W42599  15.916  12.346   0.841 -0.0761  0.0789 -0.1847
25753W        W42600   9.403   5.755  11.310  0.0239 -0.0843  0.0638
25754W        W42601  16.208  15.003   1.633 -0.2918  0.0491  0.3313
25755W        W42602   2.699   0.646  12.838 -0.0317 -0.0046  0.0051
25756W        W42603   6.302   5.502  13.663  0.0676  0.2345 -0.1580
25757W        W42604  15.198   7.099  14.646 -0.1650 -0.2585  0.0274
25758W        W42605  12.026   9.987  12.822  0.0002  0.0796 -0.0225
25759W        W42606   3.397  13.490   5.297  0.2965  0.0011  0.0911
25760W        W42607  16.008   9.205   5.873  0.1491  0.0157 -0.0491
25761W        W42608   2.509  17.472   4.591  0.4031  0.1982 -0.2869
25762W        W42609  13.132  15.961  14.963  0.0380 -0.3212  0.0704
25763W        W42610  15.524   9.031  14.662 -0.0664 -0.0309 -0.2262
25764W        W42611   9.074   7.785   0.234 -0.0153  0.1113  0.1277
25765W        W42612  13.541   0.374  13.380  0.2912 -0.2073 -0.2264
25766W        W42613  14.306  16.661   0.462  0.1753  0.0967  0.1688
25767W        W42614  15.765   6.067  14.877 -0.0164 -0.0027 -0.1919
25768W        W42615   8.611   5.154  15.113 -0.0602 -0.0959 -0.0045
25769W        W42616  12.030  15.579  12.808 -0.2480 -0.0812  0.0342
25770W        W42617   6.521   2.976   0.596  0.2367 -0.2450 -0.0803
25771W        W42618   1.187  11.078  13.614 -0.0381 -0.0374 -0.0129
25772W        W42619   3.845   0.352   5.351  0.0625  0.1115  0.2306
25773W        W42620   1.542  16.008  14.321  0.1913  0.0572  0.0445
25774W        W42621   6.747   4.633  15.341  0.0015 -0.0876  0.2752
25775W        W42622   6.870  13.500   2.789 -0.2558  0.2386  0.1503
25776W        W42623  16.980   9.847  16.471 -0.0642  0.0185 -0.2181
25777W        W42624   6.724  16.521   2.602  0.1011 -0.3123  0.1638
25778W        W42625   4.243   2.361   3.241 -0.1509 -0.0598  0.1658
25779W        W42626  16.553  13.270   5.270  0.2504  0.1038 -0.2136
25780W        W42627   5.415  10.701   3.476 -0.2945 -0.0223 -0.1745
25781W        W42628   9.603  11.391  13.807  0.0842  0.0579  0.0211
25782W        W42629   0.321  13.472   0.405  0.0668  0.1421 -0.0584
25783W        W42630   2.179   5.276   0.276 -0.0155  0.0849 -0.2951
25784W        W42631  14.228   1.161   2.810  0.0467  0.0229  0.2309
25785W        W42632  17.855  10.250   0.089  0.1388 -0.0511  0.1605
25786W        W42633  14.297   1.305   0.958  0.1153 -0.3032  0.2430
25787W        W42634  12.855  16.981  14.812  0.0583 -0.0593 -0.0108
25788W        W42635  16.181   7.668   1.744 -0.4651  0.3689 -0.1716
25789W        W42636   8.284  12.270   1.286 -0.0411  0.1450  0.1877
25790W        W42637   9.175   7.623   2.135 -0.1044 -0.1353  0.2762
25791W        W42638  15.618   0.579   4.655 -0.0893  0.3072  0.1084
25792W        W42639  17.000  15.383  15.080 -0.3156  0.3549 -0.0886
25793W        W42640   3.857   1.536  16.457  0.2301  0.2034  0.1315
25794W        W42641   9.625  17.697   1.797 -0.2034  0.0577 -0.0745
25795W        W42642  15.393  14.126   1.909 -0.3196  0.0983 -0.0956
25796W        W42643  10.916   5.714   0.721 -0.2739 -0.0625  0.0956
25797W        W42644   4.661  12.947  13.293  0.2502 -0.2375 -0.1356
25798W        W42645  12.274  10.517  12.942  0.0387 -0.1700 -0.2308
25799W        W42646   8.043   2.607   2.794  0.0601  0.1111 -0.1464
25800W        W42647  13.104   3.149   1.962 -0.0063 -0.0499  0.1525
25801W        W42648  12.257  15.622   2.277 -0.2052  0.1227 -0.0739
25802W        W42649   0.158   8.002  13.673 -0.0173  0.1359 -0.0469
25803W        W42650   2.085  16.863  14.118  0.0604  0.1598 -0.3117
25804W        W42651  15.675   3.125   4.634 -0.1729 -0.0371  0.1096
25805W        W42652   4.817  11.411  15.407 -0.1681  0.0442 -0.1475
25806W        W42653   0.249  12.204  12.791  0.1879  0.2298 -0.1584
25807W        W42654  10.668  14.106  11.404 -0.2592 -0.3983  0.2399
25808W        W42655   2.012  17.397  11.647 -0.1828  0.1642  0.1283
25809W        W42656   3.131   3.136   1.275  0.0341 -0.2327  0.2700
25810W        W42657   9.290   3.234   5.322 -0.0485 -0.1878 -0.0535
25811W        W42658   3.394   7.718  13.426 -0.2165  0.1792  0.0342
25812W        W42659  16.303   2.207   3.439  0.0057  0.1978 -0.0623
25813W        W42660   8.660  11.158  15.471 -0.1037  0.1246 -0.0607
25814W        W42661  14.912   9.746  16.209 -0.3292 -0.1673  0.5552
25815W        W42662  13.844   5.508  15.229  0.2694 -0.4159  0.1481
25816W        W42663  17.231   6.354   4.104  0.0978  0.1952 -0.0618
25817W        W42664  15.108  17.808  14.056 -0.1900  0.1068  0.1217
25818W        W42665  16.419   4.641  11.508  0.0285 -0.0422 -0.0689
25819W        W42666  17.305  13.113   4.643  0.0360 -0.2381  0.2322
25820W        W42667   5.327   5.243  16.471  0.0728  0.1246 -0.0518
25821W        W42668   7.413  10.365  15.158 -0.2558 -0.1957 -0.2039
25822W        W42669   7.066  11.353   1.288  0.0563  0.0816  0.3490
25823W        W42670   5.207   3.689  16.010 -0.3139  0.1811  0.1686
25824W        W42671  13.096  12.651  15.427  0.0338 -0.0550 -0.0251
25825W        W42672  14.765   8.956   0.566  0.2279  0.0482 -0.0677
25826W        W42673   1.721  17.262  12.154 -0.0886  0.0476  0.1275
25827W        W42674   2.430   4.260  12.431  0.0360 -0.1529  0.0289
25828W        W42675   4.237   7.576  13.730 -0.0851 -0.3508 -0.0330
25829W        W42676  16.287   5.926  11.614  0.2033 -0.2035  0.0774
25830W        W42677   1.850   7.254  14.898  0.3686  0.2125 -0.0354
25831W        W42678   8.275  14.419  13.548  0.0694  0.0158  0.1596
25832W        W42679   4.298   5.387   1.513 -0.0249 -0.0413 -0.3999
25833W        W42680  10.730  12.505   2.158 -0.0102 -0.0976  0.3368
25834W        W42681  12.923   4.478  15.841  0.2286 -0.0449 -0.3508
25835W        W42682   8.878   3.697   0.444 -0.0257  0.3576  0.1809
25836W        W42683   6.079   6.547  13.662 -0.0626 -0.4159  0.3861
25837W        W42684  16.149   1.720  14.155 -0.0020 -0.2161 -0.0440
25838W        W42685   2.996   5.936   1.468 -0.0027  0.2803 -0.4123
25839W        W42686   1.701   1.342   6.204 -0.3372 -0.0823  0.4870
25840W        W42687   5.151   2.969  11.701  0.0022 -0.4313 -0.0972
25841W        W42688   2.646   6.862   3.592 -0.1052 -0.1378 -0.3691
25842W        W42689   2.707   0.181  13.800  0.2807  0.3986 -0.0629
25843W        W42690   3.130   5.601   2.481  0.0444 -0.1491  0.3268
25844W        W42691   9.484  14.617   0.165 -0.3075 -0.4502  0.1209
25845W        W42692   8.871  15.614  11.576  0.0460  0.0738  0.0795
25846W        W42693   0.131   1.351   4.685  0.0032 -0.0663 -0.0706
25847W        W42694  13.636  15.989  13.747 -0.1837 -0.3498  0.0846
25848W        W42695   6.042   3.521  13.033  0.2610 -0.3508 -0.2861
25849W        W42696   1.891  17.161   1.805  0.1785 -0.0652 -0.0069
25850W        W42697   5.828   9.075   2.724 -0.1307 -0.0136  0.1343
25851W        W42698   4.894  14.772   0.719  0.0942  0.0421  0.2482
25852W        W42699   8.026   6.472  15.414  0.0281  0.0035  0.0851
25853W        W42700  13.580  10.310  11.632 -0.0981  0.0661  0.0307
25854W        W42701   3.629  15.031   3.861  0.1041 -0.0044  0.0768
25855W        W42702   8.372   7.381  14.648 -0.2210 -0.0498  0.0164
25856W        W42703  17.984  12.688  13.419  0.2759  0.2530  0.0090
25857W        W42704  16.823  16.634   2.334  0.1135  0.0457  0.3198
25858W        W42705  17.904  17.324  13.388 -0.0218  0.0311 -0.1325
25859W        W42706   7.087  11.707   2.222 -0.2435  0.0508 -0.0435
25860W        W42707  11.786  10.380  13.070  0.0792  0.0109  0.2646
25861W        W42708  11.826  10.388   3.729 -0.3054 -0.0198  0.2187
25862W        W42709  11.113   7.301   0.670  0.2399  0.1147 -0.1422
25863W        W42710  13.556   1.895   1.864 -0.0731  0.0943 -0.0187
25864W        W42711  11.160  10.926   1.579  0.0161 -0.1023 -0.1145
25865W        W42712   7.914   9.839   3.604  0.1566  0.2489 -0.0673
25866W        W42713  10.374   2.319  15.952 -0.0852 -0.0857 -0.2839
25867W        W42714  14.696  13.980   1.190  0.1759 -0.0101 -0.3956
25868W        W42715  13.242   3.970  11.869 -0.1480  0.1466  0.3401
25869W        W42716   0.406  14.926  12.181  0.2239 -0.0729  0.1379
25870W        W42717   1.977  11.302  12.101 -0.0283 -0.1112  0.1035
25871W        W42718   0.895   1.769   2.387  0.0074  0.1473 -0.0136
25872W        W42719  15.175   6.847   3.698 -0.3483 -0.1501  0.0563
25873W        W42720  12.477   5.009   1.673  0.2338  0.4046 -0.3269
25874W        W42721  10.732   8.292   0.591  0.0621 -0.0412  0.0405
25875W        W42722   9.072   9.963   3.624 -0.2024 -0.0485  0.0263
25876W        W42723  15.366  15.044   1.344 -0.2161 -0.2649 -0.1701
25877W        W42724   7.902   7.032  14.098 -0.0748 -0.1810  0.1923
25878W        W42725   0.579   5.691  15.276  0.1374  0.0673  0.0775
25879W        W42726   4.197  11.794   0.806  0.0913 -0.0972 -0.4691
25880W        W42727   3.527   6.240  14.806 -0.3828 -0.0571 -0.2485
25881W        W42728  15.775  17.829   3.551  0.2971  0.1981  0.0441
25882W        W42729  17.135   4.656   2.971 -0.0759  0.1062 -0.0831
25883W        W42730  11.205   0.662  14.152  0.3170  0.1596 -0.0160
25884W        W42731   7.186  15.563  12.151 -0.1626 -0.1679 -0.1223
25885W        W42732   4.574  11.845   0.432 -0.1601 -0.1033  0.0390
25886W        W42733  12.821   3.644   1.292  0.2395 -0.4628 -0.1339
25887W        W42734   6.091  15.755   0.698 -0.2766 -0.0459  0.0292
25888W        W42735  11.981   0.243   4.806 -0.0565  0.1362  0.1614
25889W        W42736  17.401   1.295   0.016 -0.2193 -0.2417 -0.1028
25890W        W42737  15.837  11.980   2.649 -0.1182  0.0896 -0.2853
25891W        W42738  11.907  13.409  10.340 -0.0244  0.2022 -0.1181
25892W        W42739  10.198   1.916  16.407  0.0948  0.0434 -0.0542
25893W        W42740  12.044   3.181  15.789 -0.0350  0.1969 -0.0899
25894W        W42741   1.832   2.982   2.895  0.3231 -0.2145 -0.0405
25895W        W42742   5.665   8.629   4.999 -0.1869  0.1682  0.1296
25896W        W42743  12.828  11.269   1.493  0.1960  0.2453 -0.1103
25897W        W42744  10.681  11.941   5.131 -0.0739  0.0826  0.1570
25898W        W42745  17.372   4.575   0.549  0.3128 -0.2931 -0.0086
25899W        W42746   8.701   5.757   3.456  0.0196 -0.0310 -0.1367
25900W        W42747  13.687   5.999   5.629 -0.1389  0.0408 -0.0745
25901W        W42748  11.257   6.029   4.369 -0.0127 -0.2913  0.0053
25902W        W42749  14.592  12.291   0.346 -0.2432 -0.4447 -0.2748
25903W        W42750   6.093   4.223  12.225  0.2204  0.2982 -0.0877
25904W        W42751   1.394   5.571   4.767  0.2626  0.3317  0.0178
25905W        W42752  10.683   1.749  12.387 -0.0200 -0.0691  0.0280
25906W        W42753   9.439  12.450   3.385 -0.3966  0.0555  0.0807
25907W        W42754  11.860   2.188   1.305  0.1458  0.1267  0.2148
25908W        W42755  17.625  11.741  15.295  0.0678 -0.0857 -0.1983
25909W        W42756   6.127   7.254  15.033 -0.2511 -0.1775 -0.2566
25910W        W42757   9.654   2.914  14.983  0.0062  0.0641 -0.0845
25911W        W42758  12.524   7.756   3.385  0.0653 -0.3424 -0.2951
25912W        W42759   7.830   6.948  16.297  0.2319  0.2327 -0.1217
25913W        W42760   5.659  10.100  12.411  0.1943  0.2175  0.1284
25914W        W42761  13.784   9.868  11.757  0.3277  0.2300  0.0553
25915W        W42762  10.113   9.795   1.957  0.0056 -0.2235  0.3900
25916W        W42763  10.176  17.771  16.626  0.0299  0.3414 -0.1073
25917W        W42764   2.978  11.235   4.310 -0.1288 -0.1260  0.0768
25918W        W42765   9.206   4.074   0.487 -0.0363  0.5101 -0.0916
25919W        W42766  15.665   1.520   5.935 -0.1340 -0.2188 -0.0550
25920W        W42767  13.628  14.234   4.306  0.0321  0.1488 -0.0864
25921W        W42768   5.617   5.104   4.359 -0.0578  0.1031  0.3031
25922W        W42769   3.070   3.328  16.663  0.0569  0.2505 -0.1433
25923W        W42770   3.977   3.714   3.420 -0.1744 -0.1567  0.1403
25924W        W42771  10.447   8.333  12.139  0.0053  0.1983 -0.0475
25925W        W42772  10.213  10.978  11.222  0.0384  0.2623  0.3535
25926W        W42773   5.808   3.215  16.164 -0.0118  0.2677  0.2338
25927W        W42774   4.916  14.360  15.536 -0.0133 -0.2422  0.0036
25928W        W42775   2.435  11.894   4.733 -0.1297 -0.3250  0.0303
25929W        W42776   5.333  11.846   2.837  0.1324 -0.1725  0.2485
25930W        W42777   8.997  12.846  12.492  0.2198 -0.0946 -0.3200
25931W        W42778   5.899   3.022  14.648  0.0438  0.1815 -0.0005
25932W        W42779   7.154  16.018  15.689 -0.1113 -0.3186  0.2217
25933W        W42780   1.295   7.636  11.698  0.0036 -0.0016  0.0600
25934W        W42781   5.661   1.966  14.660  0.1278 -0.0547 -0.1818
25935W        W42782   4.811  17.661  15.726 -0.3811  0.0571 -0.0531
25936W        W42783  10.100  14.283  15.130  0.0968 -0.0222  0.1158
25937W        W42784   6.172  15.785   1.210  0.0319 -0.0381  0.1329
25938W        W42785  14.209   3.208   3.880 -0.2022 -0.4459  0.0305
25939W        W42786  15.132  14.132   5.251  0.0701 -0.0689  0.0785
25940W        W42787  12.387   6.945  12.880  0.3127 -0.2838  0.3013
25941W        W42788   9.010   5.467  13.165 -0.1174  0.0642  0.0984
25942W        W42789   1.529   3.739  12.637  0.0458  0.2470 -0.0695
25943W        W42790  10.498  16.335  11.813 -0.2623 -0.1729  0.1556
25944W        W42791   5.173  18.033  11.571  0.2750 -0.3623 -0.0286
25945W        W42792  16.530  11.170   0.788 -0.2457 -0.2699 -0.0354
25946W        W42793  12.947  17.948  15.873  0.0419 -0.1288 -0.2002
25947W        W42794  10.147   3.222   3.004 -0.1280 -0.1669 -0.2071
25948W        W42795  17.618   5.358   4.548 -0.2653  0.0287  0.1997
25949W        W42796   2.139  11.806  11.984  0.0555 -0.0292 -0.0942
25950W        W42797   1.336   2.052  15.690 -0.1765  0.0212 -0.0342
25951W        W42798  13.794  14.759  14.862  0.1072  0.1178  0.2796
25952W        W42799   1.230  15.819   2.714  0.1219 -0.1003 -0.0257
25953W        W42800   5.379  15.202   5.027 -0.1447 -0.0297  0.0196
25954W        W42801  16.770  10.366   1.530  0.1919 -0.0383 -0.3316
25955W        W42802  14.411   0.927  15.598 -0.2850  0.4620 -0.2927
25956W        W42803   0.709  13.031  16.454 -0.2430  0.2582 -0.2743
25957W        W42804   9.571   7.554   1.824 -0.0122 -0.2306 -0.4539
25958W        W42805   5.759   7.541  13.484 -0.0999 -0.2281 -0.0440
25959W        W42806   2.031   9.125  16.169  0.1000  0.2259  0.1221
25960W        W42807  13.736   9.653   0.918  0.1066  0.0782 -0.0498
25961W        W42808   4.541  13.344   1.473  0.2489 -0.1836 -0.0751
25962W        W42809   6.719   2.504   1.839  0.2031 -0.0342 -0.1259
25963W        W42810   6.428   5.703   0.606  0.1567  0.0879  0.0671
25964W        W42811   7.808  17.295  16.092 -0.0995 -0.2230  0.0029
25965W        W42812  14.029  11.280  13.904  0.2882 -0.1920 -0.1782
25966W        W42813   9.074   3.289  15.080  0.2099  0.0824  0.0090
25967W        W42814   3.004  10.407   5.972  0.0228  0.0983  0.0735
25968W        W42815   9.229  14.626  16.380 -0.2019 -0.1636 -0.0505
25969W        W42816  17.124   2.877   2.466 -0.0569 -0.0653  0.2173
25970W        W42817   8.070  15.971  15.146  0.1727 -0.2079 -0.1482
25971W        W42818  10.303  16.858  15.592  0.1264  0.0348 -0.0133
25972W        W42819  13.464   8.907  15.401 -0.1604  0.2880 -0.1802
25973W        W42820   9.373   3.613  15.969  0.3788 -0.0377 -0.3561
25974W        W42821  14.001   7.559  15.843 -0.2082 -0.0038  0.0402
25975W        W42822   9.827  11.695   0.330 -0.0793  0.1505  0.0083
25976W        W42823   4.390  12.520   6.486  0.0606 -0.2238 -0.3991
25977W        W42824   2.077   9.143  11.544  0.0940 -0.1412 -0.1207
25978W        W42825   1.728  12.615   1.676 -0.3309  0.2667 -0.1378
25979W        W42826  17.260   5.825  14.733 -0.0407  0.0505  0.0193
25980W        W42827  13.380   6.204  12.476 -0.0976 -0.0901  0.0010
25981W        W42828  11.164   6.777  16.680  0.0440  0.4146 -0.0754
25982W        W42829  11.867  13.279  12.774  0.0201 -0.1862  0.0772
25983W        W42830  11.432  17.442   1.959 -0.0822  0.1077  0.3514
25984W        W42831   2.349   9.895   3.464 -0.0112 -0.2440  0.1237
25985W        W42832   8.406   9.757   2.443 -0.2435  0.1359  0.1980
25986W        W42833  10.199   9.418   1.695  0.1968 -0.0219  0.1328
25987W        W42834   9.943  16.042   0.056  0.1872  0.2398 -0.3137
25988W        W42835  12.851  10.975  13.789  0.1045  0.0226  0.1211
25989W        W42836  10.592  16.452   3.856  0.0544 -0.1347  0.0185
25990W        W42837   3.917   1.044   5.896 -0.2558 -0.0486 -0.1412
25991W        W42838   0.023   4.138   1.820  0.1037  0.1010  0.2655
25992W        W42839  10.186  11.315  16.162 -0.1763  0.2787 -0.1222
25993W        W42840  16.597  12.717  11.805  0.1458 -0.4132 -0.0659
25994W        W42841  10.657  11.914  14.846 -0.0984 -0.1522  0.4201
25995W        W42842   8.921  11.367   4.932  0.3569 -0.1472  0.0122
25996W        W42843  11.160   8.719   4.161  0.0059  0.1626 -0.1088
25997W        W42844   1.269  12.605   4.527 -0.0056 -0.1041  0.1573
25998W        W42845  15.892   7.528  15.534  0.0766 -0.4855  0.1445
25999W        W42846  15.882  10.942   1.525  0.0472 -0.1795 -0.0633
26000W        W42847  12.978  10.437   5.886  0.1111 -0.0841  0.0893
26001W        W42848  11.690  16.535  13.758  0.1646  0.0688 -0.0814
26002W        W42849   4.306   1.414   4.321  0.0833  0.1509 -0.1899
26003W        W42850   7.476  12.492   0.690  0.2262 -0.3099 -0.0502
26004W        W42851   2.106   5.249   0.844 -0.5860  0.1125  0.0948
26005W        W42852   9.890  14.289   2.947 -0.1352 -0.2417  0.1572
26006W        W42853   0.707   3.829  14.272  0.0087 -0.1619 -0.1438
26007W        W42854   8.126   8.781  13.669  0.1250  0.2247  0.0804
26008W        W42855   3.347   7.314   0.985  0.1022  0.4282  0.0170
26009W        W42856   6.269   4.411  15.996  0.0533 -0.1632  0.1938
26010W        W42857   2.477   2.926  14.160 -0.0087 -0.2662  0.1993
26011W        W42858   8.998   8.297   3.110 -0.0874  0.0890  0.0616
26012W        W42859   8.136  13.647  15.306 -0.0245  0.1011 -0.1625
26013W        W42860   8.847  17.867   2.439  0.0200  0.3659 -0.1235
26014W        W42861  16.341  13.422  16.027 -0.1302  0.1979 -0.2765
26015W        W42862   0.372  17.446  15.377  0.1336 -0.0714  0.0975
26016W        W42863  10.478  11.033   3.909 -0.0824  0.0235  0.0204
26017W        W42864  11.083   3.590  13.167 -0.2080 -0.0481  0.0503
26018W        W42865   1.190   8.836   1.706  0.0903  0.0685 -0.1845
26019W        W42866   5.241   4.009   5.098  0.0415  0.0397  0.1479
26020W        W42867   9.901   1.029  11.809 -0.0630  0.0841  0.1843
26021W        W42868   7.821  13.279  15.251  0.0071  0.4155  0.0199
26022W        W42869   7.956  10.697   0.792 -0.0527  0.2398 -0.1022
26023W        W42870   3.104   5.463  16.022  0.2240 -0.1476 -0.0746
26024W        W42871  17.256   9.310  11.696 -0.1755 -0.1942  0.0645
26025W        W42872   9.355   0.058   2.417 -0.0893 -0.0256 -0.1268
26026W        W42873   5.471   4.496  14.797  0.0888  0.1431  0.0476
26027W        W42874   4.137   1.794   4.691  0.0807 -0.0649  0.0592
26028W        W42875  13.638  15.762   4.078 -0.0834  0.0295 -0.0865
26029W        W42876   3.852   6.206  11.931 -0.0408 -0.1559 -0.1529
26030W        W42877   5.475  11.780  14.988 -0.3497  0.0618  0.0706
26031W        W42878  15.625   9.914   5.561 -0.0554 -0.2157 -0.5848
26032W        W42879   4.611  15.334   5.395 -0.2111 -0.1805 -0.0333
26033W        W42880  15.008   1.489   4.693  0.0175 -0.0323  0.0661
26034W        W42881  10.854  16.143  15.516  0.1402 -0.1440 -0.3017
26035W        W42882   7.435  10.201   1.356  0.0533  0.2304 -0.2978
26036W        W42883  14.728   7.531   0.747  0.0077  0.1134  0.3599
26037W        W42884  10.209   4.701   1.813  0.0139 -0.1119 -0.3133
26038W        W42885   7.337  16.182  12.942 -0.4241  0.2873 -0.0546
26039W        W42886  13.677   2.482   2.858  0.1827  0.5780 -0.0451
26040W        W42887  17.228  16.074   1.022 -0.2205 -0.2720 -0.1249
26041W        W42888  11.276   4.058   3.792 -0.0608 -0.0122 -0.0393
26042W        W42889   5.315   2.413   1.975 -0.3468  0.2975 -0.2468
26043W        W42890   8.275  11.792  14.566  0.2179  0.0752 -0.0578
26044W        W42891   6.267  15.843  15.558 -0.0626 -0.1383 -0.0086
26045W        W42892   6.551   1.972   0.681  0.4370 -0.1700 -0.0089
26046W        W42893   6.913   4.570   2.106  0.1541  0.0496 -0.0818
26047W        W42894   5.407   7.316  13.213  0.3286  0.2506  0.2203
26048W        W42895  10.451  10.439   3.813  0.2561  0.2654 -0.2548
26049W        W42896  14.705  16.966  13.186 -0.0205  0.0122 -0.2890
26050W        W42897   5.952  11.614  15.899 -0.4245  0.0108 -0.3009
26051W        W42898  15.862  13.611  12.598  0.1382 -0.1523  0.0006
26052W        W42899   9.500   2.209   1.067 -0.0044 -0.0253 -0.0899
26053W        W42900   1.858   9.841   1.699  0.1486  0.4119  0.3229
26054W        W42901  15.402   3.242   1.821 -0.2789  0.0486 -0.1672
26055W        W42902   8.220  13.378  13.248 -0.2612  0.0889  0.0283
26056W        W42903   7.381   9.408   1.027 -0.1082  0.1482 -0.0155
26057W        W42904   2.191  10.479   0.806  0.2609 -0.0591  0.1491
26058W        W42905  16.647  14.583   0.118 -0.0520  0.1212 -0.1891
26059W        W42906   5.702  17.957  15.900  0.0403 -0.1725  0.0529
26060W        W42907  16.505   1.664   3.416 -0.0346  0.2377 -0.2607
26061W        W42908  14.910   7.460   3.589  0.1402  0.1330  0.0402
26062W        W42909  11.452  15.331   2.789 -0.1220 -0.2084  0.1182
26063W        W42910   4.991  17.838   2.129  0.3091 -0.1763 -0.0156
26064W        W42911  15.545   8.019  11.864 -0.1572  0.2353 -0.0620
26065W        W42912  11.166   3.196  15.145  0.0568 -0.1594 -0.2214
26066W        W42913   4.767   1.478  13.029 -0.0747  0.0991  0.1354
26067W        W42914   7.101  10.053  12.217  0.2517 -0.0741 -0.1723
26068W        W42915   5.226  17.361   0.689 -0.2485 -0.0946 -0.1223
26069W        W42916   0.616   3.911  12.523 -0.0218 -0.1171 -0.1500
26070W        W42917  17.586  14.939   1.584 -0.1556 -0.3518 -0.0379
26071W        W42918   2.497  12.433   5.517 -0.1875 -0.0292 -0.0464
26072W        W42919  10.606  11.550   3.762 -0.2850  0.2040 -0.0970
26073W        W42920   4.865   2.723  16.379  0.1159 -0.2173  0.2781
26074W        W42921   8.640  12.549   1.055  0.2334 -0.0954 -0.3043
26075W        W42922  13.940   7.099  11.612  0.0906  0.0035  0.0663
26076W        W42923  12.417   7.494  13.231  0.1610 -0.0160 -0.0609
26077W        W42924   1.536  13.658   2.900  0.0133  0.1356  0.3203
26078W        W42925  10.383  12.254   5.900  0.2611  0.0138 -0.1893
26079W        W42926  14.449  14.508   0.979 -0.3583 -0.2421 -0.1910
26080W        W42927  13.260  10.681   4.550 -0.1611 -0.0751 -0.1106
26081W        W42928  17.508   0.373   4.050  0.1663  0.0198  0.0968
26082W        W42929   7.195  16.641   3.238  0.1458 -0.2465 -0.0480
26083W        W42930  14.770  10.370  12.565  0.0647 -0.0313 -0.2001
26084W        W42931   3.280   8.751   5.358  0.0149  0.1614 -0.1900
26085W        W42932  16.315   4.195   3.577  0.0246  0.1267  0.3414
26086W        W42933   6.514  12.949   5.039  0.0083 -0.0203 -0.1481
26087W        W42934  10.793  17.549  11.206  0.0772 -0.0125 -0.0302
26088W        W42935  12.062  16.460   0.332  0.2720  0.0735 -0.1642
26089W        W42936   9.435   1.849   2.044 -0.1188 -0.0021 -0.2611
26090W        W42937  15.084  16.073   2.963 -0.0449  0.2306  0.1419
26091W        W42938   8.179   2.794   3.326  0.0806 -0.2906 -0.1580
26092W        W42939   0.541   1.525   0.330 -0.0342  0.0248  0.0324
26093W        W42940  11.654  13.398  11.704 -0.2848  0.1463  0.1611
26094W        W42941  17.158   2.406   1.805  0.0909 -0.0846  0.0624
26095W        W42942   9.067  12.068   5.467 -0.1241 -0.1911  0.1193
26096W        W42943   1.927   1.281  13.378 -0.0018 -0.1956 -0.0903
26097W        W42944  15.192  17.326  16.081  0.0491  0.0164  0.0915
26098W        W42945  11.098  13.284  13.993  0.1583  0.0798  0.5260
26099W        W42946   7.132  12.663  15.890 -0.1785 -0.1423 -0.1862
26100W        W42947   0.469  13.673  11.846  0.2284 -0.0367  0.0297
26101W        W42948  12.777   1.290   4.061 -0.3341  0.3517 -0.0793
26102W        W42949  12.778  11.151  11.450 -0.1127 -0.1990 -0.0793
26103W        W42950   8.899   8.377   1.200  0.2088 -0.2132 -0.0807
26104W        W42951  12.825  17.594  14.723  0.1598 -0.1935 -0.1309
26105W        W42952   0.944   5.807   2.643 -0.2910 -0.0515  0.0696
26106W        W42953  15.569   2.844   5.147 -0.2508  0.1224  0.0101
26107W        W42954   6.950   1.818  11.016  0.1757 -0.1004  0.1309
26108W        W42955  10.444   2.551   4.154 -0.1607  0.0735  0.1413
26109W        W42956   7.351  12.090  14.897  0.0006 -0.0508 -0.1094
26110W        W42957   0.153  12.154   5.865 -0.0177  0.1355  0.1038
26111W        W42958   5.510  11.648   4.472 -0.0890  0.1041  0.1657
26112W        W42959   5.420   0.620  15.534 -0.0459 -0.0617  0.1862
26113W        W42960   1.843   6.299   2.786  0.2595 -0.1304  0.1919
26114W        W42961  13.813   1.331   2.602 -0.2835 -0.0922  0.0987
26115W        W42962  10.997  14.973   1.474  0.0603  0.0210  0.0714
26116W        W42963  17.679   9.868   1.743  0.2898 -0.0336 -0.0547
26117W        W42964   4.218  12.072  12.975 -0.0568 -0.0685  0.2266
26118W        W42965  10.166  16.214  12.179 -0.1035 -0.1655  0.1952
26119W        W42966  13.028  14.280  11.369  0.0350 -0.0775 -0.1360
26120W        W42967   3.547   8.456  15.482 -0.2491 -0.0765 -0.1166
26121W        W42968  11.880   6.755  12.732 -0.0189 -0.1154 -0.1806
26122W        W42969   5.808  17.649   1.174  0.1974 -0.3320 -0.1646
26123W        W42970  12.979   9.405   2.524  0.1459 -0.1937 -0.3248
26124W        W42971   6.003  17.099  12.632 -0.0471  0.0683 -0.0716
26125W        W42972  13.392  11.804   4.512  0.0837 -0.3136  0.2060
26126W        W42973   2.367  13.649  12.775  0.3135  0.3565  0.1116
26127W        W42974  17.864  14.841   5.480 -0.1030 -0.2102 -0.2517
26128W        W42975   4.641  13.493   1.939 -0.2473 -0.0329  0.2079
26129W        W42976  11.028  11.282   4.638  0.0962 -0.0322 -0.0420
26130W        W42977   8.372   3.531  13.055 -0.1853  0.2183 -0.4008
26131W        W42978   3.878   2.137   1.925 -0.1398 -0.2607  0.0388
26132W        W42979   2.719   0.992  13.609 -0.1824 -0.1671 -0.2471
26133W        W42980  11.521  16.754  12.864 -0.4770 -0.0669 -0.1364
26134W        W42981  15.424   3.542  13.102 -0.0874 -0.2485 -0.1089
26135W        W42982  11.416  10.943  11.797 -0.1873  0.0368  0.1083
26136W        W42983  16.168   9.565   1.446 -0.2763  0.4008 -0.1530
26137W        W42984  17.632  17.635   4.176  0.2691  0.4807 -0.0732
26138W        W42985  16.513   5.507  16.628 -0.4085  0.0908 -0.1233
26139W        W42986  12.259  10.176   4.019  0.1611 -0.2423  0.0314
26140W        W42987  16.083   8.206  16.038 -0.0265 -0.1065  0.4259
26141W        W42988  11.631  13.109   2.510  0.0285 -0.1069  0.2265
26142W        W42989  16.300   1.538  10.692  0.2634 -0.2197 -0.2148
26143W        W42990   1.039   9.430   3.932 -0.2048 -0.1823  0.3196
26144W        W42991   5.631  10.915  15.570  0.1049 -0.0306  0.1001
26145W        W42992   5.113  17.869   0.689  0.0322  0.0048  0.1020
26146W        W42993  12.457   4.948  11.402  0.0649  0.0859 -0.0489
26147W        W42994  16.997   9.495   6.011  0.0502  0.2452 -0.1011
26148W        W42995   9.059   1.720  13.723  0.1126 -0.1299 -0.0919
26149W        W42996   5.415   2.824  11.248  0.0121 -0.3454  0.1649
26150W        W42997  10.002   1.808  12.795  0.0066 -0.1948  0.1620
26151W        W42998  16.915   9.976  12.288 -0.1745 -0.0328  0.0034
26152W        W42999   3.667  15.758  15.204  0.0082  0.1918 -0.0278
26153W        W43000   6.749  16.563   3.452 -0.2305 -0.0250 -0.0388
26154W        W43001   7.540   0.159  13.610  0.0944 -0.0169 -0.1387
26155W        W43002  16.346   2.077  14.628  0.5306 -0.0191 -0.0269
26156W        W43003   4.572   8.404  11.798 -0.1975 -0.5138 -0.0227
26157W        W43004   9.304  14.055   5.327  0.2127 -0.1422 -0.1749
26158W        W43005  13.295   4.773   3.747  0.3265  0.2004  0.2424
26159W        W43006   2.332   1.330   5.394 -0.2241  0.0103 -0.4371
26160W        W43007   5.815   7.961  15.292 -0.0824  0.1750  0.0973
26161W        W43008  16.511  17.433  14.992 -0.0558  0.0726 -0.1740
26162W        W43009   9.424  10.442  13.414 -0.0794  0.0958 -0.2587
26163W        W43010   4.120   5.072  13.212 -0.1558 -0.2298 -0.0976
26164W        W43011   5.565   5.815   0.948 -0.0093  0.3881 -0.0786
26165W        W43012  16.640   0.463  13.266  0.0089  0.0037 -0.3177
26166W        W43013  13.942   2.711   0.738  0.2014 -0.1077  0.1084
26167W        W43014  15.146   2.248  13.691  0.3010  0.0034  0.1615
26168W        W43015   6.434   0.370   4.867  0.0705 -0.0052  0.0063
26169W        W43016   0.495  12.917  15.218  0.2638  0.1318  0.0379
26170W        W43017   1.444   4.363   6.097  0.1504  0.4303 -0.1489
26171W        W43018  18.045   4.476  11.849 -0.0715 -0.3912  0.0737
26172W        W43019   9.930   8.374  13.042  0.3209  0.0543  0.2517
26173W        W43020  11.448   6.164   3.004  0.3464 -0.0976  0.0251
26174W        W43021   5.124   0.655  11.658  0.4606 -0.1066  0.1734
26175W        W43022  18.056  13.515  13.500  0.2607 -0.0990 -0.0346
26176W        W43023  16.663   8.974  16.193  0.2761 -0.3053  0.0688
26177W        W43024  12.984   0.147  10.929  0.0398  0.2036  0.1752
26178W        W43025   5.240   2.166  15.840 -0.2228  0.0633 -0.0512
26179W        W43026   3.518  13.070  12.231 -0.0688 -0.2002 -0.2633
26180W        W43027   1.200   2.285  12.678  0.0444 -0.1560 -0.1211
26181W        W43028  10.756  15.594   3.567  0.1801  0.0224  0.0204
26182W        W43029  12.460   3.614   4.688 -0.0294 -0.1475 -0.0115
26183W        W43030  15.386   2.445  12.113  0.0631  0.0137  0.2912
26184W        W43031   8.663   3.264  11.350 -0.2222 -0.0134  0.0774
26185W        W43032   3.889  14.766  13.700  0.0736  0.0973 -0.0983
26186W        W43033   7.207  11.752  14.568  0.0254 -0.0758 -0.1568
26187W        W43034  10.207  13.045   3.119 -0.0274  0.2675 -0.0469
26188W        W43035  10.511   9.822  14.477 -0.0175 -0.0935  0.1128
26189W        W43036  15.673   3.798  12.403  0.0585 -0.0049  0.1858
26190W        W43037  14.145   0.370   4.009 -0.1032  0.2331  0.0541
26191W        W43038   6.770  16.832   3.892 -0.5504 -0.3641  0.1821
26192W        W43039   7.436   7.293   3.325  0.2662  0.1676  0.3669
26193W        W43040  15.935  13.966  14.603 -0.0899 -0.1202 -0.0797
26194W        W43041  10.209   2.129   1.625 -0.2784 -0.2173 -0.0724
26195W        W43042  15.214  17.064  11.379  0.3824 -0.1818 -0.0270
26196W        W43043   3.486   0.684   0.045 -0.1558 -0.0440 -0.1759
26197W        W43044   5.074   2.829   4.674  0.0463  0.0780  0.1180
26198W        W43045  16.856  12.153   3.917 -0.3646 -0.1453  0.1103
26199W        W43046  14.716  16.736   2.381  0.0445 -0.0058 -0.1504
26200W        W43047  11.456   6.127  15.220 -0.0309  0.2649 -0.1107
26201W        W43048   6.231   5.584   5.575 -0.3945  0.1658 -0.0359
26202W        W43049  17.039  16.447   3.078  0.1096 -0.2735 -0.3489
26203W        W43050   3.834  10.182  13.985 -0.0326  0.1247  0.1015
26204W        W43051   5.429   5.189   0.836 -0.1286  0.1689  0.0230
26205W        W43052  15.311  12.684   4.281 -0.0443  0.0736 -0.0197
26206W        W43053  16.323  12.520  14.775  0.1982 -0.2396 -0.1743
26207W        W43054  12.092  17.668   0.525 -0.4488  0.2700  0.1734
26208W        W43055  10.732   3.311  13.959  0.0187 -0.1097  0.1196
26209W        W43056  10.532   0.252   2.591  0.0651 -0.0548  0.1395
26210W        W43057   2.285   3.207  11.950  0.1944 -0.2100  0.0147
26211W        W43058   2.099   3.154  16.408 -0.0296  0.1153 -0.1026
26212W        W43059  16.492   8.678   4.317 -0.1904 -0.3188  0.1762
26213W        W43060   8.717  17.242   5.483  0.0206  0.0820  0.2471
26214W        W43061   6.381   5.151  11.579 -0.1104 -0.1053  0.3728
26215W        W43062   5.123   9.165   0.960 -0.1702  0.0163  0.0721
26216W        W43063   5.451  14.158  15.575  0.2001  0.1356  0.1769
26217W        W43064   6.426  11.866  13.797 -0.0678  0.1283 -0.0319
26218W        W43065   2.764   7.843   2.176 -0.0813 -0.1111 -0.2266
26219W        W43066   3.150   7.914  11.351  0.1128  0.3029  0.0253
26220W        W43067   7.049   9.067  16.604 -0.1205  0.0386  0.1167
26221W        W43068  14.428  16.993  11.800  0.0359 -0.0550  0.1432
26222W        W43069  14.714   9.786   3.499  0.3270 -0.0838 -0.1119
26223W        W43070   9.457  15.039  16.592 -0.2189  0.4088 -0.1744
26224W        W43071  13.723  13.197   5.056 -0.1725  0.1651  0.0837
26225W        W43072  15.083   5.166   2.188 -0.2775 -0.0762  0.0506
26226W        W43073  17.218   0.012   1.441 -0.0591 -0.0183 -0.1638
26227W        W43074  16.618  12.592  16.677  0.2568 -0.1580  0.1240
26228W        W43075  17.934  17.786  14.339 -0.1814  0.1784  0.0302
26229W        W43076   2.461  10.094   0.550  0.0866  0.0796  0.2147
26230W        W43077   6.144   3.892  11.862  0.1053  0.1314  0.1062
26231W        W43078   8.426  14.619   2.718  0.0879 -0.2288 -0.1272
26232W        W43079  16.902   6.633  14.199 -0.0908  0.0390  0.1123
26233W        W43080   2.031  14.145   0.282  0.0485  0.2231  0.1326
26234W        W43081  11.413   2.258   3.916  0.2281 -0.1783 -0.1211
26235W        W43082   2.365  12.468  13.839 -0.0956 -0.1353 -0.2725
26236W        W43083   0.808  13.215   0.233  0.0909 -0.3375 -0.2131
26237W        W43084   9.099   4.172  13.842  0.0898  0.0617 -0.0901
26238W        W43085   7.251   5.882   5.724 -0.2760 -0.0970  0.0851
26239W        W43086   0.424   2.053  14.521 -0.0469 -0.3383  0.2439
26240W        W43087  12.152   9.684  13.589  0.2770 -0.1615 -0.2007
26241W        W43088   2.360   6.024   2.061 -0.1861 -0.3351 -0.0688
26242W        W43089   3.146  15.090  13.025  0.1401 -0.0565  0.1279
26243W        W43090   1.818   1.796   0.591 -0.1214 -0.0384  0.1978
26244W        W43091  12.448   4.058  12.110 -0.0150  0.0933  0.0117
26245W        W43092  13.664  12.503   1.652 -0.1832 -0.0500  0.1057
26246W        W43093   6.662  13.678  11.641 -0.0637 -0.0074  0.3284
26247W        W43094  13.775   3.927   1.473 -0.0453 -0.0125  0.1117
26248W        W43095   4.623  17.485  12.509  0.0367  0.0943 -0.3046
26249W        W43096   0.366   4.686  14.821  0.1112 -0.1873 -0.1379
26250W        W43097   5.763   0.320  13.902 -0.2201 -0.0682 -0.0911
26251W        W43098   5.202  12.031   0.280 -0.1477  0.1057 -0.1715
26252W        W43099   3.471   3.868   1.764  0.0458  0.0544 -0.1035
26253W        W43100   8.913   4.800   1.569  0.3463  0.2161 -0.1579
26254W        W43101   9.205  10.633   1.337 -0.2063 -0.0416  0.3873
26255W        W43102  14.758  16.883  14.869  0.1455  0.1017 -0.2080
26256W        W43103   1.081  10.864   3.133  0.0311  0.1831 -0.0634
26257W        W43104  16.825  14.141  13.539 -0.0376  0.1071  0.2087
26258W        W43105   4.690   2.172  16.531  0.3363  0.0756  0.2640
26259W        W43106   9.532   6.946  11.668 -0.0867 -0.3534  0.2379
26260W        W43107   2.618   6.453  13.965  0.1815 -0.3282  0.0496
26261W        W43108   4.347  10.090   1.481  0.2002  0.0360 -0.2119
26262W        W43109   2.644   0.705   3.417 -0.0229 -0.1661  0.3313
26263W        W43110   3.632   9.685   4.575  0.1927  0.0115 -0.0436
26264W        W43111   6.276   2.885  12.470  0.1736  0.0810 -0.0218
26265W        W43112  17.749  17.156  11.672 -0.0089  0.0257 -0.0632
26266W        W43113   0.568   8.435   4.406 -0.0579  0.0498  0.0640
26267W        W43114  12.468  15.682  11.423  0.0301 -0.1242 -0.0380
26268W        W43115   5.189  14.799  14.578 -0.2717  0.2284 -0.0715
26269W        W43116   7.202  11.238  14.793  0.0659  0.2187 -0.1696
26270W        W43117  12.361  17.301  15.519  0.0800 -0.0217 -0.3426
26271W        W43118   6.388  11.419  14.665  0.1285  0.1104 -0.1929
26272W        W43119   8.799  15.195   0.898 -0.3432 -0.0293  0.0184
26273W        W43120  10.838  10.948   4.334  0.2295 -0.3191  0.4893
26274W        W43121  14.244   3.733  13.746  0.2131  0.1335  0.0827
26275W        W43122  11.320   1.353  16.311  0.3731  0.3225  0.3644
26276W        W43123   8.371   2.698  11.727  0.1234  0.1530 -0.0013
26277W        W43124   1.787   9.339  12.581 -0.0264  0.1474 -0.0820
26278W        W43125   6.978   1.558   1.677  0.0936  0.2802 -0.2488
26279W        W43126   4.104  14.987  14.631  0.1506  0.1994  0.1471
26280W        W43127   7.439  11.955   0.781  0.0952  0.0407  0.1199
26281W        W43128  17.922  15.098  12.138  0.3170 -0.1171 -0.0122
26282W        W43129   0.130   1.026   3.660 -0.1388 -0.2334  0.1053
26283W        W43130  14.729   3.686   4.139  0.3204  0.1183 -0.3147
26284W        W43131  10.685  16.600   5.394  0.0279  0.1357 -0.1561
26285W        W43132  14.834   6.664   4.974 -0.0961 -0.1450  0.5064
26286W        W43133   7.731   0.837  15.281 -0.1372 -0.2335  0.0391
26287W        W43134  12.239   8.445   6.393 -0.1194  0.0958 -0.2330
26288W        W43135  12.604  15.462   0.842 -0.0740  0.3377 -0.2321
26289W        W43136  10.178   9.654  13.139  0.0048  0.4581 -0.1225
26290W        W43137  12.354  11.867  13.628  0.0151 -0.3045 -0.1681
26291W        W43138   1.330   6.694  11.677 -0.2595 -0.2249 -0.2859
26292W        W43139  14.501   1.471   3.680 -0.0569  0.0463  0.0445
26293W        W43140   2.514   9.422  12.817 -0.1604 -0.0025  0.2705
26294W        W43141   5.035   3.745  10.492 -0.1295 -0.1058  0.0232
26295W        W43142   6.294   3.891   1.619  0.0755  0.0572 -0.3345
26296W        W43143  12.609  17.085  10.699 -0.1838 -0.1679 -0.1112
26297W        W43144  10.233   0.269  14.994  0.0359  0.2183  0.2965
26298W        W43145   8.498  11.521  14.206 -0.1596 -0.0450 -0.1746
26299W        W43146  15.895   0.573   4.248  0.0674 -0.6880  0.0776
26300W        W43147   0.492   9.592   1.092  0.2081  0.3069  0.0682
26301W        W43148  17.770  13.591   4.028 -0.0635  0.0371 -0.0799
26302W        W43149   4.371  13.719   0.284 -0.3006  0.0756  0.3226
26303W        W43150   4.380   6.307   1.307  0.0187  0.2834 -0.0152
26304W        W43151   2.642   1.729  15.227 -0.0396 -0.0357  0.2860
26305W        W43152  15.299   3.244  11.651  0.1164  0.0871 -0.0307
26306W        W43153   5.825  10.092   4.493 -0.0291 -0.3003  0.1524
26307W        W43154   0.781   3.247  12.410 -0.0320  0.0331  0.2409
26308W        W43155   7.541   5.224  14.945 -0.0794  0.1925  0.0791
26309W        W43156  12.051   3.913  14.811 -0.0755 -0.0458 -0.1481
26310W        W43157  17.443   9.245  15.264 -0.0275  0.1787  0.0506
26311W        W43158  11.164   7.040  12.048  0.3670 -0.2978 -0.0616
26312W        W43159   1.855   1.611   5.363  0.2148 -0.2399 -0.0678
26313W        W43160  12.477   7.678  12.202 -0.0325 -0.3459 -0.0243
26314W        W43161  11.278  16.084  16.250 -0.0497 -0.0396  0.2514
26315W        W43162   6.039  13.125  12.331  0.0365  0.1397 -0.0027
26316W        W43163   3.788  17.337  12.645 -0.1821  0.0730 -0.0008
26317W        W43164   2.843  11.799  15.107 -0.0990 -0.0962  0.0182
26318W        W43165  17.477   7.863  16.552 -0.0361  0.1826  0.0807
26319W        W43166   0.807   8.159  12.614  0.0286  0.2050 -0.0591
26320W        W43167  14.255   2.087  11.771  0.1026 -0.2580 -0.0773
26321W        W43168   2.335  16.464  15.732 -0.0423  0.2302 -0.3034
26322W        W43169   8.677   7.891  13.532 -0.0708  0.0738 -0.4034
26323W        W43170   9.949   9.461   0.763  0.0143  0.3342  0.2653
26324W        W43171   1.606   1.631  13.645 -0.0068 -0.1374  0.2136
26325W        W43172   2.571   9.565   1.232  0.2729  0.2804  0.0352
26326W        W43173   9.741  12.565   4.456  0.1549 -0.0108  0.1975
26327W        W43174   1.792  15.753   0.526 -0.1575  0.0026  0.2719
26328W        W43175  14.551   1.841  12.468 -0.1914  0.0090  0.0400
26329W        W43176  15.718   7.160  14.959  0.3655 -0.0846  0.0850
26330W        W43177  15.341  10.995   4.979 -0.3652 -0.1993 -0.2569
26331W        W43178   0.825   2.575   0.440 -0.1229 -0.0132 -0.2229
26332W        W43179  14.702   7.310   5.468 -0.0697 -0.2094 -0.2011
26333W        W43180  16.007   7.459   2.798 -0.2236 -0.0380 -0.1124
26334W        W43181   7.085   9.657   3.272  0.0644  0.0358  0.1304
26335W        W43182   5.475   8.710   1.836  0.0092 -0.0937  0.0599
26336W        W43183   0.989  16.898   2.075  0.1866 -0.1246  0.2151
26337W        W43184  15.308   2.977  12.865 -0.2586  0.3657 -0.3042
26338W        W43185  12.650   3.563   3.592 -0.0339  0.0179  0.1600
26339W        W43186  13.671  12.689  12.119  0.1344 -0.0051  0.1788
26340W        W43187   3.893  14.364   2.380  0.0702 -0.1721 -0.0372
26341W        W43188  12.801   9.536  15.945  0.3168  0.0392 -0.0606
26342W        W43189  13.894   9.259   2.556 -0.2791  0.1120 -0.0609
26343W        W43190   2.784  14.045   4.591  0.3754  0.1536  0.0668
26344W        W43191   0.866  12.811   4.221 -0.0012  0.0256  0.3845
26345W        W43192  16.718  12.342   4.563  0.0592 -0.1228  0.0560
26346W        W43193   7.293   3.683   3.163  0.0649  0.2582 -0.2103
26347W        W43194  14.047   1.106  14.504  0.2913  0.1316  0.1343
26348W        W43195   0.030   7.890  12.207 -0.1594  0.0085  0.0317
26349W        W43196   8.905  13.894  14.513  0.1179  0.0913 -0.0126
26350W        W43197  17.453  16.983   2.524 -0.2180  0.0493 -0.0700
26351W        W43198  14.484  11.328  15.015  0.1293  0.2210  0.2061
26352W        W43199   1.415   2.472  14.794  0.0861 -0.0940  0.0299
26353W        W43200   7.575  16.482  11.300  0.1049  0.1188  0.1038
26354W        W43201  10.867  17.220   0.039 -0.2142 -0.3228  0.0180
26355W        W43202  12.737   4.368  15.349  0.1603  0.2528 -0.0387
26356W        W43203   0.147  13.377   3.887  0.0219 -0.2874  0.4991
26357W        W43204   1.304   5.666  13.540  0.0557  0.0937 -0.0224
26358W        W43205   5.599   7.713  14.004 -0.1541  0.0267  0.1851
26359W        W43206   9.948  16.145  13.074  0.2969  0.0242  0.2387
26360W        W43207   2.015   1.503   4.369  0.0424 -0.1443 -0.1510
26361W        W43208   1.278  17.132  12.370  0.2575  0.0540  0.0437
26362W        W43209   9.456  11.599   0.010  0.1874  0.1002 -0.4759
26363W        W43210   9.748   4.755  14.125 -0.0105  0.0444  0.3274
26364W        W43211   1.746   2.220   3.358 -0.0197 -0.0795 -0.1237
26365W        W43212  15.140   4.079   2.414 -0.1443  0.1797 -0.0733
26366W        W43213   2.523  12.226   1.300 -0.0022  0.0366 -0.1561
26367W        W43214  11.457   6.886   1.379  0.0826 -0.0301  0.1275
26368W        W43215  13.059   3.901  14.683 -0.2058 -0.1066 -0.0602
26369W        W43216   7.937   2.786  15.408  0.0747  0.1079  0.0233
26370W        W43217  14.209  16.687  16.547  0.0254  0.1185  0.1744
26371W        W43218  15.234  13.121  12.997 -0.0859 -0.1004 -0.1744
26372W        W43219  10.293  10.002  14.873 -0.1820  0.3011 -0.0950
26373W        W43220   0.365   1.598   5.168 -0.1865  0.0308 -0.1051
26374W        W43221  12.956   9.582   4.928  0.1527 -0.3556  0.1323
26375W        W43222   8.217   7.828  13.365 -0.1340  0.1237 -0.1807
26376W        W43223   9.391   3.436  13.220 -0.0942 -0.0843  0.2325
26377W        W43224   3.674   1.751  11.291  0.1999  0.2531  0.4496
26378W        W43225   9.091   8.763   0.155  0.1813  0.2362  0.1009
26379W        W43226  10.434  15.864  16.501  0.0553  0.0671 -0.0255
26380W        W43227  11.101   5.835   5.003 -0.4267  0.1797 -0.2734
26381W        W43228  13.937   1.985   0.248 -0.0797 -0.2121 -0.0227
26382W        W43229   7.932  14.112  15.444 -0.1602 -0.2507  0.1159
26383W        W43230  11.356   3.921   0.187 -0.0760 -0.2842  0.3163
26384W        W43231   6.424   6.136   3.238 -0.3153  0.1207 -0.0707
26385W        W43232   1.098  14.247   1.537 -0.0784  0.0518  0.1907
26386W        W43233   2.406  13.670  16.209 -0.1173  0.2063  0.2874
26387W        W43234  13.828   8.662   1.754  0.2586 -0.2497  0.1814
26388W        W43235   0.948  12.327  12.158 -0.0212  0.0465  0.1249
26389W        W43236   1.672   7.090   2.346 -0.1509  0.0931 -0.2411
26390W        W43237   9.856  16.420   5.635 -0.3221 -0.1288  0.2829
26391W        W43238   6.665   9.975  15.626  0.2892  0.1216  0.2477
26392W        W43239   3.679  15.603  16.606  0.3410 -0.0994  0.2001
26393W        W43240   6.755  15.801  12.298 -0.0630  0.1066 -0.0760
26394W        W43241   5.338   2.588  13.872  0.0027  0.1040  0.0017
26395W        W43242   7.497   7.306  14.931  0.0017 -0.0570 -0.0848
26396W        W43243   7.826   6.951   2.438 -0.1957 -0.1492 -0.2419
26397W        W43244   1.630  16.758  13.951  0.2606  0.0823 -0.2611
26398W        W43245  15.701  10.652   2.792 -0.2140 -0.0757  0.1818
26399W        W43246  14.494   1.181  11.462  0.0283  0.4099 -0.3423
26400W        W43247  10.842  16.747   4.186  0.3417 -0.3585  0.3650
26401W        W43248   9.206  10.091   2.528 -0.1988 -0.0275 -0.0564
26402W        W43249  11.758  15.719  16.618  0.0740 -0.1589  0.0367
26403W        W43250   2.138  14.153  14.466  0.0297 -0.0039 -0.2505
26404W        W43251  10.331   3.475   3.934  0.0162 -0.2422 -0.1355
26405W        W43252   0.740  16.854   3.645 -0.3335  0.2445 -0.1315
26406W        W43253  12.480   6.452   4.162  0.0984 -0.0482  0.1274
26407W        W43254   2.284  13.651  15.314 -0.1432 -0.1492 -0.1329
26408W        W43255   0.891  11.370  11.850 -0.0977 -0.0102  0.1066
26409W        W43256   5.791  17.451  14.425 -0.3061  0.0725 -0.1561
26410W        W43257   4.249  12.844  15.206 -0.2003 -0.0849 -0.2008
26411W        W43258  13.540  16.866   1.205 -0.1940 -0.0888  0.0601
26412W        W43259   1.899  13.386  12.908  0.2055 -0.2176 -0.2534
26413W        W43260  16.580  16.388  13.076 -0.1538 -0.1530 -0.0043
26414W        W43261  11.835   1.579  13.418 -0.0712  0.1259  0.0499
26415W        W43262  17.290  15.705  12.583  0.0184 -0.0921  0.0121
26416W        W43263  15.434  12.371  11.581 -0.4133 -0.2135  0.1283
26417W        W43264  10.391  10.337  14.346  0.1192 -0.0234 -0.1064
26418W        W43265   3.677  13.137   2.925  0.0335 -0.2558 -0.0031
26419W        W43266   9.985  12.255  13.831 -0.1117 -0.0826  0.0376
26420W        W43267  11.135  16.555   3.839  0.4103  0.0256 -0.0857
26421W        W43268   5.598  10.937   3.964  0.1532 -0.1444  0.0320
26422W        W43269  14.781  13.774   2.084 -0.0261 -0.0610 -0.0181
26423W        W43270   1.481   1.220  16.014 -0.1879 -0.1911  0.1122
26424W        W43271  14.790   5.015   5.500  0.0594 -0.0891  0.2312
26425W        W43272   1.694  12.196  14.367 -0.0095  0.1768  0.0829
26426W        W43273  13.096  16.652   2.331 -0.3970 -0.0199  0.3033
26427W        W43274   6.427   5.972  12.795 -0.0230 -0.0517  0.1107
26428W        W43275  14.151   8.182   2.061  0.1208 -0.0272  0.1169
26429W        W43276   9.990   0.836   2.094 -0.0969  0.1908  0.1357
26430W        W43277  13.142  15.339  13.778 -0.2513 -0.0756 -0.3635
26431W        W43278  13.088  16.544   2.902 -0.0282  0.1626 -0.1968
26432W        W43279  12.220  16.834   0.068 -0.0254  0.1630 -0.2669
26433W        W43280  11.802  10.869  16.107 -0.0560 -0.0146 -0.1359
26434W        W43281   3.768  15.825   0.673 -0.3908  0.0571 -0.2128
26435W        W43282  16.177  11.161  13.290 -0.1886 -0.2423 -0.0656
26436W        W43283  11.429   4.017  11.940  0.2082 -0.3168 -0.0846
26437W        W43284  12.448   2.983  13.595 -0.0336  0.0473 -0.2193
26438W        W43285   2.943   9.254  14.011 -0.0320  0.0188 -0.2276
26439W        W43286   4.860  13.491  13.019 -0.0809  0.0400  0.1600
26440W        W43287   4.249  17.419  13.906 -0.1109  0.0659 -0.2528
26441W        W43288  10.321   3.714   3.065 -0.1857  0.0828 -0.1388
26442W        W43289  16.339  16.806  15.245 -0.0328  0.0890  0.3958
26443W        W43290   2.846  10.052   2.597  0.1000  0.0719 -0.2949
26444W        W43291  17.665  15.767  14.581 -0.1381  0.2417 -0.1898
26445W        W43292   7.839  12.007  14.911 -0.0761 -0.3268  0.1762
26446W        W43293  16.390  15.948   1.883  0.0593 -0.0128  0.0463
26447W        W43294  14.948   7.854  14.918  0.2786  0.0966  0.0436
26448W        W43295   1.864   6.822   0.072  0.0570 -0.0931  0.1512
26449W        W43296  14.396  17.862   5.011 -0.1236 -0.0164 -0.5290
26450W        W43297   1.890   8.224   4.052  0.1556 -0.2574 -0.2161
26451W        W43298  17.648   9.070   0.484 -0.0122 -0.1942 -0.1556
26452W        W43299   1.245   3.647  14.467  0.0763 -0.0511 -0.3073
26453W        W43300   2.217  10.721   2.363 -0.0129 -0.0548  0.0475
26454W        W43301  17.839  13.545   2.389  0.0571 -0.1058 -0.0243
26455W        W43302   4.748   7.629   1.466 -0.2027  0.1509 -0.0157
26456W        W43303  11.900   8.612   5.481  0.2070 -0.1859  0.0286
26457W        W43304   4.312  16.328  13.078 -0.1133 -0.1060 -0.2493
26458W        W43305  15.154  13.973   0.297  0.0944  0.2296  0.0288
26459W        W43306   8.803   3.559   3.011 -0.0626 -0.2425  0.1788
26460W        W43307  11.678   2.944   0.015 -0.0163  0.1563 -0.1302
26461W        W43308   5.549  15.593   5.850  0.0240 -0.1148 -0.2465
26462W        W43309  15.946  15.509  15.006 -0.0495 -0.1217 -0.1379
26463W        W43310  10.994  16.976   5.407 -0.1573 -0.2426 -0.2089
26464W        W43311   9.706   9.576   1.835  0.3545  0.0209 -0.3330
26465W        W43312  15.292  11.067  13.706 -0.1666  0.0773 -0.0325
26466W        W43313  13.637   7.510  13.016 -0.2317  0.0822 -0.0224
26467W        W43314   6.217  16.661   3.478 -0.0524  0.1502  0.0498
26468W        W43315  10.725   8.299  16.376 -0.1450  0.0817  0.2799
26469W        W43316  13.659   2.897  15.958  0.2179  0.1330 -0.3070
26470W        W43317   0.533  12.746   2.883 -0.1142 -0.0228  0.0640
26471W        W43318   8.892  11.787  14.153  0.0005 -0.0831  0.0181
26472W        W43319  15.725  16.512   2.232 -0.1473 -0.0177 -0.2097
26473W        W43320  13.609   7.046   1.262  0.2245  0.3563 -0.3821
26474W        W43321  13.751  10.916   0.551 -0.2547  0.2150 -0.3929
26475W        W43322   6.436   1.597  16.264  0.1691 -0.0213 -0.3105
26476W        W43323   5.393  15.626   5.339 -0.0909 -0.1645 -0.2200
26477W        W43324   1.827   9.415   1.986 -0.0669 -0.3199 -0.0850
26478W        W43325   6.023  10.660   3.138 -0.3027 -0.1967  0.1648
26479W        W43326  16.962   6.868   5.154  0.1667 -0.1223 -0.1812
26480W        W43327  13.145  12.650  12.909  0.0188  0.1620 -0.4045
26481W        W43328   6.213  11.486   3.569  0.0457  0.2396 -0.1444
26482W        W43329  16.121  17.372  11.400 -0.2596  0.0734  0.2916
26483W        W43330   3.326  17.739  13.338 -0.1187 -0.0444 -0.2428
26484W        W43331  17.218   7.724   0.815  0.2635 -0.1436  0.0581
26485W        W43332   1.330  15.877  14.887 -0.1666  0.2574 -0.1421
26486W        W43333  17.705  12.876  16.425  0.2291 -0.0051  0.1434
26487W        W43334   7.142   5.583   1.865 -0.1028 -0.0052  0.4607
26488W        W43335   6.412  16.936   4.731 -0.1266 -0.3253 -0.2060
26489W        W43336   0.125   1.923  12.574  0.2260  0.0629  0.2055
26490W        W43337   7.595   9.940  13.899 -0.0101 -0.1168  0.1182
26491W        W43338  13.061   9.319  12.802 -0.1031 -0.1544  0.2499
26492W        W43339  18.017   2.078   2.921  0.2263  0.0714 -0.2403
26493W        W43340  10.353  18.035  11.954 -0.0495  0.1202  0.0659
26494W        W43341  15.844   6.161   2.779 -0.0846 -0.0200  0.4321
26495W        W43342   2.944   0.426   5.138  0.1452 -0.0288  0.1317
26496W        W43343  14.742   4.933  14.031 -0.0901  0.1056 -0.0042
26497W        W43344  14.125  11.498   4.707 -0.1295  0.5311  0.1510
26498W        W43345   8.938  16.038  12.906 -0.1095 -0.2088  0.1610
26499W        W43346   2.807   3.411   5.704 -0.0219  0.1443  0.2113
26500W        W43347  15.581  17.759   2.610 -0.1648 -0.0732  0.0766
26501W        W43348  14.959   3.351   0.178 -0.0894  0.3675 -0.1825
26502W        W43349  14.576  14.581  15.664  0.2049  0.0480 -0.0122
26503W        W43350  17.811   3.971   4.300 -0.0853  0.0643  0.0221
26504W        W43351   7.807   6.948   0.645  0.0251 -0.2146  0.0076
26505W        W43352  11.607   7.949  14.071  0.1458 -0.0194 -0.1997
26506W        W43353  16.720  11.965   1.040 -0.0523  0.0327  0.1480
26507W        W43354  12.885   6.162  16.287  0.1221 -0.0112  0.0355
26508W        W43355  12.513   2.851  13.115 -0.0961  0.0561  0.1150
26509W        W43356   1.140   4.121  13.452  0.0280 -0.1335  0.0264
26510W        W43357  15.817   4.817  16.185  0.0291 -0.1100 -0.4206
26511W        W43358   8.644  17.407   3.670  0.0401  0.2624  0.1883
26512W        W43359   2.467  10.238   2.328  0.0960 -0.0736 -0.0886
26513W        W43360  15.570  10.665   3.690 -0.0958  0.1120 -0.0658
26514W        W43361  11.046   2.375  15.383  0.0916  0.0530  0.4074
26515W        W43362   9.841   3.771   4.604  0.1154 -0.0522  0.2884
26516W        W43363   6.137  14.958  14.702  0.2741  0.2899 -0.2272
26517W        W43364  15.684   2.628  16.172  0.0551  0.1460 -0.2110
26518W        W43365  16.370   9.897   5.774 -0.2338  0.1581  0.0496
26519W        W43366   5.235  17.629   0.189  0.0609 -0.1122 -0.3926
26520W        W43367   8.135  10.005  11.910  0.1066 -0.2921  0.0582
26521W        W43368   2.185  12.760   1.522  0.0522  0.0641 -0.1160
26522W        W43369   7.230  14.122  12.711  0.0792  0.3961  0.0120
26523W        W43370  13.877   4.764   4.998  0.2870 -0.0812 -0.1302
26524W        W43371  14.543  17.287  12.285  0.0860  0.0766 -0.1177
26525W        W43372   1.278  10.601   4.954 -0.1008 -0.1651  0.0622
26526W        W43373   5.375   7.533  16.232  0.1138  0.2684 -0.2343
26527W        W43374   5.330   9.553  15.631  0.5237 -0.4154 -0.0788
26528W        W43375  10.220  12.208  15.740 -0.0889 -0.0347 -0.2726
26529W        W43376  13.810  16.628   0.289 -0.0442  0.0719  0.0942
26530W        W43377  13.594   7.795  12.611  0.0035  0.1569  0.2824
26531W        W43378   6.698   6.153   2.783  0.2475  0.0732  0.2812
26532W        W43379  16.739   8.390   5.635  0.0059 -0.0101 -0.0856
26533W        W43380   2.118  14.479   1.801 -0.3006 -0.3238  0.1273
26534W        W43381  15.334   6.033   2.419  0.0800  0.2856  0.0115
26535W        W43382  13.719   4.673  15.497  0.2103  0.0777 -0.0906
26536W        W43383   7.821   4.508   2.711 -0.2529  0.0112  0.1369
26537W        W43384  10.828   1.519  15.818 -0.0298  0.0361  0.1660
26538W        W43385   7.059   2.441   2.646 -0.3137  0.0555 -0.1108
26539W        W43386  17.271   3.162  13.759  0.3079 -0.0759  0.0487
26540W        W43387   2.095   0.211   3.974 -0.0520  0.2902 -0.1440
26541W        W43388  13.960  13.861   2.740  0.1914  0.0314 -0.2181
26542W        W43389  14.189  16.691  11.333  0.0770  0.0088 -0.2001
26543W        W43390   2.056  15.639  11.161  0.4477  0.2657  0.1332
26544W        W43391   8.572   2.084  11.497 -0.0506 -0.1614  0.0815
26545W        W43392  17.997   1.080   0.798 -0.0055 -0.0450 -0.1193
26546W        W43393   3.731   4.816  12.912 -0.0292  0.0474  0.2910
26547W        W43394  16.281   8.767   1.039 -0.0897  0.1657 -0.1487
26548W        W43395   3.196  13.964   2.997 -0.0559  0.1163  0.0203
26549W        W43396  14.706   1.888  13.912  0.2505  0.1931 -0.0912
26550W        W43397  17.922   9.964   3.890 -0.0833 -0.2007  0.1103
26551W        W43398   4.591  17.421  14.312 -0.5573  0.0148  0.1435
26552W        W43399   6.322   8.195   1.963 -0.0946 -0.3470  0.0760
26553W        W43400   9.456   4.274  12.807 -0.0792 -0.4494 -0.1406
26554W        W43401  15.000  13.200  11.302 -0.2857  0.0555 -0.3606
26555W        W43402   2.463  14.984   4.981  0.3061 -0.4397 -0.4578
26556W        W43403  17.963  13.907  15.493  0.2498 -0.0820  0.1199
26557W        W43404  11.398   3.291  16.554  0.1272 -0.0069 -0.0755
26558W        W43405   7.266   7.645  13.510 -0.0522 -0.3038 -0.0021
26559W        W43406  12.303   7.455   5.182 -0.1479  0.0496 -0.0355
26560W        W43407  18.027   3.546  12.133 -0.2317 -0.1411 -0.0596
26561W        W43408   3.482  10.309   4.549  0.1812 -0.0062 -0.0422
26562W        W43409   5.943  11.591   5.300 -0.3489 -0.6568  0.1144
26563W        W43410   7.473  15.689  15.899  0.1313  0.0124 -0.1800
26564W        W43411   2.258  13.186  16.053  0.1106  0.1071 -0.1660
26565W        W43412   4.796   4.044   3.755  0.0041  0.1224  0.0342
26566W        W43413  11.570   6.406  12.962  0.0184 -0.0877 -0.0028
26567W        W43414   9.348   1.025   2.732  0.0504  0.0722  0.1894
26568W        W43415   9.752   9.560   3.804  0.2205 -0.1770  0.1464
26569W        W43416  15.342  17.021   2.965  0.1176  0.1895  0.2800
26570W        W43417  13.882   3.886   5.409  0.3415 -0.0306 -0.2539
26571W        W43418   4.722   5.820  13.025  0.2227  0.1384 -0.2838
26572W        W43419  13.492   9.450  11.984 -0.2017 -0.3474  0.1848
26573W        W43420  17.139   9.043  13.627  0.2283  0.0415  0.0341
26574W        W43421  12.791  14.985  13.676 -0.0597  0.1934 -0.3906
26575W        W43422  11.820   1.395   0.973 -0.0277  0.0049  0.4318
26576W        W43423  10.891  15.680  16.440 -0.0740 -0.0713 -0.0800
26577W        W43424   5.754  10.019   2.790 -0.4501 -0.0151  0.1478
26578W        W43425   8.494  17.776  16.549 -0.0250 -0.1104  0.0673
26579W        W43426  15.794   6.046   4.831 -0.1159  0.2757 -0.0325
26580W        W43427   6.559  10.352   1.863 -0.1535 -0.2319  0.0336
26581W        W43428   9.634   7.171   0.798 -0.0331 -0.0248 -0.1998
26582W        W43429  11.847   9.003   5.913 -0.3284 -0.0006  0.1755
26583W        W43430  14.975  17.139  15.231 -0.0557  0.1964 -0.1524
26584W        W43431   4.755   9.270  15.664 -0.1826  0.5220  0.0472
26585W        W43432   4.789   9.347   3.903 -0.1227 -0.2697  0.2750
26586W        W43433  11.823  15.876   3.786  0.0461  0.0577  0.0326
26587W        W43434  17.786   5.785   2.513 -0.2173  0.2582  0.0173
26588W        W43435  13.284   5.458   4.657  0.2045  0.2766 -0.2635
26589W        W43436   4.563  14.192  13.561 -0.1393  0.0166 -0.1670
26590W        W43437  17.702   0.317  12.834  0.1536  0.1771 -0.2288
26591W        W43438  11.104   6.839   0.850 -0.0341  0.1290  0.0651
26592W        W43439   0.249  13.255  13.835 -0.0693 -0.1036  0.0676
26593W        W43440   8.859   4.385   1.288 -0.1345  0.0298 -0.0270
26594W        W43441  10.896  16.498  16.202 -0.4218  0.1255  0.1706
26595W        W43442  11.022  15.695  15.328 -0.1110  0.1154  0.0272
26596W        W43443  13.929  15.972  14.538 -0.1152 -0.1260  0.1013
26597W        W43444   5.169   1.540  14.031  0.1059 -0.0669 -0.2749
26598W        W43445   9.212  15.552   1.676 -0.2400 -0.1345  0.1827
26599W        W43446   0.694   6.494   4.898  0.2687 -0.2373  0.0879
26600W        W43447   8.358  15.341  14.793  0.1558 -0.0715  0.1678
26601W        W43448   9.289   7.572  15.162  0.0729  0.3824  0.3017
26602W        W43449  13.053   2.678   1.756 -0.0992 -0.3324  0.0145
26603W        W43450   5.036   0.952  13.842  0.0058  0.1223 -0.0951
26604W        W43451   2.076   4.063   1.241  0.0417  0.2422 -0.3803
26605W        W43452  17.394  13.774   0.306  0.1892  0.1102  0.1907
26606W        W43453   7.635  13.034  14.828  0.2182  0.0761  0.0823
26607W        W43454  12.478  16.750   4.477  0.3206  0.2223  0.2625
26608W        W43455   7.943  15.870  12.783 -0.0096 -0.2236  0.1502
26609W        W43456  15.200   2.658  15.875  0.3534  0.1364  0.2137
26610W        W43457   0.611   9.640   1.571 -0.0405 -0.1595  0.2691
26611W        W43458  15.092   6.771  15.982 -0.0662  0.1414 -0.2065
26612W        W43459   3.945  16.488  16.357  0.1022 -0.3168 -0.0846
26613W        W43460   5.238   3.917  16.457 -0.0165 -0.0138  0.0773
26614W        W43461   0.376   0.178   0.376 -0.1306  0.1931  0.0425
26615W        W43462  13.838  11.643  15.692  0.0043 -0.2492  0.0551
26616W        W43463  15.195   5.137   4.084 -0.0825  0.2800  0.3752
26617W        W43464   6.858  17.977  15.845 -0.2603  0.0668  0.0747
26618W        W43465  15.291   1.219   2.841  0.1022 -0.3141 -0.2651
26619W        W43466   8.902   0.089  14.706  0.2169  0.1469 -0.1893
26620W        W43467  17.294   8.745   3.044 -0.1630 -0.1562 -0.0438
26621W        W43468  11.355   6.740  15.140  0.2651  0.0434 -0.1664
26622W        W43469   9.187   4.606   2.555  0.3601  0.0591 -0.1235
26623W        W43470   8.724  14.589  12.104  0.0986  0.3586 -0.0982
26624W        W43471  17.777  10.392   4.513 -0.0927 -0.4014 -0.3286
26625W        W43472   3.402  10.383   2.555  0.1330  0.1771  0.0751
26626W        W43473   7.557   0.798   3.880 -0.2745  0.0955  0.0874
26627W        W43474   4.709   6.574   5.304 -0.0562 -0.0221  0.0522
26628W        W43475  13.563   6.396  11.586 -0.1433 -0.3338 -0.1826
26629W        W43476  11.543  15.976   5.916 -0.1972  0.0180  0.1754
26630W        W43477  13.590  12.731  14.470 -0.0719  0.2796 -0.2170
26631W        W43478  12.453   2.362  11.734  0.0019  0.0863  0.0504
26632W        W43479   4.520   8.871   3.112 -0.0870 -0.1651  0.0868
26633W        W43480   0.327   1.145   3.038  0.2536  0.1584  0.2273
26634W        W43481   3.698   4.382  11.419  0.0962 -0.4490 -0.1068
26635W        W43482  17.527  15.101  11.830 -0.0563 -0.0395 -0.0498
26636W        W43483  13.739   8.131   1.691 -0.0261  0.1784 -0.1517
26637W        W43484   7.170  17.705   3.868  0.0088 -0.0152 -0.3459
26638W        W43485   9.637   8.202  16.351 -0.1660 -0.0010 -0.1083
26639W        W43486  10.895   4.066  11.775  0.1711  0.1001 -0.0564
26640W        W43487  13.841   7.197   4.849  0.0630 -0.2040  0.2342
26641W        W43488   3.576  14.471   6.273  0.0776  0.1008 -0.1073
26642W        W43489  10.504  15.631   4.476 -0.3447 -0.0362  0.1014
26643W        W43490  16.561   5.740  12.493 -0.0464 -0.2203  0.1831
26644W        W43491  10.125  15.073   2.536 -0.3532  0.0336  0.0607
26645W        W43492  17.890   1.283   2.549  0.1223  0.4206 -0.2089
26646W        W43493  12.271  15.090  12.122  0.4104  0.1570 -0.0148
26647W        W43494   5.051   0.371   4.632 -0.0814 -0.1277  0.1896
26648W        W43495   1.724  11.876   5.538 -0.1940 -0.1540 -0.0687
26649W        W43496  12.428   6.839   2.050  0.2100  0.1094 -0.1971
26650W        W43497   1.029   8.968  12.338 -0.2038  0.1087 -0.0579
26651W        W43498   6.583  17.336  16.600  0.3485 -0.2417 -0.0269
26652W        W43499   0.284  10.036   0.169 -0.1432  0.2047 -0.2516
26653W        W43500  15.251   9.363   2.338  0.0431  0.0874  0.1391
26654W        W43501   2.677  10.712   0.758  0.0365  0.1867 -0.0087
26655W        W43502  14.702  16.248  14.981 -0.0788 -0.0442 -0.1468
26656W        W43503   7.404  14.774  16.655  0.4673 -0.0991  0.0127
26657W        W43504  13.417  14.898  12.581  0.1006 -0.0759 -0.0997
26658W        W43505   2.710  10.706   2.537 -0.2724 -0.1456 -0.0155
26659W        W43506   6.617   3.786  11.944 -0.1001 -0.0780 -0.1785
26660W        W43507   0.922   9.980   3.881  0.2935 -0.2058 -0.2909
26661W        W43508  14.314  11.894  15.786 -0.1181  0.3515 -0.1768
26662W        W43509   8.656   6.010  14.758  0.2563  0.3185 -0.2128
26663W        W43510   6.241  11.703   0.490 -0.0587  0.0180  0.1207
26664W        W43511   3.872   9.521   2.168 -0.3132  0.0891  0.1872
26665W        W43512   5.449   0.682   3.078  0.1314 -0.0487 -0.0934
26666W        W43513  16.711   3.023   4.467 -0.1365 -0.1693 -0.0998
26667W        W43514  17.427   6.663  15.071  0.3370 -0.0460  0.1119
26668W        W43515   6.670  10.135  14.234 -0.0353 -0.1487  0.0249
26669W        W43516   5.324  13.179  14.779 -0.2325 -0.1983 -0.1108
26670W        W43517   3.921  17.671  13.601  0.3753 -0.2952  0.0033
26671W        W43518  14.031   4.310   5.207  0.0410 -0.0466 -0.0991
26672W        W43519  15.888  15.188  11.520 -0.0250  0.1218 -0.0864
26673W        W43520  12.821   6.175   3.352 -0.2118 -0.4485 -0.2347
26674W        W43521   4.111   1.693   3.843 -0.0624  0.1892  0.0723
26675W        W43522   2.016   2.730  12.702 -0.1253 -0.0172 -0.0237
26676W        W43523   8.437   1.659  14.445  0.1162 -0.2233  0.1706
26677W        W43524   8.530  15.944   3.805 -0.0195 -0.0812  0.1730
26678W        W43525  16.368  16.760  12.723  0.2395  0.0807 -0.3202
26679W        W43526   1.884  13.052   3.450 -0.0095  0.0309 -0.0199
26680W        W43527  13.307   0.644   3.093  0.3357  0.4800 -0.0236
26681W        W43528   6.380   5.225  16.183  0.0651 -0.1259 -0.0741
26682W        W43529  16.583   0.085   5.490 -0.1721  0.1134  0.1245
26683W        W43530  11.867   1.787   3.276 -0.1488 -0.1036 -0.0697
26684W        W43531  13.893  12.815   0.095 -0.2219  0.0527  0.2918
26685W        W43532   2.083   5.979   1.051 -0.0413 -0.2298  0.0195
26686W        W43533  12.427   5.353  15.365 -0.1054 -0.1808 -0.2866
26687W        W43534   5.420   1.644   0.391 -0.0778  0.0427  0.2584
26688W        W43535   4.401   6.204   3.184  0.5665 -0.1787 -0.0086
26689W        W43536  11.697  13.579   2.358  0.1064 -0.0767 -0.1994
26690W        W43537   4.682   4.639  16.042  0.1451 -0.1431 -0.0174
26691W        W43538  17.258  14.578  15.938  0.1177 -0.0165  0.2136
26692W        W43539   0.925   6.467  16.664 -0.0682 -0.0704 -0.1206
26693W        W43540   1.626  17.580   0.446  0.1824 -0.0134 -0.0621
26694W        W43541   0.544   9.399  15.797  0.1329  0.0007 -0.4036
26695W        W43542  12.995  13.870  16.303 -0.0618 -0.0870 -0.1988
26696W        W43543   4.669   4.206   3.313  0.2160  0.1101 -0.0225
26697W        W43544   9.508   9.914   3.338  0.2408  0.0875  0.0669
26698W        W43545   8.838   1.855   3.816 -0.1138  0.0973  0.4097
26699W        W43546   4.894   9.410  13.743 -0.0251  0.0727 -0.0112
26700W        W43547  16.902  14.937  12.578 -0.2095  0.1578  0.4063
26701W        W43548   8.253  17.911   1.218 -0.0550 -0.3749 -0.0619
26702W        W43549   8.117  14.857   1.323  0.3846 -0.1023 -0.2721
26703W        W43550   7.847   2.370  14.876  0.2016 -0.0525  0.1220
26704W        W43551   9.777  16.582   5.131  0.2568 -0.0981  0.0267
26705W        W43552   8.030   2.765   1.680  0.1558 -0.0896  0.0204
26706W        W43553   4.248  12.210   2.296 -0.1349 -0.2717  0.2190
26707W        W43554  14.322   1.381   1.529 -0.2584 -0.1210  0.0819
26708W        W43555   1.222  15.139  13.035 -0.0016 -0.0179  0.0145
26709W        W43556   7.757   2.861  14.589 -0.0693  0.1964 -0.0496
26710W        W43557   2.216   3.519   2.554  0.2250 -0.0113  0.4947
26711W        W43558   9.641  14.450  16.116 -0.1140 -0.2022 -0.1047
26712W        W43559   9.672   7.731  14.171  0.3230 -0.0147 -0.0792
26713W        W43560   7.673  13.774   5.307  0.0885 -0.0686  0.2488
26714W        W43561   7.703  16.274   1.677  0.1215 -0.1341 -0.0418
26715W        W43562   6.841   5.248   1.070  0.1281  0.0638  0.0949
26716W        W43563   6.396   6.722  16.631  0.0065 -0.0333  0.1058
26717W        W43564   5.728  17.576   3.473 -0.0439  0.1426  0.1304
26718W        W43565  13.634   5.208   5.869 -0.1273  0.2164  0.1053
26719W        W43566  10.333   8.980  15.507 -0.4071 -0.5397  0.1469
26720W        W43567  12.428  17.022  13.616 -0.0186  0.5164 -0.0368
26721W        W43568   5.007   4.493   3.819 -0.3295  0.3322  0.2109
26722W        W43569  13.700  17.552   3.899  0.0382  0.2615  0.1960
26723W        W43570  15.001   9.947   0.193 -0.1214  0.2672 -0.0932
26724W        W43571  14.544  10.128   0.201  0.0618 -0.1083  0.1545
26725W        W43572  11.585  13.101   4.402  0.5659 -0.0473 -0.3380
26726W        W43573  10.824  16.721   5.898  0.0608 -0.1184  0.1960
26727W        W43574  15.451   1.777   3.489  0.3901 -0.0976 -0.1140
26728W        W43575  12.560   5.542  14.588  0.0518 -0.0391  0.1108
26729W        W43576  15.273  14.258   5.977  0.2222  0.0648 -0.1474
26730W        W43577  12.889   7.187   0.686 -0.4238  0.1377  0.2181
26731W        W43578   2.099   3.917   3.808 -0.0512  0.1025  0.1894
26732W        W43579  16.918   2.757   4.850  0.0583 -0.0003 -0.2613
26733W        W43580   5.067  15.353  11.822 -0.3140  0.1054 -0.0737
26734W        W43581   8.308   8.982   4.127 -0.0290 -0.1796  0.3597
26735W        W43582   3.427   1.089  15.929 -0.4717 -0.2538 -0.1427
26736W        W43583  10.188   6.139  13.949 -0.0906 -0.1498 -0.0476
26737W        W43584  10.925   1.121  11.879  0.1017 -0.1664 -0.0257
26738W        W43585   6.412  13.020   0.757  0.1327 -0.0487  0.1852
26739W        W43586  13.509   1.968   1.279 -0.2503 -0.0195  0.0730
26740W        W43587  17.100  16.569   4.829  0.1753 -0.1971 -0.0537
26741W        W43588   6.944  16.775   4.332  0.0571  0.0595 -0.0182
26742W        W43589  13.463  16.587   3.219  0.1959 -0.2003  0.0701
26743W        W43590  12.382  12.031  14.556 -0.0845  0.2392  0.2443
26744W        W43591   4.015  13.663   4.166 -0.3249 -0.0670  0.2769
26745W        W43592   3.098   3.081   2.149 -0.2472 -0.2039 -0.3060
26746W        W43593   7.048   7.045   1.739  0.2266 -0.0709  0.0864
26747W        W43594  11.925   3.371   2.318  0.1481 -0.2147  0.2010
26748W        W43595  16.622   9.829  13.281 -0.2501 -0.1023  0.1506
26749W        W43596   4.688   4.368  16.424  0.2856  0.2807 -0.0070
26750W        W43597   0.719  12.260   2.869 -0.0299 -0.1455 -0.1367
26751W        W43598   8.221  11.650   2.091 -0.0026  0.1218 -0.0013
26752W        W43599   4.279   9.740  12.673  0.2115  0.0818  0.1647
26753W        W43600   9.991   5.486   2.185  0.0282  0.2197 -0.0624
26754W        W43601  11.476   0.092  15.274 -0.0752  0.0741 -0.2531
26755W        W43602   8.642  12.503  15.987  0.1670 -0.1272  0.0001
26756W        W43603   3.787  15.806   2.049  0.1033  0.1427  0.2649
26757W        W43604   6.212   1.206   1.885 -0.0744  0.2207 -0.2380
26758W        W43605  15.010  10.804   1.200 -0.3489 -0.0314 -0.0797
26759W        W43606   3.414  15.276  15.157  0.0237  0.2657  0.4179
26760W        W43607  11.969   4.638  13.565  0.2290 -0.3363  0.2519
26761W        W43608   8.485   2.001  13.468 -0.0507  0.1192  0.1696
26762W        W43609   8.557  11.641   0.353 -0.2452  0.1189 -0.2370
26763W        W43610   0.776  15.858  15.988 -0.1115  0.1535  0.1788
26764W        W43611   0.640   0.897   1.090  0.0916  0.0489  0.0247
26765W        W43612   3.289  10.128  11.726 -0.1937 -0.1616  0.1060
26766W        W43613  12.613   2.208  13.118 -0.1751  0.1161  0.2880
26767W        W43614  13.905   8.083  15.175  0.2209 -0.0020 -0.1738
26768W        W43615  17.868  11.256   3.355 -0.2315 -0.0310 -0.0354
26769W        W43616  16.318  13.825  14.858  0.0521  0.2050  0.2812
26770W        W43617  10.182  13.904   2.719  0.1516 -0.0366  0.1958
26771W        W43618  15.851  13.344   4.015  0.1627  0.3791 -0.0631
26772W        W43619   0.952  18.021  15.826  0.0423 -0.3131  0.1746
26773W        W43620   9.663   7.909   1.470  0.4038  0.0251  0.0205
26774W        W43621   6.008  15.369   0.205  0.0935 -0.1710 -0.1817
26775W        W43622   9.826  10.796  15.162 -0.2039  0.0599  0.0457
26776W        W43623  13.181  16.600  12.247 -0.0327 -0.0025  0.3531
26777W        W43624   7.985   7.270  15.043  0.0356  0.2017 -0.2617
26778W        W43625   4.018   7.153  12.498  0.0326  0.4133  0.3632
26779W        W43626  10.498  12.219  14.045  0.1093 -0.0321  0.1917
26780W        W43627   0.988   4.229   2.871  0.0108  0.1771 -0.0339
26781W        W43628   2.198  10.946   1.842 -0.0036  0.2282 -0.3037
26782W        W43629   2.267  17.878   5.460 -0.0687  0.0126  0.1685
26783W        W43630   4.738  10.302  15.800 -0.2377  0.0295 -0.1043
26784W        W43631  10.611   0.158   5.040 -0.2201 -0.1364 -0.1599
26785W        W43632  16.540  17.610  14.520 -0.0805  0.0100  0.1110
26786W        W43633   3.466  11.588   4.726 -0.0340  0.1383 -0.2395
26787W        W43634   5.589   1.867   1.587 -0.0975  0.3041  0.1549
26788W        W43635   2.987   0.225   0.454 -0.2067 -0.3374 -0.0662
26789W        W43636   4.720   5.911  15.318  0.1547  0.0303 -0.0731
26790W        W43637   6.675  10.213  16.100 -0.0698 -0.3681 -0.4111
26791W        W43638  11.407  15.448  15.620  0.1919  0.0655  0.1927
26792W        W43639   2.706   9.990  16.083  0.0217  0.2703  0.0709
26793W        W43640  10.650  18.045   2.115 -0.2277 -0.2033  0.0060
26794W        W43641   7.188   1.153   4.364  0.1881 -0.0091 -0.1741
26795W        W43642   3.661  16.651   0.102  0.0337 -0.2414 -0.2201
26796W        W43643  11.896  15.975   2.722 -0.1970  0.2915 -0.3177
26797W        W43644   2.462   7.712  15.138 -0.0363 -0.1110  0.2592
26798W        W43645  14.236   7.609  14.847  0.3343 -0.1802  0.2907
26799W        W43646  14.246   2.642   4.458 -0.0805 -0.2259 -0.2442
26800W        W43647   2.258   2.039  11.492 -0.1717 -0.1201 -0.0606
26801W        W43648   4.275   5.073   2.239  0.1347 -0.0136 -0.2589
26802W        W43649  15.176  11.237   0.964 -0.2321  0.2712 -0.4061
26803W        W43650  15.780   2.103   4.065 -0.0170  0.0569 -0.1515
26804W        W43651  14.747  16.136   1.166  0.0642 -0.0276 -0.0824
26805W        W43652   6.128  17.283   2.596  0.0470 -0.1265 -0.2853
26806W        W43653  12.210   8.328  13.775  0.1489 -0.2627 -0.1139
26807W        W43654   7.374   2.251   1.690  0.0856 -0.2349 -0.0237
26808W        W43655   2.383  17.384  15.877 -0.0860 -0.0902  0.1419
26809W        W43656   7.222   7.067   4.274 -0.2873 -0.1489  0.0746
26810W        W43657   1.270   9.369  12.740 -0.1052  0.0256 -0.0424
26811W        W43658  15.084  11.485   5.058 -0.0657  0.1598 -0.1764
26812W        W43659   0.565  14.980   5.272 -0.1653  0.0046  0.0965
26813W        W43660   3.631   8.580   1.262  0.1409 -0.1281 -0.2411
26814W        W43661   3.263  12.703   3.144  0.3461 -0.3214 -0.2015
26815W        W43662   7.026  12.182   2.626 -0.0231  0.1056  0.2809
26816W        W43663   6.297  12.486   4.747 -0.0073 -0.1503  0.3473
26817W        W43664   3.546  11.776  14.448 -0.0671  0.1370 -0.3530
26818W        W43665  14.282   5.127   3.782  0.1340  0.0907 -0.2310
26819W        W43666   6.283   1.811   0.092 -0.3088  0.1346 -0.1322
26820W        W43667   9.977   9.020  12.453  0.6276  0.1365 -0.0398
26821W        W43668  15.921   1.293  13.297 -0.0358  0.1447  0.2521
26822W        W43669  13.144   5.121   1.473  0.0430  0.0516  0.0992
26823W        W43670   6.551  10.429  15.652  0.1427  0.1615  0.1501
26824W        W43671   7.940   5.978  13.676 -0.1010  0.1273 -0.3693
26825W        W43672   5.661   4.247   0.974 -0.0243 -0.3015 -0.0157
26826W        W43673  14.333  12.644   0.537  0.1096 -0.1344 -0.2054
26827W        W43674  14.485  10.283   3.417 -0.2054  0.1970 -0.1332
26828W        W43675   0.737   4.735   2.571  0.0056 -0.2075 -0.2605
26829W        W43676   2.027   8.279  15.295 -0.1869  0.3064 -0.3304
26830W        W43677  11.851   1.382   0.327  0.1884 -0.0663  0.1741
26831W        W43678   6.187   4.024  15.212  0.3493 -0.2122  0.0060
26832W        W43679  13.307  14.717   2.437 -0.3011 -0.1700  0.2892
26833W        W43680   6.249   9.922  16.372  0.2142  0.1133  0.1442
26834W        W43681   3.681  15.284   3.228 -0.0671  0.2752  0.4049
26835W        W43682   5.389  11.794   3.474 -0.1204 -0.1699 -0.0480
26836W        W43683  13.261   6.663   2.633  0.2094  0.0398 -0.0122
26837W        W43684  12.136   8.793  13.921  0.0492  0.1596 -0.1195
26838W        W43685   3.201   1.183  15.089 -0.0062 -0.2659 -0.0471
26839W        W43686  13.675   1.700   2.300 -0.0934 -0.0405 -0.2045
26840W        W43687  13.605   0.096   1.076 -0.1921  0.2681  0.0537
26841W        W43688  10.643   0.287  12.456 -0.0221 -0.1825 -0.2057
26842W        W43689   4.362   3.341   2.554  0.0433 -0.1985 -0.2226
26843W        W43690   9.829   5.944   5.061  0.0837 -0.0864  0.0991
26844W        W43691   7.717   5.120   2.647 -0.0500 -0.1840  0.2249
26845W        W43692  17.273   1.739   1.697  0.2679  0.0675 -0.0989
26846W        W43693   3.630  16.908  14.316 -0.1355  0.2595 -0.0959
26847W        W43694   1.512   4.606   3.893  0.1902 -0.4218  0.1265
26848W        W43695   2.337   4.619  13.458 -0.1376  0.2497 -0.3068
26849W        W43696  15.378  14.638   1.041  0.1288 -0.0695  0.1005
26850W        W43697  11.017  12.931   0.379 -0.0241  0.0025 -0.1319
26851W        W43698  14.203  15.012  16.477  0.0475 -0.2894  0.0406
26852W        W43699   0.360   7.758  16.054  0.2134  0.0327  0.0692
26853W        W43700   2.162  16.684   3.760 -0.1687 -0.2393  0.0919
26854W        W43701   6.316  12.245  14.112 -0.2022 -0.1809  0.2335
26855W        W43702  10.227  10.158   4.305  0.0392 -0.1796  0.3322
26856W        W43703   2.543  13.110   4.446 -0.0749  0.0547 -0.0340
26857W        W43704   6.770   0.770  13.629 -0.1247  0.2731 -0.0805
26858W        W43705   1.250  12.053  16.633  0.1285  0.3227 -0.2722
26859W        W43706   2.657  11.228  14.383 -0.1454  0.1321 -0.1824
26860W        W43707   3.512  14.021  14.934  0.3467  0.2481 -0.0203
26861W        W43708   8.657   1.133   1.133 -0.0307  0.0117  0.1791
26862W        W43709  16.003  13.131   2.689  0.1061  0.0374  0.0145
26863W        W43710  13.248   5.772   6.330 -0.0110  0.3234 -0.0317
26864W        W43711   4.210   3.687   2.932  0.1073 -0.1773 -0.0372
26865W        W43712   9.356  13.750   4.997  0.0830  0.0629  0.3005
26866W        W43713   9.485   4.711   0.656  0.0265 -0.3227  0.3206
26867W        W43714  13.929   3.589   3.721 -0.0394  0.4364 -0.0640
26868W        W43715   9.443   7.781  16.415 -0.0767  0.1894 -0.1458
26869W        W43716   6.649   4.924   4.613  0.2682 -0.2016 -0.0406
26870W        W43717   8.372  15.868  14.688  0.0032  0.1698  0.0840
26871W        W43718  15.015  11.517  11.713  0.2493 -0.0092  0.1613
26872W        W43719  15.776   6.295  15.521 -0.2550 -0.0556  0.3836
26873W        W43720  15.164  12.712  15.420 -0.0960 -0.1723 -0.0906
26874W        W43721   4.131  16.182   3.307 -0.3065  0.1304 -0.0284
26875W        W43722   2.009   5.183  14.183 -0.3676 -0.0725  0.2486
26876W        W43723   7.682   7.305   2.870 -0.0238 -0.2372 -0.1989
26877W        W43724   8.643   4.460  15.130 -0.1457  0.1568 -0.1381
26878W        W43725   4.965  12.952  16.161  0.0659  0.1401 -0.0661
26879W        W43726  14.743  16.568  12.830 -0.1099 -0.0271 -0.0136
26880W        W43727   6.151   7.773  14.924 -0.2152  0.0002 -0.2730
26881W        W43728  17.407   5.238   1.691  0.2159  0.4311  0.1034
26882W        W43729   3.214   4.465  13.980  0.0003  0.0871 -0.0832
26883W        W43730   1.944  11.096  15.199 -0.1571 -0.0617  0.1078
26884W        W43731  13.433  17.840  13.953  0.2159 -0.2322 -0.1254
26885W        W43732   5.353  13.729  15.366 -0.1466 -0.0010 -0.0599
26886W        W43733  15.764  10.405  12.443  0.3158  0.0026  0.4352
26887W        W43734   1.915  11.125  12.556 -0.2112  0.1263  0.1696
26888W        W43735  12.977  11.818   3.960  0.2693  0.2180  0.0998
26889W        W43736   6.928   5.217   3.094  0.0827  0.1737 -0.2120
26890W        W43737   5.660  17.457  13.319  0.0435  0.0614 -0.4564
26891W        W43738  12.619   6.659  13.302 -0.0811 -0.0288 -0.4573
26892W        W43739  15.086  17.555   4.454 -0.1643 -0.2275  0.0996
26893W        W43740  14.224   2.272  15.705  0.0333 -0.3919  0.0109
26894W        W43741   5.380  14.650   4.153  0.2801  0.1784 -0.0905
26895W        W43742  13.712  16.778  14.784  0.3238  0.1616 -0.0014
26896W        W43743  10.130  10.576   0.375  0.2796  0.1316 -0.1322
26897W        W43744  17.747   2.066  13.238 -0.1332  0.0408 -0.0749
26898W        W43745   3.592  11.979  13.954 -0.0836 -0.3299  0.0202
26899W        W43746   7.625   1.448   0.544  0.1716 -0.0553  0.1061
26900W        W43747   9.419   2.774   2.696  0.0998 -0.0633  0.0417
26901W        W43748  13.665  13.175  10.547  0.3414  0.1903  0.0155
26902W        W43749  15.826   1.191  16.324 -0.0115 -0.0982  0.0706
26903W        W43750   6.397   2.667   4.986  0.2066 -0.2207 -0.0209
26904W        W43751  12.492  16.084   3.060 -0.0583 -0.0015 -0.0528
26905W        W43752   2.640   1.934   3.554  0.0395 -0.0709  0.1037
26906W        W43753   3.462   8.958   2.663 -0.0165  0.3114 -0.0952
26907W        W43754   3.002  13.847  16.481  0.2022  0.2995  0.0920
26908W        W43755  17.111   2.137   0.487  0.1540 -0.0354 -0.1189
26909W        W43756   8.910  10.468  14.328  0.0219  0.0430 -0.3180
26910W        W43757  12.690  11.476  12.807 -0.0130  0.0067  0.1702
26911W        W43758   6.243  10.042   2.331 -0.0857  0.2713 -0.0531
26912W        W43759   1.385  17.786  15.630 -0.0210 -0.1073  0.0338
26913W        W43760   4.295   9.539  16.460 -0.0253  0.1340 -0.4451
26914W        W43761   5.416   6.484  14.509 -0.1392 -0.0671 -0.1707
26915W        W43762   8.161   4.763  15.773  0.1300 -0.0044 -0.0087
26916W        W43763   4.171   7.875   2.340  0.0239  0.2536 -0.1377
26917W        W43764   1.730  11.920  14.933 -0.1843 -0.1694 -0.0116
26918W        W43765   1.258  11.424   2.442  0.0379 -0.0915  0.1926
26919W        W43766   9.355   2.733   4.484 -0.0697  0.2413  0.0004
26920W        W43767  10.980  16.008   3.799 -0.1340  0.1047  0.3161
26921W        W43768   2.072   6.072  15.087  0.1186 -0.0853  0.1453
26922W        W43769  13.934   5.417   6.299 -0.0878 -0.0584  0.0299
26923W        W43770  12.347  13.305   3.198  0.2816 -0.2283 -0.1065
26924W        W43771  10.861  12.179  15.651  0.0979  0.0317  0.0838
26925W        W43772  13.285   7.815  13.999  0.1252  0.3108 -0.0403
26926W        W43773  10.214   5.267  15.698  0.1722  0.0054  0.0398
26927W        W43774  14.893   8.343  14.938 -0.0491  0.1733  0.0476
26928W        W43775   9.017   8.675   2.216  0.0089  0.0273  0.0387
26929W        W43776   2.736  12.796  12.528 -0.3681  0.2762 -0.0916
26930W        W43777  12.159  16.760  13.272  0.0600 -0.0309  0.0196
26931W        W43778  13.724  13.167  13.558 -0.0922 -0.1031 -0.0719
26932W        W43779  10.640   5.241   1.950 -0.0288  0.2431 -0.0839
26933W        W43780  17.872   7.594   6.111 -0.0963  0.1104 -0.1219
26934W        W43781  11.982   3.018   3.494  0.0304  0.0359 -0.1114
26935W        W43782  10.507  16.964   2.909 -0.3227  0.1187 -0.0525
26936W        W43783   3.661   5.407   3.262 -0.1338 -0.4909 -0.1647
26937W        W43784  16.209  14.929   1.097 -0.0659 -0.1088 -0.0562
26938W        W43785  12.206  14.145  15.632  0.0755  0.0567 -0.0644
26939W        W43786  15.589   7.125  11.645 -0.1453  0.2746  0.2808
26940W        W43787   3.543  13.499  14.596  0.0311  0.2605  0.0989
26941W        W43788   1.268  10.948   2.140 -0.2707 -0.1956  0.2264
26942W        W43789  14.624   7.830  12.680  0.3803 -0.0224  0.1206
26943W        W43790  13.421   0.155   5.124 -0.1464  0.1783 -0.0286
26944W        W43791   3.941   3.703  11.057  0.2585 -0.1073  0.1465
26945W        W43792   1.751   9.459   0.975 -0.0420  0.0949  0.2204
26946W        W43793  11.425   5.733   0.707 -0.0057 -0.2223 -0.2283
26947W        W43794   1.363   6.959   0.118  0.2543 -0.1056 -0.1702
26948W        W43795  15.565  11.187   2.738 -0.0684 -0.1939 -0.0241
26949W        W43796   7.796   4.669  15.481 -0.2527 -0.0442 -0.0487
26950W        W43797  11.269   6.930   3.396  0.0300 -0.1939 -0.0626
26951W        W43798   1.436   9.464   4.237 -0.3040  0.1182 -0.2521
26952W        W43799   3.793   4.261  16.600  0.0567 -0.0500  0.2737
26953W        W43800  16.904  16.989  14.208  0.2363 -0.1655 -0.1429
26954W        W43801  14.286   0.240   4.910 -0.3760 -0.0892  0.1092
26955W        W43802  16.847   0.827   2.106 -0.0401  0.0711 -0.1860
26956W        W43803  14.129   9.157  16.014  0.0183  0.1181  0.0019
26957W        W43804   2.516   4.353   2.047 -0.0589  0.0180  0.3124
26958W        W43805  12.696  18.029  13.337  0.1798 -0.1904 -0.0008
26959W        W43806  15.518   7.885   5.162 -0.0489  0.0152  0.2069
26960W        W43807   0.830   3.653  14.758  0.5162  0.2446  0.0288
26961W        W43808  10.364  10.228  11.866  0.0688 -0.3497 -0.3895
26962W        W43809   3.369  11.108  15.414  0.0764  0.1462 -0.0032
26963W        W43810   7.410   4.045  11.741  0.1720 -0.0501  0.0643
26964W        W43811   9.762   7.646  15.430 -0.0351  0.1952  0.1762
26965W        W43812   0.005   5.807   4.759 -0.1724 -0.2930  0.0442
26966W        W43813   0.969   8.760   1.262 -0.3166 -0.0870  0.1112
26967W        W43814  13.443   2.836   0.829  0.1233  0.0057  0.2230
26968W        W43815   7.757   4.334   4.277 -0.0273 -0.0161 -0.0537
26969W        W43816  11.631   7.365  14.878 -0.0046  0.0990  0.1030
26970W        W43817   4.229   0.011  15.153 -0.1461 -0.3186  0.0256
26971W        W43818   9.786   8.046  12.636  0.2109 -0.1127 -0.0786
26972W        W43819  10.968   4.220   0.483 -0.1234 -0.2777  0.0125
26973W        W43820   9.886   6.685  15.518 -0.1407  0.1079 -0.1093
26974W        W43821   9.986   4.402   3.490  0.0651  0.0563  0.0449
26975W        W43822  17.902   5.441  13.601  0.2918  0.1834 -0.0501
26976W        W43823   8.056  13.164  12.337 -0.1057  0.2123 -0.1203
26977W        W43824   5.959   4.248   1.898  0.0520  0.0436  0.0388
26978W        W43825   3.943   6.040   4.773 -0.0465 -0.1477 -0.0032
26979W        W43826  15.601  15.984   3.362  0.0974 -0.1808 -0.2566
26980W        W43827   6.545  15.361   0.081 -0.0100  0.1480 -0.0161
26981W        W43828   6.896  14.706   2.251 -0.0793 -0.2756 -0.2554
26982W        W43829   0.189   3.292  12.533 -0.1986 -0.1727 -0.1846
26983W        W43830  13.577   4.008  14.522  0.1126  0.0788 -0.0135
26984W        W43831  15.757   6.997   5.325 -0.0734  0.4225 -0.1998
26985W        W43832   6.094   5.947   5.232 -0.1124 -0.1197  0.0058
26986W        W43833   7.372  13.453   1.767 -0.1142 -0.4153 -0.2562
26987W        W43834   5.488   5.516  14.750  0.0547 -0.1586 -0.1301
26988W        W43835  11.931  14.270  13.481 -0.1955 -0.1971 -0.2548
26989W        W43836   5.791  12.164  14.685 -0.0334 -0.0112 -0.0505
26990W        W43837  17.829  17.722   3.296  0.2547  0.0150  0.1270
26991W        W43838   4.359   3.188  12.510 -0.0065  0.1492  0.2547
26992W        W43839   0.898   4.702  15.695 -0.0307 -0.0168  0.0305
26993W        W43840   5.584   2.200   2.361 -0.2607 -0.3042 -0.1968
26994W        W43841   6.130   7.374   1.792 -0.2781 -0.1339 -0.0470
26995W        W43842  15.201   6.546   2.134  0.3090  0.0153  0.1919
26996W        W43843  14.671  13.288  14.624  0.0159  0.2688  0.2684
26997W        W43844   3.000   7.452  14.854  0.1486 -0.2346 -0.2164
26998W        W43845  13.227   9.338  16.249 -0.0360  0.0432  0.0686
26999W        W43846  13.256   1.261   3.949  0.1610 -0.0415  0.0613
27000W        W43847   2.727   4.109   3.328  0.0478  0.4681  0.1862
27001W        W43848   0.296  10.781   4.832 -0.2873 -0.1739  0.1186
27002W        W43849   6.747  11.074   0.332  0.0960 -0.0623  0.2101
27003W        W43850   6.429   4.106   0.727 -0.0046 -0.0892 -0.1836
27004W        W43851   2.126   4.596   4.963  0.3151  0.2914 -0.0047
27005W        W43852   7.547   8.954  11.775 -0.0540  0.1590 -0.0222
27006W        W43853  16.607   3.430   3.718 -0.3276 -0.1677 -0.1328
27007W        W43854   1.132  12.510  16.479 -0.2959 -0.1439 -0.0075
27008W        W43855   6.751  16.935   2.254  0.0643  0.4444  0.0316
27009W        W43856   5.716  17.064   3.257  0.3327 -0.2563 -0.0732
27010W        W43857   5.362   9.954   3.163  0.1539  0.1169 -0.1889
27011W        W43858  14.599   9.396   4.430  0.3396 -0.0209  0.3052
27012W        W43859   9.511   3.955   5.449  0.0755 -0.1807  0.3117
27013W        W43860  11.934  17.054  12.873  0.0887 -0.0046  0.2043
27014W        W43861   0.931  10.191   3.389  0.0034 -0.0829 -0.0413
27015W        W43862  11.217   3.341  13.846  0.1084 -0.3674 -0.0393
27016W        W43863   5.121  10.541   0.029  0.0289  0.1246 -0.3029
27017W        W43864  13.124  14.718  15.782 -0.0989  0.2161  0.1444
27018W        W43865  17.218   9.918   2.535 -0.1954 -0.1405  0.1276
27019W        W43866   4.426   4.592   5.465  0.0916  0.0782 -0.1696
27020W        W43867   8.759   3.232   0.510 -0.2860  0.0842 -0.3594
27021W        W43868  10.158  15.604   2.599  0.1677  0.0217 -0.1004
27022W        W43869  16.043  12.475  15.184  0.0325  0.2514 -0.0142
27023W        W43870  13.764  16.079   0.451  0.1559  0.0474 -0.3973
27024W        W43871   3.740  17.021   4.647  0.2071 -0.0442  0.0048
27025W        W43872  16.087   3.852  16.097  0.1314  0.2329  0.1317
27026W        W43873   3.717   1.808   2.418 -0.1911  0.0806 -0.1722
27027W        W43874  11.770  18.064   2.715  0.0062  0.1586  0.4415
27028W        W43875  15.608   1.672  14.310 -0.1783 -0.1259  0.0458
27029W        W43876   8.491  11.406  12.484  0.1121  0.0207  0.0542
27030W        W43877  17.192   4.390  13.787 -0.0527 -0.3551 -0.0982
27031W        W43878  12.300   2.676  11.318 -0.1543 -0.1866 -0.0932
27032W        W43879   6.089   7.213  11.751  0.0121  0.0299  0.0509
27033W        W43880   5.226   2.552  16.129 -0.2138  0.0477  0.3407
27034W        W43881  13.440  14.062  16.200  0.0281  0.1044 -0.0284
27035W        W43882   4.159   1.125   0.370  0.1502 -0.1400 -0.0973
27036W        W43883   4.548  11.054   0.955 -0.1570  0.0291  0.2194
27037W        W43884   5.898   8.505   2.063  0.2106 -0.0905 -0.1716
27038W        W43885   2.582   6.886  13.213  0.0183 -0.2379  0.0181
27039W        W43886  12.466  13.970  14.769 -0.2191  0.1171 -0.1256
27040W        W43887   3.067   4.182   5.384 -0.0218  0.0063 -0.0405
27041W        W43888   4.157   3.861  13.624  0.0528 -0.0675  0.1988
27042W        W43889   3.865   9.760  14.224 -0.1183 -0.3157  0.2561
27043W        W43890  12.391  12.489  14.816  0.1055  0.3396  0.2362
27044W        W43891   9.356  13.627  13.479  0.2904 -0.0772 -0.0031
27045W        W43892   9.714  11.359   0.678  0.1812 -0.0135  0.2455
27046W        W43893  12.720   9.397  15.460  0.0643  0.0572  0.0383
27047W        W43894  15.064   6.634  15.385 -0.0194 -0.0451 -0.0176
27048W        W43895   8.424   3.244   5.051  0.2500  0.1129 -0.2045
27049W        W43896   1.657   7.422   1.048  0.1227  0.0759  0.4769
27050W        W43897  14.730   2.894   4.506  0.1474  0.4256  0.4360
27051W        W43898   8.843   3.878  12.365  0.1770 -0.0276 -0.3002
27052W        W43899   9.948   9.489   2.278 -0.1691 -0.3984  0.3894
27053W        W43900   3.606   5.531   2.064  0.0030 -0.0981  0.1375
27054W        W43901  16.301  15.543  12.802 -0.0858  0.0499  0.0230
27055W        W43902   0.736  10.295  14.169  0.1451  0.1354  0.1763
27056W        W43903  13.773   2.530  15.483  0.0780 -0.0982 -0.3403
27057W        W43904   2.520  11.601   3.866 -0.0527 -0.1171 -0.1244
27058W        W43905  12.049  13.142   0.531 -0.1144  0.0888  0.2652
27059W        W43906   9.288  13.071  15.298  0.0210 -0.0033  0.1238
27060W        W43907  13.574   4.523   3.001 -0.3512 -0.0176 -0.1518
27061W        W43908  12.898   2.400  10.618 -0.1531 -0.0980 -0.3607
27062W        W43909   4.933  14.518   4.437 -0.2517 -0.0560  0.0715
27063W        W43910   7.887   8.146   2.206 -0.0361 -0.0583 -0.0249
27064W        W43911   5.698  16.190   3.609 -0.1313  0.1115  0.2015
27065W        W43912  14.770  13.400  13.227 -0.2772  0.0831  0.0106
27066W        W43913  15.146  16.653  16.679  0.0360 -0.0774  0.2035
27067W        W43914   8.967   3.869  13.450 -0.1566  0.2015 -0.1407
27068W        W43915   0.832  17.395   3.579  0.2860  0.0000  0.4956
27069W        W43916   4.214  14.577  12.730 -0.0652 -0.1642  0.1671
27070W        W43917   1.552  15.182   6.260  0.1771  0.0469 -0.0370
27071W        W43918   4.383  17.013   1.711 -0.1337 -0.1155  0.1349
27072W        W43919   0.108   9.775   1.708 -0.2240 -0.0335  0.0819
27073W        W43920   8.362   0.085  15.956  0.1219  0.0614  0.0390
27074W        W43921   9.655   5.312  14.050  0.0481  0.0385 -0.1917
27075W        W43922   4.339  16.680   3.374  0.1520 -0.2882  0.1234
27076W        W43923   0.862  16.357   3.837 -0.0116  0.1953  0.1648
27077W        W43924   6.418   0.986  16.235 -0.0865 -0.0155 -0.0617
27078W        W43925   6.515   1.470  12.182 -0.0878  0.1380  0.2371
27079W        W43926  10.493  14.966   5.279  0.0612  0.3376  0.0300
27080W        W43927   5.089   1.652   4.101  0.0771  0.4798 -0.0208
27081W        W43928  15.835   9.148   3.730  0.0899 -0.0360 -0.1732
27082W        W43929   3.015  13.905   2.029 -0.2485 -0.1895  0.0033
27083W        W43930  10.893   6.595   3.611  0.0894  0.2531  0.1174
27084W        W43931   8.999   6.912   6.238 -0.0399 -0.1602  0.0113
27085W        W43932  16.154   0.792  12.035  0.0479  0.0342  0.3858
27086W        W43933   2.672  12.093  13.722 -0.3043 -0.0714  0.0545
27087W        W43934  17.750   0.961  14.480 -0.0419  0.2625 -0.3133
27088W        W43935  16.078   8.062  13.198 -0.0513  0.0574  0.0414
27089W        W43936   3.831  15.987  16.328  0.1235 -0.1755 -0.1608
27090W        W43937  10.624  11.615  11.699 -0.1165 -0.2538 -0.1336
27091W        W43938   5.126   1.740   4.615  0.0439 -0.0011  0.2375
27092W        W43939   1.651   0.209   3.262 -0.1274  0.0386 -0.1844
27093W        W43940  13.483   1.589   3.664 -0.2231  0.1803  0.1925
27094W        W43941   2.900  14.772   4.802 -0.0040  0.1489  0.2909
27095W        W43942   3.100  12.433  12.723 -0.0943  0.1468 -0.2078
27096W        W43943  10.934  12.763  12.075  0.0995 -0.1091  0.1891
27097W        W43944   0.379   5.727  13.821 -0.1553  0.3000 -0.3117
27098W        W43945  14.848  12.812  13.961  0.2436  0.2874 -0.1827
27099W        W43946  16.702  11.421  14.091 -0.0468  0.0305  0.1500
27100W        W43947  15.384   4.871  15.571 -0.1048 -0.0665 -0.4780
27101W        W43948   3.862  14.598  11.778  0.1655  0.0208  0.2323
27102W        W43949   6.651  10.187  12.401 -0.3287 -0.0484  0.0613
27103W        W43950   6.897  17.140  11.484  0.2748  0.0120  0.0585
27104W        W43951  10.378  14.541   0.161 -0.2023 -0.1746  0.0447
27105W        W43952  15.915   9.392   4.987 -0.0484  0.0292  0.3007
27106W        W43953  15.201   7.363   0.741 -0.3037 -0.2991  0.0899
27107W        W43954   9.797  15.916   3.462 -0.3774  0.1400 -0.0494
27108W        W43955   3.353  17.653  11.473 -0.2509  0.0877 -0.1561
27109W        W43956  10.768  13.642  13.880 -0.2547 -0.0624  0.3678
27110W        W43957  12.850   1.767   3.065  0.1324  0.0300 -0.1742
27111W        W43958   8.979  17.680   5.438  0.1056 -0.2496  0.1064
27112W        W43959  12.544  15.257   2.512  0.0533  0.2013  0.0762
27113W        W43960  18.008   1.680  11.749 -0.1083 -0.0634  0.0564
27114W        W43961  16.526   8.286   0.622  0.0973 -0.2955 -0.1035
27115W        W43962   1.125   9.394  11.806 -0.0684  0.0444 -0.4411
27116W        W43963  11.314   1.937  11.983  0.1905  0.2246  0.2084
27117W        W43964  14.387   4.062   3.132 -0.0412 -0.1270 -0.2510
27118W        W43965   4.458  10.787   4.452 -0.3822 -0.4561 -0.1417
27119W        W43966   3.102  12.480   4.973 -0.0926  0.1633 -0.0242
27120W        W43967  15.044  17.553  11.526 -0.4244  0.3201  0.0742
27121W        W43968  17.130   9.537  12.425 -0.1281 -0.0158 -0.0253
27122W        W43969   3.831  13.286  13.132  0.2344 -0.1081  0.0474
27123W        W43970   0.417   2.864   0.605  0.0266 -0.0440 -0.0111
27124W        W43971   0.910   3.756  15.223 -0.3358  0.2041 -0.0585
27125W        W43972   6.176   5.134   4.288 -0.0383  0.0185 -0.1766
27126W        W43973   5.096   0.773   0.691  0.5613  0.1360  0.1061
27127W        W43974  15.728   1.158  13.748  0.0115  0.1059 -0.1140
27128W        W43975  12.471   8.786   4.709 -0.0725 -0.4143  0.1325
27129W        W43976   3.821   3.748   2.404  0.2118  0.2348 -0.0618
27130W        W43977   8.503  14.156   2.475  0.1330 -0.1845  0.0344
27131W        W43978   6.523  15.392   1.879 -0.1299  0.2031  0.0316
27132W        W43979   6.108  15.224  14.286  0.1326 -0.1856  0.1098
27133W        W43980   1.106   3.625  13.900  0.1227 -0.3436 -0.0924
27134W        W43981   8.835   4.974   2.063  0.0379 -0.1227  0.3258
27135W        W43982   5.196   0.475   5.573  0.0469 -0.0103 -0.0667
27136W        W43983   2.356  13.632   4.466  0.0034  0.3303 -0.0216
27137W        W43984  17.509  14.408   5.424 -0.0727 -0.0215 -0.0695
27138W        W43985   2.995  16.922  13.617  0.1828  0.0669  0.1719
27139W        W43986  13.666   1.093  16.294 -0.2255  0.0340  0.0873
27140W        W43987  11.517  18.053   1.035 -0.0189 -0.1422  0.1912
27141W        W43988   9.238   6.925  14.479 -0.0563 -0.3664  0.0066
27142W        W43989   2.252   2.997   1.909  0.3054  0.1003  0.0535
27143W        W43990  11.535   0.217   2.335 -0.1534  0.0174  0.1017
27144W        W43991   5.907   8.362   5.760  0.1426  0.0602 -0.1618
27145W        W43992   8.977  16.845   0.755 -0.0627  0.1069 -0.1962
27146W        W43993   2.304  14.068   1.732  0.2954 -0.0412 -0.0992
27147W        W43994  12.830  10.609   2.204 -0.0359 -0.2663 -0.1633
27148W        W43995  16.336   7.945   4.839 -0.0260  0.1575 -0.0489
27149W        W43996   0.799   4.969  11.656  0.0866  0.1332  0.0322
27150W        W43997  13.130   6.798  13.138  0.0267 -0.0451 -0.1774
27151W        W43998   6.193  16.572  11.937  0.1300  0.0783 -0.0731
27152W        W43999   5.341   1.854  11.571  0.0502 -0.0663 -0.0385
27153W        W44000   6.392  12.353  15.074 -0.0325 -0.2327 -0.0618
27154W        W44001   0.222  14.373   4.721  0.1714 -0.2577 -0.4433
27155W        W44002  10.993  18.036   5.277  0.1670  0.1316  0.1117
27156W        W44003   9.655   2.879   3.595  0.0890  0.2421  0.1978
27157W        W44004   0.181  12.138   3.123  0.0125  0.3283 -0.1210
27158W        W44005   8.509   2.445   1.159  0.1928  0.1551 -0.0613
27159W        W44006  10.093   6.483  14.715  0.1040 -0.0297 -0.1275
27160W        W44007   3.215   4.536   0.505  0.0349  0.2474 -0.0020
27161W        W44008   6.994   2.158   0.625  0.2800 -0.0044  0.1462
27162W        W44009   5.447  13.516   1.181  0.2754 -0.1649  0.0426
27163W        W44010   1.042   5.977   1.590  0.2434 -0.3136 -0.0242
27164W        W44011   7.318  14.584   1.476  0.0354  0.0472  0.0704
27165W        W44012   1.138  11.512   6.032  0.0157 -0.0653 -0.0320
27166W        W44013  16.605   5.681  11.905 -0.1720  0.0709 -0.1025
27167W        W44014   7.758   4.441   0.199 -0.1923 -0.3341 -0.2049
27168W        W44015  15.313  15.696   3.683 -0.2717 -0.3750 -0.0866
27169W        W44016  17.366  15.455  15.454 -0.1633 -0.0848 -0.0958
27170W        W44017  10.376   2.143   1.012 -0.3043  0.1983  0.1540
27171W        W44018   3.490  13.180  11.167  0.1787 -0.2080  0.0284
27172W        W44019  14.745   3.688   3.244  0.0149 -0.1143  0.0627
27173W        W44020  14.613   8.976   5.149  0.0879  0.0879 -0.1043
27174W        W44021   8.557  17.858  15.114 -0.0801 -0.1179  0.1308
27175W        W44022   0.817   5.031  16.550 -0.0506  0.2331  0.1039
27176W        W44023  14.151  12.366  12.201  0.1014  0.1001 -0.0193
27177W        W44024   5.798   6.418   0.423 -0.1482 -0.2403  0.1466
27178W        W44025  10.909   5.582  14.785  0.0714  0.2264  0.0109
27179W        W44026   3.116   8.950   3.488 -0.3074 -0.1490  0.1706
27180W        W44027   5.437  16.879  13.324  0.0255 -0.2974  0.2892
27181W        W44028   4.361   1.045   1.295  0.2643 -0.0437 -0.0939
27182W        W44029  13.782   8.452  16.095  0.2774 -0.1844 -0.0384
27183W        W44030  13.976   0.796   4.676  0.1221 -0.1787 -0.0157
27184W        W44031   1.845   3.507   3.648  0.0531  0.1869 -0.0146
27185W        W44032   3.488   6.048  16.055 -0.1492  0.2371  0.2322
27186W        W44033  16.448   3.041   5.427  0.0775  0.0691 -0.1788
27187W        W44034  13.247   9.338  14.076 -0.1768 -0.0160 -0.0149
27188W        W44035   9.533  14.445   6.215 -0.0723 -0.0948 -0.1360
27189W        W44036   8.566   6.375  15.892  0.1517 -0.2624  0.0110
27190W        W44037   1.477  13.351  12.406 -0.2005  0.1002 -0.0798
27191W        W44038   6.664  10.480   4.321  0.1362  0.0278 -0.0118
27192W        W44039  10.289   8.354  14.574  0.4692  0.1782 -0.2662
27193W        W44040   3.074   7.946  11.854 -0.3253  0.1550 -0.1613
27194W        W44041   5.243  14.066  16.593 -0.5314  0.0587 -0.2825
27195W        W44042   8.130  16.012  14.153 -0.1935 -0.0045 -0.0851
27196W        W44043   6.187  17.997  12.618  0.2986 -0.2050 -0.2548
27197W        W44044  16.517   6.425   2.026 -0.3092 -0.2245  0.2925
27198W        W44045   6.952   9.845   4.814  0.2055  0.2161  0.0239
27199W        W44046   3.414   8.841  14.443 -0.0632  0.2978  0.0158
27200W        W44047  13.125  15.605   5.246 -0.0127 -0.1290  0.4949
27201W        W44048  13.404   8.141   0.267 -0.0195  0.1835 -0.1593
27202W        W44049  15.930  13.015  14.357 -0.3277 -0.1655 -0.0907
27203W        W44050   5.465   7.131   0.430  0.0224  0.0154 -0.0682
27204W        W44051   8.345  17.239  16.316 -0.1446 -0.3842 -0.1212
27205W        W44052   5.986  14.310   3.327 -0.2057 -0.1193 -0.0100
27206W        W44053  12.479  12.772   3.035  0.4210  0.1123  0.0061
27207W        W44054  17.404   8.697  15.422  0.0128 -0.0100  0.2523
27208W        W44055   6.916   4.523  13.848  0.3005 -0.2742 -0.0504
27209W        W44056   1.401   4.447   1.225  0.0816 -0.1250 -0.2840
27210W        W44057  10.122  12.241   4.314  0.0758 -0.2982 -0.0132
27211W        W44058   7.899  14.738  13.610 -0.1943  0.0260 -0.2302
27212W        W44059  13.730   2.141  11.725  0.0959 -0.0021 -0.0954
27213W        W44060  11.226  11.354  15.488  0.2540 -0.1065 -0.1665
27214W        W44061  11.188   6.594  11.773 -0.4295 -0.0172 -0.1600
27215W        W44062   2.136  13.960   3.932  0.1797  0.0479 -0.1452
27216W        W44063  14.382   5.597  15.156  0.3140 -0.0200 -0.0174
27217W        W44064  13.791   4.603  11.400  0.0780  0.0161 -0.1400
27218W        W44065   4.476   2.712   0.584 -0.0606 -0.3153 -0.2030
27219W        W44066   4.062  11.945   3.207 -0.1427 -0.1209  0.0270
27220W        W44067  12.830   0.902   2.595  0.0155 -0.2287  0.0361
27221W        W44068  13.329   0.745   4.067 -0.2239 -0.1752  0.0377
27222W        W44069   7.655  17.906   5.220 -0.1751  0.3643 -0.1705
27223W        W44070   5.719  15.192   1.318 -0.0387 -0.1296 -0.2056
27224W        W44071  16.666  15.068   3.451 -0.1437  0.1029 -0.0405
27225W        W44072  16.686  15.623   4.453  0.1154  0.2271  0.0076
27226W        W44073  15.226  16.543  13.881 -0.3929  0.2543 -0.1175
27227W        W44074   3.841  12.245   1.785 -0.1348 -0.2477 -0.0885
27228W        W44075  13.615   6.521  15.672  0.0565  0.0519 -0.1376
27229W        W44076   2.800   4.855  12.428  0.1916  0.3161  0.1628
27230W        W44077   2.294   6.392  12.865  0.1610 -0.0904  0.1278
27231W        W44078  14.529  16.141  13.813 -0.2259  0.3476 -0.0723
27232W        W44079  13.078  11.015   3.515 -0.3969 -0.0293  0.1138
27233W        W44080   6.271   3.503  13.972 -0.1454 -0.2410 -0.1393
27234W        W44081  11.673  10.028  16.188 -0.0980 -0.1739 -0.0122
27235W        W44082   9.095   6.925  16.359  0.1340 -0.1690  0.0641
27236W        W44083   5.553   3.289  15.224  0.3775 -0.0297  0.1419
27237W        W44084  10.664   5.304   3.293 -0.0523  0.1476 -0.1444
27238W        W44085   3.831   4.912  15.340  0.0067  0.1182  0.0260
27239W        W44086  13.702   2.216   4.785 -0.0522 -0.2207  0.0390
27240W        W44087  10.112   7.560  14.411 -0.1238 -0.4243  0.0248
27241W        W44088  12.112  13.301  13.724  0.0677  0.0474  0.2005
27242W        W44089  12.093   6.143   1.478  0.0663 -0.0336  0.1699
27243W        W44090  13.245  15.981   0.851 -0.0919  0.0202  0.3159
27244W        W44091   9.893   3.263   3.964  0.0180  0.0398  0.1404
27245W        W44092   5.763   1.458   3.758  0.0941 -0.1865  0.0380
27246W        W44093   8.231   7.806   1.340  0.0619 -0.2017 -0.2813
27247W        W44094  15.018   3.895   3.775 -0.1757  0.0936 -0.0113
27248W        W44095   3.535   5.922   3.219  0.2024  0.1229 -0.2155
27249W        W44096   6.800   0.881  15.061  0.0513 -0.0115  0.2469
27250W        W44097   1.687   2.515   1.026 -0.1491 -0.1379  0.1561
27251W        W44098   0.613  14.271  11.708 -0.1231 -0.2483  0.0372
27252W        W44099  17.444   4.672   0.004  0.0453  0.0239 -0.0661
27253W        W44100  17.842   3.480   2.364 -0.0374  0.0116  0.1886
27254W        W44101   2.982   9.895   3.198  0.0229 -0.0216  0.1110
27255W        W44102   2.292  10.930   0.486 -0.0952 -0.2910  0.3627
27256W        W44103   5.454   8.362   3.615 -0.1020  0.0986  0.3951
27257W        W44104   7.663   6.519   0.419 -0.2844 -0.2208  0.0092
27258W        W44105   8.797   7.823   3.057 -0.0049 -0.0844 -0.0246
27259W        W44106   4.741   5.223   1.467 -0.2205 -0.0179 -0.0032
27260W        W44107   3.341   9.598  14.109  0.3799  0.0297  0.0070
27261W        W44108   9.256  16.552  14.250 -0.0683  0.1147 -0.3265
27262W        W44109   4.013  13.729  12.854  0.0486  0.0535  0.0581
27263W        W44110   4.906   6.720  13.092  0.1165 -0.3847 -0.0512
27264W        W44111  14.265   4.673  14.222  0.0114  0.0816 -0.0410
27265W        W44112  15.420   8.042   4.237  0.0812 -0.5141 -0.2113
27266W        W44113   1.755  16.385   3.924 -0.1700 -0.0283 -0.2353
27267W        W44114   6.435  15.661   3.364  0.2841 -0.3075 -0.1419
27268W        W44115   8.078   3.385   1.070  0.1921  0.1069 -0.0960
27269W        W44116   4.616   1.933   1.833  0.3593  0.1398 -0.4485
27270W        W44117   8.239  16.688   4.929 -0.1054  0.2011  0.0886
27271W        W44118   3.466   7.825   6.192 -0.0016  0.1713 -0.2435
27272W        W44119  15.721   0.562   2.121  0.0589  0.0805 -0.2164
27273W        W44120  10.181   1.224   5.005 -0.2115 -0.1638  0.0876
27274W        W44121   8.405   2.818  15.541 -0.3067  0.1347 -0.2582
27275W        W44122  11.076  15.186  16.520  0.0189 -0.2852  0.0055
27276W        W44123   8.978   5.346   2.993 -0.3133  0.3653 -0.0348
27277W        W44124   9.134  13.601   5.428 -0.0583 -0.0482  0.1280
27278W        W44125  14.577   0.259   0.809 -0.0862  0.1048  0.0991
27279W        W44126   4.813  16.220  12.121 -0.0141 -0.3104 -0.2222
27280W        W44127   5.462   4.533   2.924 -0.1061 -0.1123  0.0009
27281W        W44128   0.150  15.635   1.589  0.1273  0.0146 -0.3018
27282W        W44129   3.642  11.257  13.030 -0.0849 -0.2310 -0.0793
27283W        W44130   4.026  17.248   3.840 -0.3848 -0.0009 -0.0380
27284W        W44131   8.624   5.648   0.217 -0.0247  0.0835 -0.1576
27285W        W44132   9.119  10.574   4.475 -0.1464 -0.0987 -0.0809
27286W        W44133   0.977   7.483  13.897  0.0843 -0.0274  0.1410
27287W        W44134   0.612   5.958   3.920  0.5122  0.2777  0.1747
27288W        W44135   6.468  10.889   5.988  0.2099 -0.1927 -0.0355
27289W        W44136   2.193  12.985  11.875 -0.2439  0.0196 -0.0510
27290W        W44137   5.821  10.389   2.237 -0.0697  0.2812 -0.1929
27291W        W44138  12.249   2.266  14.850 -0.3913  0.3330 -0.1810
27292W        W44139   2.907  15.135   5.173  0.0748 -0.0331 -0.1878
27293W        W44140   5.089   5.278  12.306  0.1872  0.2056  0.1048
27294W        W44141  14.546  17.020  11.308 -0.2273 -0.0230  0.2453
27295W        W44142   1.872  16.306   1.967 -0.1479  0.1434 -0.0154
27296W        W44143   4.534   9.650   1.362  0.3037 -0.1208  0.2168
27297W        W44144   3.773  15.409  15.576 -0.2864 -0.1628  0.0492
27298W        W44145  17.525  11.829   3.462 -0.0677  0.0223  0.1108
27299W        W44146   3.587   7.254  15.924  0.1353  0.0976  0.1485
27300W        W44147  10.405   7.774   1.851  0.1937 -0.0182  0.0444
27301W        W44148   0.145  11.639  15.180  0.2124  0.0353  0.2296
27302W        W44149  17.437  12.129   3.920 -0.0185 -0.0408 -0.1841
27303W        W44150   3.617   7.272  13.351 -0.0392  0.1050 -0.0844
27304W        W44151   1.593   3.717   4.551 -0.1352  0.1598 -0.0054
27305W        W44152  13.544  16.235  12.299 -0.1756 -0.1207  0.0532
27306W        W44153   4.677  13.012   6.601 -0.0296  0.3999  0.0816
27307W        W44154  16.236   4.547  12.991  0.0917 -0.3412 -0.0373
27308W        W44155   8.644   1.903   1.475  0.0343 -0.1750  0.0912
27309W        W44156  13.765  10.826  15.887  0.2638  0.0870  0.0428
27310W        W44157   9.321   7.031   2.671 -0.0711  0.1554 -0.0328
27311W        W44158   6.483  13.674   1.651 -0.0560  0.3120  0.0193
27312W        W44159   1.782   7.718   4.934 -0.1767 -0.0572 -0.0886
27313W        W44160   6.588  13.912  14.883 -0.1289 -0.1848 -0.0954
27314W        W44161  11.108  17.464  12.877 -0.1477  0.4313 -0.0232
27315W        W44162  14.288   6.212   2.921 -0.1842  0.0095  0.2626
27316W        W44163  14.488   2.971   1.889 -0.1084  0.0964  0.0280
27317W        W44164   9.675   4.901  13.599  0.1506  0.0453 -0.3549
27318W        W44165   0.145   7.997  12.717  0.2039  0.0534 -0.0236
27319W        W44166   4.142  17.754   3.067  0.2304  0.1604 -0.0182
27320W        W44167  11.692   4.015  15.443 -0.0980 -0.1257 -0.1607
27321W        W44168  14.046   5.900  12.679 -0.0387  0.1201  0.1142
27322W        W44169   4.827   3.464  12.452 -0.0704  0.1387 -0.0518
27323W        W44170   7.411   5.803   1.510  0.0823 -0.1246 -0.0583
27324W        W44171   9.581   9.035   3.495 -0.1622 -0.2838 -0.1833
27325W        W44172   9.978   8.134  15.940  0.1309 -0.2149  0.1250
27326W        W44173   5.909   4.692   4.207  0.0011 -0.1725  0.0624
27327W        W44174  13.504  11.289  14.002 -0.2627 -0.3758  0.0894
27328W        W44175  15.050  15.039  15.366 -0.0638  0.1464 -0.0124
27329W        W44176   1.785  10.054   0.700  0.0176  0.2009  0.0952
27330W        W44177  14.253   8.673   5.291 -0.0117  0.2926  0.2273
27331W        W44178  14.954   3.268   2.313  0.0828 -0.1756  0.2899
27332W        W44179  13.085   8.928   2.721  0.2524 -0.1459 -0.1316
27333W        W44180   0.717  16.756  14.111  0.1713  0.1449 -0.1952
27334W        W44181  17.092   3.474   0.446  0.0642 -0.0451 -0.0633
27335W        W44182  17.080  17.000   2.016 -0.2463 -0.1113 -0.2567
27336W        W44183  17.923   1.405  16.499  0.0540 -0.0587 -0.4857
27337W        W44184  13.500   6.032   4.477  0.0422 -0.0217  0.2220
27338W        W44185  13.225   3.732  13.109  0.0924  0.0145 -0.2438
27339W        W44186  16.867  14.029  14.174  0.0606 -0.0540  0.1498
27340W        W44187   0.089  15.746   1.108  0.1537  0.0163 -0.2185
27341W        W44188   7.480   0.603  16.186  0.0236 -0.0088 -0.0483
27342W        W44189  14.020  17.342   2.153  0.2052  0.0184  0.0452
27343W        W44190   9.046   9.958   6.509 -0.2960 -0.0923  0.1624
27344W        W44191   8.026  15.214   1.004 -0.2336  0.0465  0.3864
27345W        W44192  14.972  12.761   3.897  0.0715 -0.0634  0.1038
27346W        W44193   5.665   8.232   5.329 -0.2476  0.0944  0.2088
27347W        W44194   3.040  15.457  11.402  0.1516 -0.1320 -0.2046
27348W        W44195   5.335  15.449   1.347 -0.0590 -0.0790  0.1429
27349W        W44196   8.995   5.280   4.068 -0.3345 -0.1076 -0.0701
27350W        W44197  12.805  10.756  11.843 -0.0220  0.3738 -0.2910
27351W        W44198   2.108   4.577   2.779 -0.3400  0.2353 -0.2068
27352W        W44199  11.407   0.638  11.197 -0.5406  0.1746  0.1164
27353W        W44200   7.339  17.330   4.313 -0.2957 -0.0724 -0.1639
27354W        W44201   4.210   4.499  12.417 -0.1548  0.1303 -0.1732
27355W        W44202  12.656   2.259   2.973 -0.3808 -0.0283  0.0860
27356W        W44203   9.577   7.498   0.338 -0.2106 -0.2007  0.1323
27357W        W44204  11.712   1.617   2.533 -0.2295 -0.1658 -0.4816
27358W        W44205   1.338   1.975   3.146 -0.3994  0.0878  0.2309
27359W        W44206   4.680  17.690  16.655  0.2198  0.3170  0.0542
27360W        W44207  13.512  17.582  13.211 -0.1149 -0.1527 -0.2517
27361W        W44208  16.243  14.194   1.994 -0.0855 -0.0917  0.0281
27362W        W44209   7.382   1.318   2.644 -0.1768 -0.4406 -0.1093
27363W        W44210   7.488   8.504   4.479 -0.2023 -0.0717 -0.2991
27364W        W44211  10.319  17.503   3.400  0.1480 -0.0990  0.0730
27365W        W44212   1.250  16.260   5.619  0.0525  0.0828  0.0714
27366W        W44213   3.796  15.026   0.101 -0.0773  0.1034  0.1209
27367W        W44214  11.326   1.365  15.148 -0.0563  0.0298  0.1221
27368W        W44215   3.483   5.667  16.480 -0.0871 -0.1273  0.0465
27369W        W44216   6.330  12.503   0.440  0.1785 -0.0032  0.3143
27370W        W44217   9.748  12.046  16.620 -0.0454 -0.0105 -0.1746
27371W        W44218  10.531  15.667   3.046  0.2108  0.3045  0.1902
27372W        W44219   6.503   6.238   1.445  0.2744 -0.0320 -0.0246
27373W        W44220   7.700   9.051   1.975 -0.2347  0.3047  0.1667
27374W        W44221  16.117  12.533   4.980  0.3437  0.0300  0.0546
27375W        W44222   6.687  13.925   0.458  0.0144  0.0829  0.0158
27376W        W44223   1.731  11.563   2.282  0.0652  0.0855 -0.2184
27377W        W44224   3.268   0.091  15.455 -0.1328 -0.0064  0.2251
27378W        W44225  18.044  13.316  16.473  0.0807 -0.1091 -0.0355
27379W        W44226   0.006   5.062  13.264  0.0437  0.1669  0.1612
27380W        W44227   2.959  14.846   1.241  0.1321 -0.0056 -0.1042
27381W        W44228   8.668  12.019   2.993  0.2701 -0.0737 -0.3228
27382W        W44229   5.321  16.860  13.820 -0.2811  0.0654  0.3670
27383W        W44230  16.345  16.562   2.337  0.1100 -0.1885  0.1229
27384W        W44231  10.934  13.388   5.516 -0.1220  0.2196  0.0224
27385W        W44232  13.609   7.886   0.637  0.3377  0.0271  0.0734
27386W        W44233  16.442  16.896   4.528 -0.2558 -0.0829  0.0330
27387W        W44234  11.740  13.022   0.974 -0.0557 -0.0138 -0.0303
27388W        W44235   4.527   6.065   5.717 -0.0116  0.1325  0.1788
27389W        W44236   1.112   8.456  13.661  0.0854  0.2173  0.0285
27390W        W44237  10.863   0.978   2.197 -0.0435 -0.0610  0.0837
27391W        W44238   3.477  15.655  14.262  0.1519 -0.0459  0.1206
27392W        W44239   7.149   0.717  14.776 -0.1523  0.1341 -0.2757
27393W        W44240  16.538  15.791  12.373  0.1361  0.1093 -0.1263
27394W        W44241   1.690  15.384  11.804 -0.1253  0.0792  0.1210
27395W        W44242  11.548   1.236   4.899 -0.0793  0.0891 -0.1922
27396W        W44243   9.628   9.829   0.756  0.0959 -0.0285 -0.0971
27397W        W44244   1.155   5.503  15.637 -0.2291 -0.1220  0.1679
27398W        W44245  11.271   4.774  14.644  0.2836 -0.2301 -0.0224
27399W        W44246   6.348   7.794  15.845 -0.5204  0.0908  0.0848
27400W        W44247   5.679  14.709   0.862 -0.4834 -0.0885  0.3111
27401W        W44248  17.184   9.478   0.142  0.1181  0.2264 -0.0191
27402W        W44249   3.402  13.880  13.594  0.2672  0.1033 -0.0052
27403W        W44250  14.327   0.520  11.136 -0.0924  0.0218 -0.0289
27404W        W44251  15.406  15.054  11.431  0.2332  0.2139  0.0020
27405W        W44252   5.226  16.370  15.153 -0.1549  0.0490  0.2203
27406W        W44253  10.547   6.871   4.858 -0.0431  0.0643 -0.2112
27407W        W44254   9.862  14.360  16.579  0.0248 -0.1845  0.0741
27408W        W44255  12.134  17.928   2.360  0.3199 -0.1376 -0.1732
27409W        W44256   2.328   3.729   3.397  0.3129 -0.0680  0.1983
27410W        W44257  15.082  14.784   2.633  0.2312 -0.2580 -0.0607
27411W        W44258   5.978   3.357   0.777 -0.4246  0.0558  0.3227
27412W        W44259  11.209   9.047   2.086 -0.1040  0.2584 -0.2129
27413W        W44260   4.574   0.380  14.312 -0.0119  0.1944 -0.0343
27414W        W44261   8.323   7.910  15.523 -0.0503  0.0677 -0.0215
27415W        W44262  14.756   6.469  11.281 -0.1869 -0.0378 -0.2395
27416W        W44263  10.418   9.446   1.030  0.0455 -0.3293 -0.0644
27417W        W44264  15.792  10.300  15.134  0.0141  0.0600  0.1900
27418W        W44265   9.396  14.214  15.727  0.2772 -0.0655  0.2486
27419W        W44266   2.749   7.534   4.980 -0.1475 -0.0701 -0.1779
27420W        W44267  15.682  15.919   2.434 -0.0139 -0.2737 -0.0304
27421W        W44268  12.117  11.673  15.805 -0.2798  0.1015 -0.2736
27422W        W44269   6.312   8.576  14.388 -0.1318  0.1170  0.3926
27423W        W44270  11.583   9.375   6.212 -0.3842 -0.2527  0.0813
27424W        W44271   8.233  12.185   2.806 -0.1334  0.1059 -0.3803
27425W        W44272  13.112  17.399  14.208  0.2139 -0.1108  0.1793
27426W        W44273  15.362   4.300   2.893  0.0785 -0.0986  0.0556
27427W        W44274   3.880   5.299   1.285 -0.1718 -0.2554 -0.3965
27428W        W44275   8.184   4.101  11.708 -0.2690 -0.0402  0.0727
27429W        W44276   1.283  15.960  13.505  0.1591  0.0707 -0.2060
27430W        W44277   0.542   8.327  12.991 -0.0773  0.1445  0.0649
27431W        W44278   1.345  14.045   6.714  0.1714 -0.3451 -0.0378
27432W        W44279   5.951   9.730  12.788  0.2491 -0.0214 -0.0391
27433W        W44280   0.844  14.813  13.166  0.2109  0.2203  0.4092
27434W        W44281  15.548   0.998  11.972 -0.2866  0.1042 -0.2604
27435W        W44282  17.112   3.748  16.170 -0.1025 -0.0945 -0.1869
27436W        W44283   1.872  13.563   4.785 -0.1204  0.1036  0.0514
27437W        W44284  16.686  17.179   1.628 -0.4765  0.1805 -0.0045
27438W        W44285  17.061   2.297  16.028 -0.0616 -0.2069  0.1022
27439W        W44286   9.712  10.180   4.622 -0.2772  0.1004  0.0290
27440W        W44287   6.272  14.440   6.133  0.1045  0.1812 -0.0401
27441W        W44288  13.498  15.251   3.480 -0.0103 -0.0956  0.1949
27442W        W44289   1.000  15.009  16.381  0.1150 -0.3115 -0.0705
27443W        W44290  14.482  10.406  16.041  0.2325 -0.0286 -0.1899
27444W        W44291   2.869  12.943   2.024  0.2891  0.1364  0.1395
27445W        W44292   9.683   5.586  11.760 -0.1832  0.0130 -0.0369
27446W        W44293  10.728  13.172   4.375 -0.0442 -0.1687 -0.1923
27447W        W44294   8.236   2.497   5.392 -0.4439 -0.2527  0.0980
27448W        W44295  18.036  12.459  15.691 -0.1478  0.1415 -0.2440
27449W        W44296   8.743  13.380   6.294 -0.0763  0.2800 -0.1246
27450W        W44297   0.332  15.461   0.743 -0.0961 -0.1798  0.0848
27451W        W44298   2.291   9.983   4.005  0.1077  0.0760 -0.1240
27452W        W44299   2.636   0.030   5.222 -0.1602  0.0455 -0.0312
27453W        W44300  15.407  13.919   5.666  0.0238  0.0018  0.1033
27454W        W44301  13.881   3.389  15.717  0.1060  0.0101 -0.0741
27455W        W44302   2.673   0.259   0.848  0.0384  0.1417  0.0888
27456W        W44303   1.554  10.151   0.261 -0.0526  0.1438  0.2235
27457W        W44304   6.022  11.652   4.571 -0.1300  0.2553 -0.1114
27458W        W44305   0.285  12.816  13.057 -0.0319  0.1950 -0.0122
27459W        W44306  14.631  15.971   2.168 -0.1007 -0.0382  0.0125
27460W        W44307   1.802  17.704   1.951  0.0570 -0.0693 -0.0838
27461W        W44308   1.031   6.585   2.960 -0.1641 -0.0905 -0.0313
27462W        W44309   8.609   1.529   5.481 -0.1189 -0.1230  0.1440
27463W        W44310   6.685  15.457   4.754 -0.1068  0.2027 -0.0632
27464W        W44311   8.358   5.935   4.252  0.3362  0.1599  0.1370
27465W        W44312  13.866  16.202   1.657 -0.1701  0.2199  0.3601
27466W        W44313   5.067   0.234  12.631  0.2880  0.2348  0.0150
27467W        W44314  12.357   3.809  13.080 -0.1943  0.1567 -0.0695
27468W        W44315   2.434   4.644  12.718  0.0590 -0.2310  0.1337
27469W        W44316  17.830  11.519   0.080  0.1022 -0.1821 -0.3310
27470W        W44317  15.994   3.738  13.733  0.0765  0.1746 -0.3114
27471W        W44318  17.352   9.925   3.784  0.2223  0.2125  0.0883
27472W        W44319   4.396  12.897  15.970  0.0031 -0.2933  0.1533
27473W        W44320  17.252   7.884  14.907  0.2897  0.1625  0.0424
27474W        W44321   7.413  15.633  14.701  0.0988 -0.0008  0.5128
27475W        W44322   0.268   5.418  12.337  0.0360  0.4562 -0.0773
27476W        W44323  15.010  12.489   3.257 -0.1335 -0.2265 -0.0203
27477W        W44324   7.596   3.894   4.347 -0.1655  0.4117 -0.0198
27478W        W44325  11.740  15.482  12.371 -0.0328  0.2868 -0.2301
27479W        W44326   1.111  10.360  12.598 -0.1233 -0.0605  0.2414
27480W        W44327   3.321   9.422   3.836 -0.1569  0.2273 -0.2491
27481W        W44328   5.567  13.006  12.929 -0.3340 -0.1478  0.0926
27482W        W44329   3.477   8.251  12.570  0.2269 -0.0701 -0.0280
27483W        W44330   5.411  17.453  11.838 -0.0285 -0.1263 -0.1225
27484W        W44331   7.419  14.059   0.905 -0.0907 -0.1504  0.0565
27485W        W44332  17.567   6.336  13.431 -0.1547  0.0773  0.1587
27486W        W44333   3.622  10.366   5.316 -0.1077 -0.2906  0.0074
27487W        W44334   7.306   1.747   0.297 -0.3460 -0.2652 -0.0056
27488W        W44335  12.652  15.279  12.476  0.1476 -0.0340 -0.3044
27489W        W44336   2.791   3.413  14.385  0.2559 -0.2910  0.1417
27490W        W44337  17.707  15.880   1.683 -0.0259  0.0135 -0.1032
27491W        W44338   4.018  13.794  16.609  0.0200  0.4551 -0.1201
27492W        W44339   4.711  13.924  15.678 -0.1427 -0.0524 -0.1334
27493W        W44340   5.080   3.756   2.649 -0.1423  0.1608  0.2224
27494W        W44341  13.909  13.321  15.148  0.2835  0.2938  0.1440
27495W        W44342   6.579  14.264  15.332  0.1125  0.3360 -0.1770
27496W        W44343  17.335   4.636  14.650  0.1207  0.0410  0.3736
27497W        W44344  13.400   3.635   1.234  0.0755 -0.4653 -0.1937
27498W        W44345   7.919  13.510   5.731 -0.1106 -0.1434 -0.0059
27499W        W44346   7.394  16.904   4.657  0.0019  0.3346 -0.3433
27500W        W44347   6.691   3.814  16.456  0.3392  0.1301  0.0119
27501W        W44348  11.449   6.530  15.683 -0.1700  0.2070  0.1277
27502W        W44349   0.540   6.896  12.543 -0.0630  0.0918  0.2465
27503W        W44350  15.935   7.954  12.191 -0.3070  0.0986 -0.1386
27504W        W44351   7.096   9.072  11.860 -0.1467 -0.2729 -0.0523
27505W        W44352  10.223   9.838   5.539 -0.1388  0.1128  0.1505
27506W        W44353   6.011  10.181  14.734  0.0382 -0.0304 -0.5562
27507W        W44354  12.298  15.707  16.378  0.1246  0.1821  0.1209
27508W        W44355  14.240  17.858   3.229 -0.2409  0.0468  0.1041
27509W        W44356   8.601  13.475   1.901 -0.1755 -0.1867 -0.3714
27510W        W44357   4.371   4.172  15.895  0.3133 -0.0143  0.1433
27511W        W44358   8.970   8.680  14.691  0.4731 -0.2740 -0.0896
27512W        W44359  12.283   8.040   2.928 -0.1978 -0.0152  0.0349
27513W        W44360   7.114  15.011   4.513  0.1208  0.3460 -0.1024
27514W        W44361  17.869  15.467   4.928 -0.1369 -0.0759  0.1909
27515W        W44362   3.592  10.995   3.477  0.0197  0.1182 -0.2204
27516W        W44363  17.389  15.667  14.971  0.0080  0.2572  0.0742
27517W        W44364   3.028  11.864  14.350 -0.1303  0.1050 -0.0650
27518W        W44365  14.449   6.282  11.662 -0.3379  0.1034  0.3444
27519W        W44366  11.384  15.293   1.602  0.0137  0.4116  0.2587
27520W        W44367  15.094   6.966  13.895  0.2944 -0.0652  0.0496
27521W        W44368   2.006  12.426  11.963 -0.2056 -0.2086  0.1454
27522W        W44369   2.041   2.035  14.691  0.5350 -0.1591  0.2181
27523W        W44370  13.319   1.540   1.602 -0.1989  0.1372  0.2078
27524W        W44371   0.887   8.437  12.220  0.1606 -0.0344 -0.0278
27525W        W44372   1.876   5.326   2.785 -0.0569  0.0427  0.1423
27526W        W44373  12.005   3.802   4.306  0.0826  0.1076 -0.0839
27527W        W44374  14.436  10.314  12.972  0.1824  0.0358  0.3624
27528W        W44375   4.668  15.079  13.213  0.1598  0.1162  0.0648
27529W        W44376  10.928   7.548   1.149 -0.0583 -0.0539 -0.4151
27530W        W44377  12.230   1.303   1.270  0.0460 -0.0078 -0.2458
27531W        W44378  11.533  13.883  11.521  0.1132 -0.1545  0.1818
27532W        W44379  10.601  13.036   5.517  0.2133 -0.1544 -0.1099
27533W        W44380  15.259   2.956  12.342 -0.3505  0.3261  0.0206
27534W        W44381  13.206   3.299  11.492 -0.1242 -0.1961  0.2398
27535W        W44382   3.022  12.760   0.556 -0.1093  0.0088 -0.1674
27536W        W44383   5.775   3.606  11.606 -0.0307 -0.2149  0.4092
27537W        W44384  13.774  17.240   2.596  0.0010 -0.0800 -0.1846
27538W        W44385  10.262   9.938  14.000  0.4004 -0.1930 -0.1364
27539W        W44386   3.301  10.537   3.739  0.0788  0.1274  0.1191
27540W        W44387   3.236  14.841   3.556 -0.0811  0.2103 -0.1032
27541W        W44388  14.137  10.435  15.121 -0.0341 -0.0139  0.2722
27542W        W44389  14.461   6.025  14.832 -0.0641  0.1533  0.0605
27543W        W44390  16.099  10.700   4.523 -0.1798 -0.2417 -0.1961
27544W        W44391  10.264   6.040  12.396 -0.2200  0.2822 -0.0286
27545W        W44392  13.744   1.800   5.042 -0.0628  0.1940 -0.1509
27546W        W44393   9.989   4.927   3.973  0.0067 -0.0680  0.1876
27547W        W44394  17.913  10.829   0.112  0.4086 -0.2216  0.0064
27548W        W44395   8.204   3.797  12.666  0.1083 -0.0968  0.0569
27549W        W44396  15.953  10.217   2.683 -0.2247  0.0107 -0.0474
27550W        W44397  12.019   0.090   4.362 -0.1828  0.1432  0.1084
27551W        W44398   3.701  12.361   2.422  0.1368  0.1606  0.2374
27552W        W44399  13.618  15.682  15.059  0.3089  0.2655 -0.2605
27553W        W44400   3.172  18.014  14.587 -0.2256  0.0906 -0.1643
27554W        W44401   8.106  14.279   5.760  0.1205  0.0965 -0.1953
27555W        W44402  16.828   0.734  12.862  0.1646 -0.0609  0.1234
27556W        W44403  13.227   9.544  15.365  0.0383 -0.0505 -0.3735
27557W        W44404   5.549  17.654   2.132  0.1388 -0.2506  0.0641
27558W        W44405   0.100   7.162   0.123  0.1620 -0.3533 -0.0549
27559W        W44406   5.178  13.063  16.606 -0.2193  0.1217  0.2158
27560W        W44407   8.751  18.071  12.999 -0.2751 -0.2264 -0.0251
27561W        W44408   3.909   0.621  12.190 -0.1003 -0.0741  0.2515
27562W        W44409  11.086   9.973  13.661  0.0534  0.1818  0.2812
27563W        W44410   6.656   5.736   5.774  0.1847  0.1242 -0.0398
27564W        W44411   2.101   5.566   1.803 -0.1106 -0.1764 -0.3502
27565W        W44412   3.942   1.074  12.551  0.2619  0.2574 -0.1347
27566W        W44413  14.077   1.522   1.998 -0.0271 -0.1874  0.1223
27567W        W44414   8.577   8.785  12.472 -0.2128 -0.1667 -0.0228
27568W        W44415   6.629  17.772  12.594  0.4860 -0.1279  0.0211
27569W        W44416   3.055   6.616  14.848 -0.0961 -0.1782  0.0745
27570W        W44417  13.063  14.631   1.518 -0.2217  0.0603 -0.0902
27571W        W44418  12.956  17.664   2.448  0.2485  0.2165  0.4735
27572W        W44419   6.358   8.184   5.865  0.0814  0.3754  0.0653
27573W        W44420   8.543   3.150  13.350  0.4810 -0.1183  0.0311
27574W        W44421  13.359   5.186  12.990 -0.2767  0.1439  0.2169
27575W        W44422   8.779  11.619   0.845 -0.1421 -0.2310 -0.1068
27576W        W44423   8.599   7.008   2.711 -0.3165  0.0812 -0.2557
27577W        W44424   8.051   3.988  13.134  0.2561 -0.0740 -0.0208
27578W        W44425   2.575   2.599  15.258  0.1518 -0.1866 -0.1602
27579W        W44426   8.855   5.908  12.280 -0.1250  0.0311 -0.1680
27580W        W44427  15.371   5.661   4.144  0.1034  0.0717 -0.1270
27581W        W44428   4.289  15.152  13.551 -0.0788  0.3111  0.2993
27582W        W44429  13.021   9.484  12.317 -0.0361  0.0576 -0.1473
27583W        W44430  13.375   9.594  14.928  0.0482  0.0386 -0.0560
27584W        W44431  15.744   8.574  15.927  0.1138  0.0104 -0.0703
27585W        W44432  11.301   3.745  10.678 -0.0318 -0.1236  0.0815
27586W        W44433   0.085  18.070  11.702  0.0632 -0.2120  0.1446
27587W        W44434   2.030   5.986  12.809 -0.0982 -0.0723  0.1017
27588W        W44435   5.779  13.028  15.917  0.2061 -0.0574  0.0326
27589W        W44436  15.362   5.202  16.555 -0.0504 -0.2072  0.1994
27590W        W44437   5.647  10.848  13.099  0.0257 -0.1017  0.0307
27591W        W44438   0.511   0.750  15.906  0.2284 -0.0646  0.0523
27592W        W44439  12.668   0.575   4.568 -0.0133  0.0762 -0.2561
27593W        W44440  13.746   8.018   5.092 -0.1480 -0.3923 -0.0765
27594W        W44441   6.777   6.879  14.784 -0.2983 -0.3793  0.0668
27595W        W44442  15.776  14.968  12.402  0.2443  0.1018  0.0179
27596W        W44443   7.980  15.797   2.897 -0.2716 -0.0882  0.1173
27597W        W44444  15.637   6.808  14.616 -0.2196  0.0955 -0.2883
27598W        W44445   9.454   5.610   3.385 -0.2115  0.1913 -0.4373
27599W        W44446  16.722   1.246  10.642 -0.1754 -0.1345 -0.1226
27600W        W44447   6.411  15.465   4.174 -0.2483 -0.3879 -0.2147
27601W        W44448  15.386   9.501  14.630  0.0535 -0.0099  0.0359
27602W        W44449   2.857  11.642   0.419  0.0579 -0.0585 -0.0007
27603W        W44450  14.751  11.713   3.959 -0.1369  0.0600  0.1141
27604W        W44451  16.014   3.108   2.538 -0.0654  0.0504  0.0587
27605W        W44452   7.917   6.695   3.832  0.0851 -0.1491  0.1487
27606W        W44453   3.873   9.987  12.499  0.2370 -0.1253 -0.0276
27607W        W44454   5.310   5.603   4.589 -0.1807 -0.2886 -0.0203
27608W        W44455   6.993  10.235  11.783  0.2692  0.1293  0.0271
27609W        W44456   0.019  13.520   2.818  0.0900  0.2026  0.0330
27610W        W44457   6.342  16.764  12.706 -0.3442  0.0118 -0.1597
27611W        W44458   8.417  10.982  13.556  0.0880  0.0139 -0.2044
27612W        W44459  10.134   4.220   0.068  0.3664  0.2564 -0.1039
27613W        W44460  14.138  10.598   4.208 -0.0774 -0.0074  0.0128
27614W        W44461   1.466   0.052   6.274 -0.0534 -0.1081 -0.1575
27615W        W44462  12.227  11.485   4.240 -0.2671  0.0523  0.1317
27616W        W44463  15.627  14.298   3.784  0.2415 -0.0063 -0.0351
27617W        W44464   3.307  16.127   3.896 -0.2042  0.0083 -0.1804
27618W        W44465   5.204   5.641   0.135 -0.2546  0.0419  0.0523
27619W        W44466   2.937   1.435  16.497 -0.4565  0.1812  0.2212
27620W        W44467   9.111   4.485  15.862 -0.1114  0.2704  0.2300
27621W        W44468  12.655  12.335  15.257 -0.3506  0.1243  0.0074
27622W        W44469  10.861   4.954   5.036 -0.0219  0.1616 -0.2918
27623W        W44470  17.797  15.562   2.939 -0.0794 -0.1925 -0.1152
27624W        W44471  15.078   2.607   4.089 -0.1469  0.1052 -0.0766
27625W        W44472   2.848   5.136  13.853 -0.1996 -0.1835 -0.0685
27626W        W44473   8.973   7.346   2.888 -0.2030  0.4956  0.0085
27627W        W44474   5.118   6.440   4.287 -0.0932 -0.1743 -0.2719
27628W        W44475   3.754   0.046   5.721 -0.2592  0.0719  0.1089
27629W        W44476  14.937  12.343  14.235 -0.1420 -0.1001 -0.2213
27630W        W44477  16.153   4.742   3.163 -0.0027  0.0017 -0.0586
27631W        W44478  14.901  17.723  16.117 -0.2066 -0.2443 -0.3608
27632W        W44479  14.293   8.422   0.056  0.0943  0.3339 -0.1492
27633W        W44480  13.784  17.842  11.394  0.1224  0.0175  0.2482
27634W        W44481  13.233  16.429  15.996  0.0754  0.2684  0.3710
27635W        W44482   8.400  17.868  12.034 -0.0999  0.2841  0.2304
27636W        W44483   9.523   1.569  15.277  0.0115 -0.0249  0.0386
27637W        W44484  14.047   5.543   5.768  0.0427  0.1217  0.0725
27638W        W44485   9.972  17.249  11.724  0.0876 -0.0934 -0.0874
27639W        W44486   3.004   7.093   4.826 -0.1928 -0.1309 -0.1632
27640W        W44487  10.068   1.834  11.805 -0.0816  0.1868 -0.3460
27641W        W44488   2.511  13.732   4.945 -0.0257  0.1879 -0.1390
27642W        W44489   6.225  14.956   4.161 -0.0644 -0.1098  0.0965
27643W        W44490  13.840  15.485   3.220 -0.0428 -0.0702 -0.3368
27644W        W44491   9.092   9.121   2.389  0.1471  0.0004 -0.2144
27645W        W44492  17.668   9.157  12.486 -0.3021 -0.0321  0.1118
27646W        W44493   4.640  13.542   5.760  0.0317  0.0008  0.1400
27647W        W44494   5.677   9.765  14.750  0.2459  0.0684  0.0006
27648W        W44495  12.469   4.140   2.060  0.0547 -0.0147 -0.4882
27649W        W44496   8.487  16.363  14.613  0.0896 -0.0522 -0.1911
27650W        W44497  18.068  12.644  15.224  0.2043  0.1509 -0.0882
27651W        W44498   8.586   2.293   0.085 -0.2218 -0.1004  0.2435
27652W        W44499  16.204   3.965  12.192  0.0538  0.1736 -0.5140
27653W        W44500  12.205   3.389   4.238  0.0444 -0.0082 -0.0924
27654W        W44501  13.284   3.120   4.299 -0.1994  0.2091  0.2472
27655W        W44502   8.275   6.158   0.556  0.1337 -0.0055 -0.0195
27656W        W44503   5.066   2.166   4.192 -0.3710  0.1615 -0.1227
27657W        W44504  17.026   7.438   3.311 -0.1515 -0.1903 -0.2085
27658W        W44505  10.344  10.113  12.401  0.1756  0.3343  0.0689
27659W        W44506   4.745   5.012  15.722 -0.0134  0.1467  0.0426
27660W        W44507   9.808   0.904  12.503 -0.2010 -0.0907  0.0949
27661W        W44508  15.358   9.720   4.280 -0.2864  0.1783 -0.1810
27662W        W44509  16.631   3.014  11.579 -0.2557  0.0785 -0.2639
27663W        W44510   1.891  16.685  16.125 -0.2635  0.2280 -0.2747
27664W        W44511  10.171  11.473   3.987  0.2771  0.0875  0.1045
27665W        W44512   5.013  16.532  15.998  0.1159 -0.1097  0.1207
27666W        W44513  14.697  16.326   3.067 -0.0622 -0.0443 -0.0020
27667W        W44514   6.722   0.926   4.244  0.0918  0.0917  0.0825
27668W        W44515   5.841   3.640  12.204 -0.0011 -0.1563  0.2281
27669W        W44516   4.474  11.925   3.514 -0.2113 -0.1862 -0.2540
27670W        W44517   7.601  10.255  15.705  0.1525 -0.0802 -0.0062
27671W        W44518  13.218   4.928   0.475  0.0611  0.4115  0.0756
27672W        W44519  11.245  10.975   3.525  0.2520 -0.0913 -0.1592
27673W        W44520   8.917   5.459  12.185  0.2036  0.0789  0.0965
27674W        W44521  13.956  17.340  13.594  0.0642  0.0033 -0.0067
27675W        W44522  14.493   5.077   1.413  0.2137  0.1047  0.2880
27676W        W44523  16.275  15.604   0.641 -0.2739 -0.2656 -0.0236
27677W        W44524  14.777   7.565  13.107  0.2972 -0.2250 -0.0626
27678W        W44525  17.623  15.116  13.152  0.1243  0.1984  0.0622
27679W        W44526   8.740  15.822   5.152 -0.2161 -0.3008  0.1477
27680W        W44527  17.968   9.105   3.402  0.2866  0.0597 -0.1084
27681W        W44528  11.663   6.041  14.514  0.0077  0.0793 -0.0274
27682W        W44529   3.854  16.282  13.340  0.0561  0.0618  0.1411
27683W        W44530  13.215   2.790   2.236  0.2692  0.1160 -0.2046
27684W        W44531   3.463   2.223  15.204  0.2263 -0.2220  0.0296
27685W        W44532  14.014  16.068  12.472  0.3832 -0.2304  0.1178
27686W        W44533   9.170  11.136   1.345 -0.1694 -0.2277 -0.0650
27687W        W44534   5.949  12.786   0.676 -0.2373 -0.2262  0.2043
27688W        W44535  12.091  10.104  15.853 -0.0570  0.0798  0.0605
27689W        W44536   1.135   8.164  16.350  0.1948  0.0216 -0.1645
27690W        W44537  13.281  10.974   0.356 -0.1894 -0.0030  0.1821
27691W        W44538  11.877   6.131   2.236 -0.2827  0.1941 -0.2020
27692W        W44539   2.562   7.470  14.188 -0.1927  0.0239  0.5526
27693W        W44540  16.072   4.095  13.114  0.1879 -0.2155  0.3987
27694W        W44541  10.700   0.766   2.760  0.1109  0.2194  0.0741
27695W        W44542  11.329   5.887  16.447  0.0966  0.0467 -0.0520
27696W        W44543  14.038  12.816  13.476 -0.3538 -0.0106  0.1881
27697W        W44544   3.596  15.559   1.063  0.0213 -0.0132  0.0985
27698W        W44545   7.721   1.422  13.732 -0.1053  0.1324  0.1492
27699W        W44546  12.044   6.514   3.869 -0.1460 -0.1394  0.2845
27700W        W44547   9.376   5.986  14.311  0.2597 -0.1161 -0.3864
27701W        W44548   8.855   5.806   4.021  0.0547 -0.1885 -0.0755
27702W        W44549  12.690   5.458   5.869  0.1469 -0.1346  0.0134
27703W        W44550   5.674  14.545  14.604  0.3739 -0.0488  0.0694
27704W        W44551   7.254   7.678  15.165 -0.1487  0.1866  0.0966
27705W        W44552  17.303   4.096   1.567 -0.0439 -0.0599  0.0106
27706W        W44553   8.132  14.672  14.090 -0.1704  0.1678  0.0003
27707W        W44554   6.610   9.198   0.111 -0.3985 -0.0367  0.0366
27708W        W44555  14.098  17.082  15.134  0.1351 -0.0632 -0.1443
27709W        W44556   7.182  13.614  13.864  0.2108  0.1238  0.0219
27710W        W44557   1.840   8.160  13.245 -0.1538  0.0655  0.1396
27711W        W44558  17.755   7.883  14.918  0.1996  0.1763 -0.2747
27712W        W44559  13.358  13.167   4.646  0.0874 -0.0035 -0.0725
27713W        W44560  14.586  15.836  16.229 -0.1579  0.0783  0.1230
27714W        W44561   2.859  12.211  13.199 -0.1749 -0.1704  0.2211
27715W        W44562  15.971   9.577   0.409  0.1305  0.1645 -0.1101
27716W        W44563  10.513  15.915  12.405 -0.1673 -0.3151 -0.3241
27717W        W44564  13.669   1.905   0.808  0.1375  0.0315  0.0959
27718W        W44565  12.743   8.181  16.387  0.2023  0.0630  0.2291
27719W        W44566   8.429   3.944   0.465  0.2436  0.1025  0.0913
27720W        W44567   0.970   8.126   3.545 -0.0170  0.3211  0.0266
27721W        W44568   5.720   3.237   5.107 -0.0833  0.2356 -0.1906
27722W        W44569  14.620   1.980   4.960  0.2052  0.0872 -0.2390
27723W        W44570  12.088   5.284  10.560 -0.1972  0.0333  0.4456
27724W        W44571   4.268  14.512  14.545 -0.1396 -0.4964  0.0481
27725W        W44572   4.418   0.921   4.261 -0.1258  0.0750  0.0397
27726W        W44573  15.781   7.535  11.908  0.2389 -0.1451  0.0641
27727W        W44574   7.456   4.018   6.214 -0.1641  0.1652 -0.0867
27728W        W44575  15.092   9.487   3.488 -0.1567  0.0503  0.0335
27729W        W44576  12.779   1.571  11.807 -0.3249  0.1012 -0.0821
27730W        W44577  14.333   1.124   3.354 -0.5637  0.1687 -0.1427
27731W        W44578  14.534  14.274  12.766 -0.0759 -0.0675 -0.0248
27732W        W44579   4.990   5.402  13.139 -0.1963 -0.4317  0.0927
27733W        W44580  10.260  14.425   2.639 -0.2263 -0.1542  0.3205
27734W        W44581  11.422  12.711  16.176 -0.0618  0.0483  0.1213
27735W        W44582  11.020   8.440   2.058 -0.1559  0.1893 -0.1617
27736W        W44583   3.539   3.012   1.621 -0.0337  0.1592 -0.0633
27737W        W44584   9.836   1.560   5.192  0.0128 -0.2530  0.3109
27738W        W44585   5.890  12.704   2.258  0.2849  0.1306 -0.1013
27739W        W44586  16.667   4.723   3.018  0.3318  0.1918 -0.1957
27740W        W44587   8.456   0.155  14.293 -0.0680  0.2943 -0.3867
27741W        W44588  17.807  13.564   5.109 -0.2955  0.1652 -0.1082
27742W        W44589   5.082   8.872  16.261  0.3092  0.0614 -0.1198
27743W        W44590   9.679   0.464   2.141 -0.5667  0.3408  0.1292
27744W        W44591   4.793   5.332  16.663 -0.0233  0.0093 -0.0713
27745W        W44592  12.054   9.439   3.178  0.0315 -0.0095  0.3366
27746W        W44593   4.607  10.282  11.802  0.1938 -0.1138 -0.0410
27747W        W44594  12.231  10.489   5.282  0.0347 -0.3655 -0.0369
27748W        W44595  17.857   5.983   3.517  0.3760  0.0080 -0.0986
27749W        W44596  15.699   5.981   1.411  0.0662  0.3488 -0.1169
27750W        W44597   3.261   5.957  14.535  0.0535  0.1513 -0.3402
27751W        W44598  11.745  15.179  15.010 -0.0912 -0.2886  0.2895
27752W        W44599   8.107  14.008   2.042  0.2840 -0.1159 -0.2494
27753W        W44600   2.191   5.817   3.517 -0.0075  0.0153 -0.0361
27754W        W44601  16.823   6.250  13.892 -0.3321 -0.1343 -0.1798
27755W        W44602  15.794  16.916   1.551 -0.0488  0.3396 -0.1387
27756W        W44603   4.204  10.645  16.542 -0.1483 -0.2303 -0.0571
27757W        W44604   4.538  13.125   4.939  0.1766 -0.0484 -0.0164
27758W        W44605   5.318   5.619  14.251  0.3647 -0.1995  0.0065
27759W        W44606  11.907  11.969   2.737  0.1219 -0.1636  0.2147
27760W        W44607   0.746  11.523   2.330  0.0300 -0.0193 -0.0618
27761W        W44608   5.296  12.725  15.177 -0.0023 -0.0826  0.0315
27762W        W44609  14.575  11.948   2.368 -0.2721 -0.0381 -0.4210
27763W        W44610  14.704  16.819  12.132  0.2712  0.0131  0.0586
27764W        W44611  12.050   5.842  12.302 -0.3613  0.2380 -0.2889
27765W        W44612   1.661   4.137  16.346 -0.1432 -0.1574 -0.0103
27766W        W44613  12.280   6.418   0.612 -0.1503  0.2097 -0.0785
27767W        W44614   7.138  14.661   5.113  0.0410 -0.1564 -0.4689
27768W        W44615  16.495  10.688  11.515  0.2863 -0.3451 -0.2026
27769W        W44616   7.243   2.421  13.860 -0.2950  0.1680  0.0477
27770W        W44617   4.904   9.534   2.542 -0.3202 -0.0110  0.1613
27771W        W44618   5.334   2.343  14.877  0.0986 -0.2907 -0.2758
27772W        W44619   1.049   8.307  14.936  0.2466 -0.1479 -0.3001
27773W        W44620   2.862  15.912   0.847  0.0571 -0.0089 -0.1637
27774W        W44621  15.176   2.106  11.842  0.2422 -0.3411  0.0055
27775W        W44622  11.342   4.748   3.118 -0.1139 -0.0373  0.1000
27776W        W44623   5.315  11.530   4.955  0.2074  0.1767  0.0360
27777W        W44624   2.689   4.834  11.188 -0.2958 -0.1990  0.0026
27778W        W44625  12.504  12.717   3.948 -0.3140  0.1971  0.1850
27779W        W44626  10.982   9.501  13.607 -0.0216  0.1774 -0.0840
27780W        W44627   5.094  10.632  11.809 -0.1971 -0.1888  0.0014
27781W        W44628  15.927  10.452   4.100 -0.2663 -0.2534  0.1078
27782W        W44629   3.867  12.631   1.468 -0.1261 -0.3425  0.3256
27783W        W44630   0.537   4.892  16.082 -0.2775  0.0772  0.1398
27784W        W44631  10.301  10.604   0.893 -0.0156 -0.1552  0.1846
27785W        W44632   8.762  13.679   1.318 -0.0225 -0.2230 -0.0023
27786W        W44633  14.922  16.141   0.212 -0.0028  0.3209 -0.0373
27787W        W44634  13.322   7.733   4.963 -0.1143 -0.1021 -0.4011
27788W        W44635   8.783   3.357   2.298  0.1459  0.0989  0.0619
27789W        W44636   4.368   2.375  11.377  0.0141  0.0653  0.0069
27790W        W44637  11.485  12.741  12.681  0.1690 -0.1926  0.4279
27791W        W44638  12.571   2.385   5.244  0.1069  0.0338 -0.0769
27792W        W44639  17.133   5.897  12.612  0.0632 -0.0545  0.0086
27793W        W44640  14.360  15.376   0.317  0.2323  0.2954 -0.1310
27794W        W44641   4.879  18.069   0.280 -0.1289 -0.2686 -0.1361
27795W        W44642   3.254   9.974   2.298  0.2008  0.0105 -0.0656
27796W        W44643  10.897   0.244   5.710  0.0164  0.2634 -0.2524
27797W        W44644   7.422  18.003   1.371  0.0143  0.1630 -0.0992
27798W        W44645   7.115  14.010  14.875 -0.1796  0.0723  0.0288
27799W        W44646  12.851  15.145   5.245  0.3375 -0.0174 -0.5252
27800W        W44647   1.174  10.565  14.342 -0.0629 -0.0177 -0.1785
27801W        W44648   3.025   0.406   3.134  0.2038 -0.1404 -0.0117
27802W        W44649   8.468  13.282  16.653  0.1134 -0.2566  0.0542
27803W        W44650  13.267   0.519  11.812 -0.2958 -0.0966 -0.0513
27804W        W44651   7.520  14.543   0.595 -0.2560  0.4674 -0.0772
27805W        W44652   8.134   1.587   0.658 -0.0104  0.0381 -0.0139
27806W        W44653   5.274  15.726   0.159  0.0917 -0.2308 -0.0270
27807W        W44654  10.839   5.892   2.319 -0.1293 -0.1899  0.2774
27808W        W44655   2.594  14.030  14.526  0.1297  0.1948 -0.1394
27809W        W44656  10.117   8.861   2.873  0.0900 -0.0623  0.2078
27810W        W44657   0.018  15.099   1.650 -0.0388 -0.0778 -0.2348
27811W        W44658   3.908  12.203  12.058  0.0346  0.0427  0.0458
27812W        W44659  17.231   0.908  14.649 -0.4190  0.1997  0.4910
27813W        W44660   4.595  18.050   5.865 -0.0764 -0.1282 -0.0805
27814W        W44661  12.307   7.103   5.527  0.3775 -0.0264 -0.4009
27815W        W44662  17.153  17.696  13.142 -0.1350  0.0867  0.0249
27816W        W44663   3.045   8.550  13.416 -0.0242  0.1241 -0.0500
27817W        W44664   4.158   9.053   3.499 -0.1218 -0.0387  0.1824
27818W        W44665  15.639   0.027  14.930 -0.1928 -0.0319 -0.3075
27819W        W44666   3.635   2.647   4.152  0.1601 -0.1342 -0.1116
27820W        W44667  12.363  16.535   3.373 -0.0420 -0.1181  0.0914
27821W        W44668  16.755   5.375   4.748 -0.2197  0.1274 -0.0227
27822W        W44669  15.711   0.037  12.730  0.0240 -0.1004  0.1582
27823W        W44670   9.501  10.475  12.161  0.1871 -0.4219 -0.1260
27824W        W44671  18.043  14.389  15.212  0.3616 -0.4091  0.0502
27825W        W44672  14.429  16.495  11.756 -0.1092  0.0430  0.0851
27826W        W44673  15.670  13.063  16.651 -0.3028 -0.3987 -0.4000
27827W        W44674  15.190   0.843   0.096  0.0402  0.3960 -0.1286
27828W        W44675   3.518  16.848  16.215 -0.0415  0.1812  0.3058
27829W        W44676  14.571  17.307  14.644  0.0114 -0.2690 -0.0834
27830W        W44677   1.726   4.814   3.012 -0.0660 -0.3429 -0.2780
27831W        W44678   7.444  15.489   0.784  0.2714  0.0885  0.0056
27832W        W44679   6.520   7.499   4.371 -0.1331  0.3616  0.0449
27833W        W44680   8.359  10.492   2.423  0.1589  0.1106  0.0226
27834W        W44681   0.464  12.625   3.946  0.3468 -0.0493 -0.1574
27835W        W44682   6.424   5.173   2.435  0.1973  0.0699  0.0154
27836W        W44683   3.610   4.829   1.535 -0.1321  0.3215 -0.0911
27837W        W44684  10.081   4.231   1.958  0.4189 -0.0708 -0.0189
27838W        W44685   5.650   1.500  11.679 -0.0933  0.0675 -0.0700
27839W        W44686  14.883   4.777   1.303  0.1346 -0.2565 -0.0827
27840W        W44687   1.584   2.606  13.575  0.2747 -0.1141  0.0709
27841W        W44688  14.307   8.876   5.992 -0.0279 -0.2065 -0.0536
27842W        W44689  10.228   6.139   1.808  0.2023  0.1000  0.0207
27843W        W44690   9.770  12.944  15.373 -0.1075  0.2001  0.0841
27844W        W44691  15.016  16.963  12.787 -0.1831  0.1067 -0.0189
27845W        W44692  17.515  11.230   4.755 -0.0073 -0.1004 -0.1655
27846W        W44693   2.992   9.612  12.631 -0.1082  0.0359 -0.1782
27847W        W44694  15.272   8.275   0.504  0.1800 -0.1154  0.0017
27848W        W44695   1.307  15.996   5.217  0.0822 -0.3328  0.2144
27849W        W44696  15.012   8.002   2.016 -0.3365  0.0966  0.1409
27850W        W44697  10.958   7.452  11.805  0.2121 -0.2582 -0.1112
27851W        W44698   4.148  13.616   1.358  0.1197  0.3022  0.1929
27852W        W44699  16.442  11.132   5.374  0.2874  0.0150  0.1471
27853W        W44700  15.225   6.164  14.194  0.1217 -0.2494  0.1886
27854W        W44701  17.709   4.099   3.702  0.1701 -0.2474  0.1543
27855W        W44702   6.125  13.367   0.950 -0.0156 -0.1718  0.0004
27856W        W44703  17.049  17.591  10.924 -0.0764 -0.0982  0.0883
27857W        W44704  13.550   0.621   1.260 -0.0524  0.0369  0.1063
27858W        W44705  16.019   1.463   2.137 -0.1493  0.3351 -0.0177
27859W        W44706   9.430   4.273   4.205  0.0442 -0.1064  0.1920
27860W        W44707   8.845   0.686  13.282 -0.0555  0.0121  0.1196
27861W        W44708  12.500   7.330  13.824  0.2613 -0.0669 -0.1320
27862W        W44709   8.168   3.250  15.486  0.0351 -0.1357  0.1799
27863W        W44710   3.389   7.533  10.998  0.2591 -0.1664  0.2477
27864W        W44711   2.180   8.361   4.708 -0.4010  0.2169  0.0822
27865W        W44712   2.749   3.312  12.600 -0.0666 -0.1128 -0.2052
27866W        W44713   3.172   8.616  14.951  0.1845  0.4576 -0.0481
27867W        W44714   7.196   5.386   0.044  0.1752  0.0839  0.2474
27868W        W44715  14.474   3.409   2.275 -0.0111  0.3191 -0.2529
27869W        W44716  17.424  11.120   1.903  0.0872 -0.0429 -0.1156
27870W        W44717  11.664   9.555  12.896  0.1445  0.0046  0.0339
27871W        W44718  12.501   8.201  12.365  0.1471 -0.0172 -0.1243
27872W        W44719   5.742  11.617   5.830  0.0127 -0.0641 -0.1010
27873W        W44720   0.184  16.877  11.656 -0.1577  0.1970 -0.1014
27874W        W44721  17.607   8.365  11.060  0.0226  0.4752  0.3378
27875W        W44722   3.630  16.261   2.119  0.0004  0.0735 -0.0707
27876W        W44723   1.664  12.055   1.920 -0.0003  0.0908  0.2146
27877W        W44724   6.895   0.402  13.143 -0.2493  0.1726  0.0760
27878W        W44725  15.944  11.823  10.755 -0.1536  0.1359  0.1480
27879W        W44726   6.459   4.682   4.249 -0.1262  0.1217  0.1791
27880W        W44727   5.821   4.445  15.713  0.0261 -0.0040  0.1875
27881W        W44728  17.423   6.987  14.254 -0.1346 -0.2137  0.0238
27882W        W44729  12.231   7.672  15.746  0.2930 -0.0930 -0.1723
27883W        W44730   6.217   0.242  14.117 -0.1834  0.1297  0.0491
27884W        W44731   8.913  17.218  13.609  0.2584 -0.3685  0.0936
27885W        W44732   7.844  15.518  12.427 -0.1979 -0.4291 -0.0110
27886W        W44733   9.359  15.895  13.708  0.1628 -0.2456 -0.1650
27887W        W44734   7.062  17.157   0.119 -0.4530 -0.0649 -0.1702
27888W        W44735   0.396   7.966  11.446 -0.0579  0.0351 -0.1257
27889W        W44736  12.656   8.962   0.620 -0.0746 -0.0494  0.0641
27890W        W44737  13.120  16.824   3.680  0.4290  0.1096 -0.3210
27891W        W44738  17.009  10.699  14.865 -0.0607 -0.1002 -0.1456
27892W        W44739   1.256   4.596  14.703 -0.0662  0.0115  0.1015
27893W        W44740  11.617  14.744   2.469 -0.1151  0.2554  0.1455
27894W        W44741  17.163   7.374   4.321  0.1320  0.1165 -0.0670
27895W        W44742   6.620   1.025  12.931 -0.1401  0.3156 -0.0075
27896W        W44743   9.636  13.868  15.382  0.3481 -0.1992 -0.3345
27897W        W44744  13.676   6.343   4.833 -0.0839  0.1363  0.4608
27898W        W44745  10.567   9.571  16.249  0.2457  0.0989 -0.2274
27899W        W44746   9.528   8.938   1.042 -0.0741 -0.1082  0.3658
27900W        W44747  15.280   5.332   4.602  0.2943  0.0141  0.1433
27901W        W44748  15.514  13.377   2.698 -0.3080  0.2289 -0.1349
27902W        W44749   3.237   8.188   0.897 -0.1538 -0.1026 -0.0781
27903W        W44750  17.463  10.835   0.525  0.0535 -0.2265 -0.0849
27904W        W44751  12.723  10.645  16.121 -0.0811  0.0085  0.2033
27905W        W44752   4.122  17.934   5.110  0.2131 -0.5113  0.1350
27906W        W44753  17.223  12.865  12.956 -0.1042  0.2665 -0.1592
27907W        W44754   3.453  15.302   5.989  0.0085 -0.1769 -0.0505
27908W        W44755  17.705  10.447  14.897  0.0519  0.0810 -0.1292
27909W        W44756   2.691   0.200   4.666  0.1313  0.2596 -0.1240
27910W        W44757   2.487   3.849   0.089  0.1066 -0.1869  0.3368
27911W        W44758  12.873  17.152  13.354  0.1538 -0.1718 -0.0182
27912W        W44759  12.369   6.159   5.116 -0.0613  0.1203  0.1729
27913W        W44760  15.376   8.936   4.631 -0.0479 -0.0606  0.0532
27914W        W44761   8.698  17.393   0.641  0.0867  0.2339  0.3522
27915W        W44762  11.347   8.975   5.683 -0.0680 -0.1316 -0.3425
27916W        W44763   0.839  17.114   0.338 -0.0414 -0.2639  0.2071
27917W        W44764  13.114   9.086  14.698 -0.1769 -0.0003 -0.0166
27918W        W44765  12.605  15.468  15.986 -0.2048  0.0917  0.1715
27919W        W44766  10.525  13.259  14.042  0.0936  0.3348  0.0632
27920W        W44767  13.012  17.184   0.542  0.0217 -0.2989 -0.0111
27921W        W44768  13.237  16.073  11.332 -0.1491 -0.0652 -0.1831
27922W        W44769  16.775   6.857   1.277  0.2990 -0.1248 -0.1051
27923W        W44770   7.821  10.384  14.116 -0.2514  0.2318  0.1325
27924W        W44771  12.709   8.604  16.023 -0.1125  0.2241 -0.2130
27925W        W44772  14.694  10.559   2.944  0.0143  0.3513  0.1070
27926W        W44773   9.398   3.926   1.326 -0.0833  0.0630 -0.0825
27927W        W44774  17.455  12.130   2.161 -0.0631 -0.1697  0.6380
27928W        W44775  12.249  16.483   1.969  0.1134  0.3129 -0.1141
27929W        W44776   7.722  16.978  14.297 -0.3100  0.0177 -0.1035
27930W        W44777   4.344  13.235  12.903  0.1029 -0.0533 -0.1432
27931W        W44778  16.040   3.452   1.119 -0.1658  0.0183 -0.1113
27932W        W44779   3.470   5.039  14.299 -0.0039  0.0016 -0.1004
27933W        W44780  16.741   2.786   2.118  0.0153 -0.0467 -0.1991
27934W        W44781   7.834  10.100   4.086 -0.0632  0.3292 -0.1130
27935W        W44782  14.411   5.980   3.471  0.1852  0.2272  0.1568
27936W        W44783  10.198   6.910  16.587 -0.0366  0.0549 -0.0878
27937W        W44784   7.504   4.785   4.383 -0.0849 -0.0122 -0.0244
27938W        W44785   3.282  13.157  14.882 -0.1857 -0.1413 -0.0394
27939W        W44786  17.370   9.336  14.706  0.0561  0.0574 -0.0227
27940W        W44787  16.037  17.411  14.649  0.2614 -0.2212 -0.0246
27941W        W44788  12.943  15.637  16.364  0.3869 -0.1568  0.0450
27942W        W44789   6.039  16.693   4.987 -0.1467  0.0030  0.3117
27943W        W44790  15.451   3.101  16.061  0.0056 -0.0148 -0.1190
27944W        W44791  11.695  14.836  15.928  0.1395 -0.1122  0.2137
27945W        W44792  15.422   4.589   5.827  0.1612  0.1457  0.3410
27946W        W44793   9.352   5.627   2.716  0.3217  0.0142 -0.0870
27947W        W44794   0.892  17.920  12.312 -0.0933 -0.0368 -0.0901
27948W        W44795   9.640   7.274  14.915 -0.0115  0.0126  0.0329
27949W        W44796  12.450   6.823   3.853  0.0621  0.0531 -0.1063
27950W        W44797   5.663  17.997   2.883  0.0364  0.1405 -0.4623
27951W        W44798   7.662   9.459  14.999  0.1186 -0.0876  0.0626
27952W        W44799  14.493  17.886   2.745 -0.1339 -0.0301 -0.4445
27953W        W44800   0.108   0.959   5.803 -0.1302  0.2687 -0.3548
27954W        W44801   8.300   4.648   5.724 -0.1984  0.0127  0.3919
27955W        W44802   1.459   0.244  13.488  0.3123  0.2379 -0.0606
27956W        W44803  10.674  15.409  11.647  0.0032 -0.1935 -0.0425
27957W        W44804  13.902   0.825  15.428 -0.0094  0.1739  0.0197
27958W        W44805  17.425   0.865  16.476  0.0749 -0.1489  0.0720
27959W        W44806   1.886   6.964   3.656 -0.0100 -0.3156  0.2208
27960W        W44807   8.707   8.326  12.260 -0.1302  0.0537 -0.2684
27961W        W44808   7.593  14.047  12.386  0.3059 -0.0699  0.3411
27962W        W44809  14.839  15.146  12.752  0.0281  0.2009  0.0438
27963W        W44810   8.775  15.993   2.563 -0.1932 -0.0696  0.1635
27964W        W44811  10.880   0.932   4.380 -0.1569  0.2356 -0.0730
27965W        W44812  16.236  11.741   3.267 -0.2445 -0.0444  0.0773
27966W        W44813  12.251  11.346   5.064 -0.0112 -0.2625  0.1010
27967W        W44814   2.207  11.416  13.828  0.1424 -0.0240 -0.0669
27968W        W44815  11.899  17.367  12.407 -0.2188  0.2694 -0.1311
27969W        W44816   5.117  16.427   3.888 -0.2807  0.3656 -0.0973
27970W        W44817  13.411   6.236   2.035 -0.1959  0.1241  0.0895
27971W        W44818  15.910   1.432   1.612  0.1844 -0.0909 -0.0904
27972W        W44819  16.906  15.374   2.975 -0.2653 -0.1569 -0.0727
27973W        W44820  11.588  10.284   5.430  0.1236  0.1128  0.1909
27974W        W44821  13.278   2.016   3.477  0.0643 -0.0481  0.0409
27975W        W44822   2.738  15.022  16.331  0.2587  0.1709  0.3862
27976W        W44823   3.125  14.182  12.321 -0.1582  0.2152 -0.1465
27977W        W44824  14.405  17.155   0.615  0.0101 -0.1492  0.1350
27978W        W44825  12.052   7.906   4.806 -0.1436 -0.0984 -0.1456
27979W        W44826   3.961   7.708   0.800  0.1048 -0.1038 -0.0317
27980W        W44827   2.777  13.718  12.360  0.1242  0.1044  0.0225
27981W        W44828   8.697   9.919  16.445 -0.0123 -0.0413 -0.0352
27982W        W44829   4.804  10.291   3.992 -0.1369 -0.3010  0.0928
27983W        W44830  10.497  11.837   5.629  0.1449  0.1214  0.1396
27984W        W44831   4.596  11.009   1.985 -0.0566 -0.0670 -0.0406
27985W        W44832  17.846  11.544  13.122 -0.2930  0.0194 -0.0887
27986W        W44833   6.643  13.329  16.381 -0.2020 -0.2077 -0.2057
27987W        W44834   2.496  17.141   3.909 -0.0734 -0.1079  0.0798
27988W        W44835  11.485  16.966   0.521 -0.0654 -0.1566  0.0013
27989W        W44836   6.074  13.207  13.538 -0.2025 -0.1141  0.0448
27990W        W44837  11.764  12.487   0.885  0.2907 -0.1022  0.2433
27991W        W44838   6.756   1.289  16.632  0.1776  0.0511 -0.0067
27992W        W44839   7.479   7.828   1.999 -0.1998 -0.3149 -0.1567
27993W        W44840   8.559   6.016  12.824  0.1524  0.0689 -0.0228
27994W        W44841   0.354  15.860  15.574  0.1284 -0.0234 -0.0713
27995W        W44842   7.758   9.135   0.930  0.4161 -0.1101  0.0949
27996W        W44843  13.821  12.914   4.446 -0.3404 -0.1503  0.0445
27997W        W44844   8.063  11.917  13.068  0.2131  0.1944 -0.0200
27998W        W44845  14.618  16.907   0.984 -0.2916  0.1631  0.0564
27999W        W44846  15.394   5.512   2.437  0.0502 -0.1234  0.4238
28000W        W44847   2.980  15.193   5.776 -0.1915  0.2485 -0.1137
28001W        W44848  14.806  16.861   0.357  0.1386  0.0541 -0.0048
28002W        W44849   7.575   7.780   3.492 -0.0876  0.0158  0.1233
28003W        W44850   1.757   1.655  13.117 -0.1240 -0.0316 -0.0511
28004W        W44851   5.226  16.298  11.754  0.0384  0.0215  0.0374
28005W        W44852  17.299   7.277   0.574 -0.0528 -0.1739 -0.0953
28006W        W44853   6.155  14.783  15.312 -0.1970  0.0759 -0.0336
28007W        W44854   7.828   1.675  11.677  0.0708  0.0544  0.2383
28008W        W44855   0.021   6.663   3.991 -0.2831 -0.0175 -0.0302
28009W        W44856  11.598   9.200   2.818  0.0351 -0.3162  0.2436
28010W        W44857   4.454   4.640   3.693 -0.2123  0.2535  0.1010
28011W        W44858   2.838  10.664  14.770  0.2128  0.0965 -0.0171
28012W        W44859   8.326  16.477   0.179 -0.0993  0.1745 -0.0240
28013W        W44860   8.710   9.107  14.847  0.0478 -0.1038 -0.0064
28014W        W44861  16.935   5.969  12.129 -0.0873  0.0420  0.1422
28015W        W44862   2.304   5.157   2.839 -0.0725 -0.1395  0.0023
28016W        W44863   4.640   5.108  13.549 -0.1058 -0.0317  0.1674
28017W        W44864  17.416  14.329   0.599  0.1721  0.0993  0.0637
28018W        W44865  16.671   4.937  13.776  0.2949 -0.0283 -0.0045
28019W        W44866   4.096  15.417   0.271 -0.0263 -0.3144  0.2975
28020W        W44867   3.186   5.601  12.076 -0.0499  0.2779 -0.0937
28021W        W44868   2.151  12.259   5.145  0.0910 -0.1373  0.1089
28022W        W44869   7.649   8.792  16.662  0.1375  0.1069 -0.0001
28023W        W44870  17.570   5.841  13.400  0.2014  0.0090  0.1070
28024W        W44871   8.254  12.710  12.196 -0.1575  0.1039  0.0831
28025W        W44872  16.304   7.922   2.981  0.2551 -0.0149 -0.1605
28026W        W44873   8.977   1.616  15.574 -0.1540 -0.1888 -0.0490
28027W        W44874  15.522  15.156   0.863 -0.2225  0.3457 -0.0281
28028W        W44875  15.452  12.873  14.325  0.3796 -0.2944 -0.0065
28029W        W44876   6.899   3.521  15.447  0.1987  0.1444 -0.3193
28030W        W44877   5.671   0.572  16.228 -0.2662  0.0084  0.1452
28031W        W44878   5.720  16.511  13.790  0.1583  0.1440  0.0161
28032W        W44879   0.142   2.050  13.572  0.0124 -0.0499  0.0452
28033W        W44880  10.933   7.337  14.439  0.1283 -0.1439  0.1688
28034W        W44881  12.187  17.143  16.366 -0.0614  0.3400  0.2597
28035W        W44882   7.454   7.647  14.584  0.1575 -0.0377  0.0443
28036W        W44883   4.936  15.105   4.470 -0.0272  0.1754  0.0468
28037W        W44884  11.022   8.751   0.825  0.0113 -0.1852  0.2381
28038W        W44885  12.759   1.957   3.537  0.0159  0.1860  0.3617
28039W        W44886   9.730  11.908  12.051  0.0790 -0.1710  0.2038
28040W        W44887   9.607   3.334   2.115  0.2521  0.0292  0.0587
28041W        W44888  12.073  15.061   3.799  0.1017  0.0615 -0.1204
28042W        W44889  13.452  17.801   1.382  0.1396  0.0667  0.1654
28043W        W44890   6.709   8.200   1.536  0.0338 -0.3056  0.3011
28044W        W44891   8.069  10.762   2.150  0.0065 -0.2391  0.1039
28045W        W44892  11.232   6.010  14.745  0.1086 -0.0011  0.0361
28046W        W44893  14.592   2.506  14.545 -0.0529  0.1048 -0.3184
28047W        W44894  17.108  10.921   5.157 -0.2636  0.1618 -0.1284
28048W        W44895   6.908  15.554  11.399 -0.1600  0.3989 -0.1766
28049W        W44896   7.950   1.647  12.149 -0.1729 -0.1205  0.4260
28050W        W44897   5.999  10.588   3.610 -0.0087 -0.1938 -0.1770
28051W        W44898  10.279   5.045   2.256  0.2051  0.2745  0.0886
28052W        W44899   7.110  10.172   5.164  0.4076  0.1550  0.0249
28053W        W44900   3.724   7.844   3.668 -0.0998 -0.1523  0.0883
28054W        W44901  14.567   1.732   1.211 -0.0597  0.1118 -0.0387
28055W        W44902   6.522  15.094   0.981 -0.0142 -0.1541 -0.0655
28056W        W44903   4.526   9.849   0.103  0.0608  0.0438  0.2126
28057W        W44904  17.623   7.707   3.240 -0.1454 -0.1446  0.2175
28058W        W44905  12.369  12.874   3.501 -0.1131 -0.1261 -0.0944
28059W        W44906  12.155  16.361  12.335 -0.1331  0.0760  0.2789
28060W        W44907   8.608  12.831   2.367  0.1855  0.1016 -0.0222
28061W        W44908  17.776  12.248   3.203  0.1735  0.0136  0.0833
28062W        W44909  16.133   5.875  14.577  0.0236  0.2051 -0.1843
28063W        W44910   6.762   5.562   2.668 -0.2992  0.0237  0.1659
28064W        W44911   4.033   2.939   2.692  0.4999 -0.0459 -0.2984
28065W        W44912  15.370   4.648   1.479  0.0174 -0.1844  0.1886
28066W        W44913   6.631  17.740   1.868 -0.3179 -0.0470  0.4952
28067W        W44914   1.731  11.691   4.532  0.2024 -0.0012  0.0371
28068W        W44915   4.971  11.577  13.026  0.0725 -0.1379  0.1800
28069W        W44916  17.134  17.865   1.993 -0.0716  0.1160 -0.1870
28070W        W44917   2.637   1.155   4.819  0.1573  0.1094  0.0021
28071W        W44918  15.437   4.129   4.101 -0.0121  0.0300 -0.0155
28072W        W44919   4.692   6.164   0.959  0.1169  0.0460 -0.0287
28073W        W44920  14.411   8.918  15.445  0.0646 -0.0719 -0.0631
28074W        W44921  14.807  16.450   1.918 -0.1855 -0.1096 -0.1732
28075W        W44922   4.483   6.676   5.748 -0.1387  0.0159  0.3377
28076W        W44923  10.856   5.347   2.408 -0.2172  0.0442  0.1116
28077W        W44924   1.571  13.124   2.858 -0.0281  0.0207 -0.1239
28078W        W44925   8.987  14.006  13.317 -0.0407  0.0153  0.3620
28079W        W44926   7.880   9.521  13.155  0.0569  0.1072  0.1905
28080W        W44927   7.354   6.174   0.701  0.1847  0.1132 -0.1055
28081W        W44928  16.622  13.480   2.356 -0.3269  0.0195 -0.2103
28082W        W44929   0.737   2.022   4.252  0.0206 -0.0154  0.1902
28083W        W44930   5.343  16.692   0.111  0.1749  0.0338 -0.1713
28084W        W44931   5.350  10.432  15.260  0.0203  0.2095 -0.0603
28085W        W44932   9.265   7.404  14.228 -0.3084  0.4192  0.0586
28086W        W44933   4.379  16.621  15.337 -0.1560 -0.0477 -0.5103
28087W        W44934   5.912   7.481   4.375 -0.3120  0.1093  0.0461
28088W        W44935   4.369  12.934  12.518  0.2929  0.1537  0.0136
28089W        W44936  11.790  14.996   4.586  0.2623  0.0429 -0.1883
28090W        W44937   1.891   9.126   3.516 -0.1004 -0.3058 -0.0613
28091W        W44938   1.302   0.591  11.535  0.2202  0.0275  0.1281
28092W        W44939  17.787  10.370   3.522 -0.2057 -0.2576  0.1340
28093W        W44940  13.061   2.576  14.496  0.0822  0.1150 -0.1196
28094W        W44941  15.159   7.725   3.923  0.2971 -0.3885  0.0624
28095W        W44942   4.111  16.989  16.074 -0.1840 -0.1895 -0.0326
28096W        W44943  12.041  11.123  14.315 -0.4551 -0.0650  0.0875
28097W        W44944   6.218   6.359  12.032  0.0316 -0.2162  0.1214
28098W        W44945   4.754   9.069  15.146  0.2882 -0.1081 -0.1994
28099W        W44946  17.616   6.993  14.706 -0.0323 -0.5311  0.5255
28100W        W44947   5.950  13.044   3.109 -0.1053  0.0881 -0.0012
28101W        W44948   4.272  11.267   5.950  0.0671 -0.1499 -0.2561
28102W        W44949  12.931  10.005  15.692 -0.2278  0.1605  0.3125
28103W        W44950  15.820   0.491   2.978 -0.1917  0.0243 -0.3048
28104W        W44951  13.902   4.518   3.962 -0.0449  0.0190 -0.1669
28105W        W44952  17.735   4.968   5.317  0.0305 -0.1632  0.0233
28106W        W44953  17.661   4.630  11.494  0.1208 -0.0158  0.3080
28107W        W44954   8.550   1.952  15.427 -0.1366  0.3117 -0.0773
28108W        W44955  11.493   5.152  12.474  0.2333  0.0886  0.0769
28109W        W44956   8.537  16.974   0.996 -0.1981  0.2059 -0.2673
28110W        W44957  16.368  14.308  12.862 -0.2407  0.1547  0.1940
28111W        W44958   7.909   2.768  16.298 -0.2144  0.0620 -0.0159
28112W        W44959   6.883   3.081  10.724  0.1517 -0.1469 -0.0021
28113W        W44960  13.935  15.606   3.685 -0.1829 -0.0051 -0.2828
28114W        W44961   3.654  13.898   1.616  0.0420  0.0044  0.0012
28115W        W44962  15.857  13.925   2.035  0.3061  0.0376  0.2416
28116W        W44963  10.930   4.045   1.084 -0.0960 -0.1399 -0.1285
28117W        W44964   1.054   9.389   0.320  0.1325  0.0029 -0.0436
28118W        W44965   0.005   1.251  14.156 -0.2534  0.1639 -0.2115
28119W        W44966   9.403   3.931  14.111  0.2333 -0.2004  0.2608
28120W        W44967  13.324   4.237  11.394  0.1308 -0.1288  0.4467
28121W        W44968   3.197  15.694  12.305  0.1323 -0.1030  0.0051
28122W        W44969   4.917   0.199   1.835  0.1954 -0.1461  0.3835
28123W        W44970   0.341   0.570  13.561 -0.0606  0.0701 -0.4288
28124W        W44971   2.048  11.567   3.604  0.3047  0.0276  0.0038
28125W        W44972   3.252   7.251  12.661  0.2574  0.0480  0.2591
28126W        W44973   0.981  16.572   4.563  0.1011  0.0938  0.0861
28127W        W44974  13.278   7.328  15.451 -0.0508 -0.0878  0.1699
28128W        W44975   3.190  14.128  13.196  0.1726 -0.0482 -0.1822
28129W        W44976   0.744  16.737   2.451 -0.1076  0.0440 -0.0985
28130W        W44977   1.958   8.106   3.305  0.1346  0.0675 -0.0664
28131W        W44978   9.461   5.067   3.502 -0.1692 -0.0758 -0.1566
28132W        W44979   3.344  14.262   1.529 -0.0112 -0.2929 -0.2352
28133W        W44980   6.927  17.154  12.944  0.2631 -0.2013 -0.1144
28134W        W44981   0.641  10.323   2.021  0.0841 -0.2127  0.1499
28135W        W44982  13.024  14.561   4.243 -0.0410 -0.1831 -0.0429
28136W        W44983  10.962   7.350  13.040  0.2827  0.1108  0.3212
28137W        W44984   2.713   2.226   3.967  0.0945  0.1065 -0.0822
28138W        W44985   1.872  15.690  14.120 -0.0595  0.2073  0.0996
28139W        W44986   6.246  11.439   2.765 -0.2167  0.1124  0.3575
28140W        W44987  12.305   5.214  14.861  0.1102 -0.2520  0.3083
28141W        W44988  14.791   0.638   1.715  0.1445 -0.0342 -0.1401
28142W        W44989   2.744   0.292  14.924  0.0629  0.1712 -0.0554
28143W        W44990  16.486  13.952  13.243 -0.0054 -0.0266 -0.0081
28144W        W44991  10.340   9.319   3.106  0.0365  0.3090 -0.2451
28145W        W44992  13.408  11.883  15.645 -0.3307 -0.0725 -0.0017
28146W        W44993  10.283  14.796   3.499  0.0217  0.0976 -0.1352
28147W        W44994  15.728   2.642  16.675 -0.0600 -0.3567 -0.1298
28148W        W44995  13.716  18.016  13.593 -0.0637 -0.1436 -0.0995
28149W        W44996  10.251  11.731   1.807  0.0625 -0.0131 -0.0547
28150W        W44997   9.905  12.589   3.478 -0.2080 -0.0370  0.1591
28151W        W44998   7.271  10.719  14.846 -0.0774  0.3053 -0.0875
28152W        W44999   3.871  12.515  14.243 -0.2947 -0.0122  0.0643
28153W        W45000  16.597   6.931   3.681 -0.2062  0.0459 -0.0134
28154W        W45001   6.128   4.226   4.317 -0.0548  0.1202  0.2754
28155W        W45002  14.903   5.635   1.983 -0.0817  0.0019  0.2919
28156W        W45003   8.021   9.947   5.040  0.1751  0.2026  0.0292
28157W        W45004  10.404   9.068   2.103 -0.3815  0.1167 -0.1882
28158W        W45005  12.989  11.901   2.536  0.0609  0.1101  0.0442
28159W        W45006   8.200   3.618   0.034  0.1362  0.2160  0.1666
28160W        W45007   3.545   9.259  11.996  0.0812 -0.1595  0.0428
28161W        W45008   9.589   8.050   0.462  0.2494  0.1677 -0.0111
28162W        W45009   1.405  16.323   1.433 -0.1492 -0.0918  0.0745
28163W        W45010   2.841   4.701   2.144 -0.2327 -0.0132  0.0300
28164W        W45011   0.412   0.667   3.990 -0.1503 -0.2932  0.1518
28165W        W45012   1.928   0.274   5.411 -0.0858 -0.2321  0.0077
28166W        W45013   7.848   6.156  14.300 -0.0050  0.0320 -0.0814
28167W        W45014   0.563   2.653  16.211  0.1474 -0.2215 -0.0216
28168W        W45015   1.045  13.587  14.854 -0.3786 -0.1023 -0.0362
28169W        W45016  10.959   8.791   3.696 -0.0977 -0.1956 -0.0567
28170W        W45017   8.865   7.197  15.985 -0.0055  0.1551  0.1219
28171W        W45018   9.745   8.083  11.602 -0.2426  0.1696 -0.1143
28172W        W45019   9.015   6.240  15.707 -0.1129 -0.0985  0.0098
28173W        W45020  16.164  14.679  16.111 -0.0447 -0.0729  0.0243
28174W        W45021   1.552   7.512  15.383 -0.1042 -0.0560  0.0764
28175W        W45022  12.215  16.979   2.009  0.1393 -0.1249 -0.3095
28176W        W45023   4.241   0.120   2.920 -0.0819  0.4452 -0.0165
28177W        W45024   6.307  17.882  13.836  0.0650  0.0464 -0.3739
28178W        W45025   4.274  11.435  16.276 -0.1093  0.2324  0.1520
28179W        W45026  17.215   7.063  13.642  0.2446  0.0711 -0.5294
28180W        W45027  10.092  16.243   3.189  0.4541  0.2661  0.1151
28181W        W45028   4.856  12.127  15.655 -0.0755  0.0760  0.0320
28182W        W45029   0.330  14.223   3.417 -0.1007  0.0227  0.1986
28183W        W45030   4.906  11.992  14.183  0.1031  0.0723 -0.1203
28184W        W45031  13.406   4.933  13.838 -0.1311 -0.2004  0.1542
28185W        W45032   9.729   2.509  13.515  0.1576  0.1352  0.1963
28186W        W45033   4.591   5.546   1.917 -0.0644  0.2811 -0.0598
28187W        W45034  10.887  17.356   2.714  0.1796  0.0574 -0.1411
28188W        W45035   3.442  12.154  15.510 -0.1639 -0.0891 -0.0055
28189W        W45036  14.547   5.202   2.155 -0.1515 -0.1239  0.2834
28190W        W45037   4.336   5.893   1.608  0.2131  0.1193 -0.0851
28191W        W45038   5.137   8.902  15.676  0.3524 -0.1902 -0.2346
28192W        W45039  10.565   6.285   5.544 -0.2502  0.0470  0.2736
28193W        W45040  17.094   0.227   0.874 -0.2024 -0.3850  0.1706
28194W        W45041  17.092   0.639  12.204  0.2609 -0.2990 -0.2095
28195W        W45042   4.039  12.623   2.150  0.0915 -0.1496  0.2080
28196W        W45043  16.481   7.960  13.487  0.1888  0.1395  0.0625
28197W        W45044  17.640  14.678   0.903 -0.0370  0.1550 -0.0253
28198W        W45045  12.881  11.680  11.933 -0.1164  0.3029  0.0531
28199W        W45046   3.623   7.718   3.161 -0.0171  0.0225 -0.1245
28200W        W45047  15.588   5.063   2.294 -0.0402 -0.2041  0.1451
28201W        W45048  17.201  12.758   1.440 -0.0112  0.1845  0.0488
28202W        W45049   5.535   7.173   1.886  0.0705  0.0408  0.3573
28203W        W45050   1.673   7.933   0.875  0.1050  0.1436  0.0560
28204W        W45051  17.284  12.468  16.490  0.0411 -0.0764 -0.0024
28205W        W45052   2.622  12.855   1.304 -0.2446 -0.1208 -0.1330
28206W        W45053  17.528   9.728   2.185  0.1103  0.3042  0.1616
28207W        W45054   1.393  13.391   3.859 -0.0480  0.1889  0.1340
28208W        W45055  14.714  11.649  12.635 -0.0618  0.0936  0.2297
28209W        W45056   9.414  12.501   6.012  0.0255  0.1305  0.1527
28210W        W45057   4.926   6.983   3.190  0.0004 -0.1387  0.2247
28211W        W45058  10.389   2.191   5.394  0.1117 -0.1253  0.1560
28212W        W45059   6.003  11.668  12.506  0.0558  0.0092 -0.2595
28213W        W45060   1.348  15.021  15.998 -0.2785  0.3835 -0.1844
28214W        W45061   1.429   2.087   9.989  0.1896  0.0666  0.1000
28215W        W45062   4.581  12.663   2.076 -0.1163  0.2215 -0.0557
28216W        W45063   8.585   5.252   3.411  0.0574  0.2361 -0.2652
28217W        W45064  14.633   0.525  15.400 -0.0945 -0.0535  0.0199
28218W        W45065   7.635  13.732  10.607  0.0331  0.1078 -0.0006
28219W        W45066   7.831  17.458  11.357 -0.0396  0.0137 -0.3921
28220W        W45067   7.196  14.840   3.838  0.0198  0.5135  0.0849
28221W        W45068   2.699  13.880  13.607  0.0605  0.1411 -0.1918
28222W        W45069   4.607   5.783  16.642 -0.0955 -0.4233  0.0860
28223W        W45070   7.631   7.322   5.138 -0.0553 -0.3408  0.1525
28224W        W45071  13.952   8.995  14.490 -0.2181 -0.1464  0.0570
28225W        W45072  13.626   4.366   1.610  0.1900  0.2070 -0.0737
28226W        W45073   3.752  11.779  12.905  0.0693  0.0990  0.2587
28227W        W45074  14.853  10.784   5.143 -0.1796 -0.0769 -0.2823
28228W        W45075  12.623   8.809   2.732  0.1538 -0.3549  0.0455
28229W        W45076   4.927   3.320   2.552 -0.2533  0.1089  0.3212
28230W        W45077   2.045   8.072  10.780 -0.1112  0.1490 -0.2502
28231W        W45078   5.131   1.154  15.678  0.1333 -0.2809  0.1309
28232W        W45079   3.176   2.149   0.393  0.4174  0.1616  0.2792
28233W        W45080   0.321   6.545  14.847  0.2278 -0.0224  0.4016
28234W        W45081   0.688  12.078  13.223  0.1854 -0.1187 -0.1568
28235W        W45082  12.948   6.237   2.476  0.0692 -0.3892 -0.0921
28236W        W45083  16.270   1.390  16.514 -0.0684 -0.1404 -0.0826
28237W        W45084  10.924   6.004   1.222 -0.2768  0.1073  0.2546
28238W        W45085   2.097   9.576   3.765 -0.1204  0.2160  0.0679
28239W        W45086   4.233   4.626  15.096 -0.0237  0.1989  0.0767
28240W        W45087   5.370   9.787  11.840  0.1263  0.1902  0.2811
28241W        W45088  13.055  11.931  15.175  0.0367  0.0879 -0.1091
28242W        W45089  16.192  17.315   1.421 -0.1600 -0.0971  0.2073
28243W        W45090   7.505   4.038   1.135  0.0292 -0.0980  0.1585
28244W        W45091   1.719   6.253  14.163 -0.1694 -0.1703 -0.3097
28245W        W45092  16.006   6.251  14.058 -0.1711 -0.2749 -0.0060
28246W        W45093   1.899   0.131   2.071 -0.2814 -0.2107  0.4395
28247W        W45094   6.120   4.482   1.026 -0.0089  0.1965 -0.0170
28248W        W45095   8.550  12.141  11.999  0.0867 -0.0550 -0.0319
28249W        W45096   4.336  17.645   4.655  0.0453  0.3397 -0.2567
28250W        W45097   2.469   2.927   0.011 -0.4053  0.0282 -0.0318
28251W        W45098  15.869  11.862   0.612  0.0964 -0.5547  0.0711
28252W        W45099  13.948  12.791   5.877  0.1387  0.2150  0.1309
28253W        W45100   4.125   3.839  13.110 -0.1293 -0.0274 -0.1203
28254W        W45101  11.646   0.439  16.079 -0.0938 -0.1307 -0.3784
28255W        W45102  14.300   1.449  14.846  0.1446 -0.1006  0.1771
28256W        W45103  12.057   8.116   5.616  0.3491 -0.1278  0.1392
28257W        W45104  14.369  12.385  13.540  0.1724 -0.4894 -0.0017
28258W        W45105   0.187   3.454  11.679 -0.2280 -0.3051 -0.0191
28259W        W45106   6.675  16.036  15.829 -0.0487  0.1868  0.5448
28260W        W45107  15.841  12.948  16.130 -0.1708  0.1115  0.0778
28261W        W45108  14.004   7.110  14.749  0.1142 -0.0651  0.1923
28262W        W45109  11.075   5.101   5.438 -0.1794 -0.1805 -0.0418
28263W        W45110   9.066   2.680   4.910 -0.0100  0.2543 -0.2717
28264W        W45111  16.110  15.544   4.577 -0.1250 -0.1839 -0.0890
28265W        W45112   9.392   8.119  14.452 -0.0742  0.0007 -0.2278
28266W        W45113  13.077   3.547   0.368 -0.2584 -0.0828 -0.0803
28267W        W45114  11.438   6.786   5.051 -0.1679  0.2685 -0.1357
28268W        W45115   4.543  15.215  14.394  0.0665 -0.1912 -0.1584
28269W        W45116   9.414   2.013  13.475 -0.2665  0.0946  0.0096
28270W        W45117   1.472  13.953  14.055  0.0159 -0.1686  0.3121
28271W        W45118   1.391   7.796  14.039 -0.2698  0.3177  0.1037
28272W        W45119  11.682  15.465   1.050  0.2773 -0.2206 -0.0017
28273W        W45120  16.009  15.846  16.436  0.1117  0.2248  0.0993
28274W        W45121   8.927   6.138   1.487  0.0097 -0.0728 -0.0021
28275W        W45122   2.123   7.246  13.905  0.2917  0.0906 -0.0011
28276W        W45123   8.313   6.411  14.591 -0.0494  0.3882 -0.1753
28277W        W45124  14.007  15.859  14.084  0.0843 -0.1107  0.5379
28278W        W45125   4.134   9.620   2.687 -0.1392 -0.0325 -0.0522
28279W        W45126  13.054  16.051   9.846 -0.0925 -0.1692  0.1995
28280W        W45127  12.530   1.822  14.997 -0.2676 -0.0344 -0.0278
28281W        W45128   9.054   2.812   0.470 -0.1084 -0.1507 -0.2034
28282W        W45129   6.535  16.267   1.090  0.0987 -0.1304  0.2496
28283W        W45130   8.030   2.123   2.758  0.0515  0.0684  0.0993
28284W        W45131  17.711   7.942  12.970  0.3290  0.2046  0.3731
28285W        W45132   9.001  11.060   4.479  0.4967 -0.0027  0.1069
28286W        W45133   0.754  14.979  13.976 -0.1389  0.0591  0.0497
28287W        W45134   9.467  17.864   0.589  0.1239  0.0418  0.2286
28288W        W45135  16.706   9.871  15.195 -0.5663 -0.2617  0.1048
28289W        W45136  17.886  10.864   4.800 -0.2570  0.3320 -0.1502
28290W        W45137   1.744   5.679   3.121  0.0723  0.1505 -0.0108
28291W        W45138   6.454  14.728   2.444 -0.0043 -0.1406 -0.1125
28292W        W45139  11.962   6.033   5.382  0.1187 -0.0944 -0.1698
28293W        W45140   4.549   9.459   4.321 -0.0600 -0.0073 -0.0452
28294W        W45141   9.582   7.747   5.457  0.2409  0.1225 -0.0133
28295W        W45142  10.850   1.176   0.209  0.1091 -0.4819 -0.0441
28296W        W45143   7.902  13.576  13.624  0.2188  0.1870 -0.2927
28297W        W45144   5.938  14.146  12.457 -0.1178  0.0108  0.2560
28298W        W45145  11.531   6.302  13.694  0.0945 -0.0215 -0.0693
28299W        W45146  12.237   1.482   0.636 -0.4321 -0.0803 -0.0448
28300W        W45147   2.555  15.665   1.415 -0.0996  0.1561 -0.0823
28301W        W45148   9.013   8.464   1.708 -0.0157 -0.0211 -0.0544
28302W        W45149  12.376   4.170  13.447 -0.0712 -0.1661  0.0522
28303W        W45150   1.195   5.362  13.134  0.1812 -0.0257 -0.0236
28304W        W45151   3.311  13.667   0.257 -0.0796 -0.1040  0.2461
28305W        W45152  11.417  15.232   4.816 -0.1869 -0.1778  0.1461
28306W        W45153  15.939   7.534  13.171  0.0725  0.1442 -0.1279
28307W        W45154  16.413   2.063   1.665  0.0651  0.0212 -0.0717
28308W        W45155   3.088   1.032  14.611  0.0973 -0.0707 -0.1677
28309W        W45156   1.633   2.656   0.449  0.0103  0.0298  0.4295
28310W        W45157   1.585   7.989   1.745  0.0579  0.2136  0.0579
28311W        W45158  10.630  12.384   1.348  0.0631  0.4204 -0.2415
28312W        W45159   6.510  12.374  11.952 -0.1373 -0.0871 -0.0157
28313W        W45160  15.301  11.005  15.522 -0.0287 -0.1298  0.1176
28314W        W45161   7.927   1.554  14.627  0.2866 -0.2136  0.1021
28315W        W45162   1.327   3.993  14.803 -0.3083 -0.0280  0.1798
28316W        W45163   4.016   7.180   0.156  0.1596 -0.2981 -0.2700
28317W        W45164   0.140   8.659   3.598 -0.0155  0.1836  0.1177
28318W        W45165   1.966   1.122  15.891  0.0868 -0.1087 -0.0217
28319W        W45166   6.900  10.404  15.177  0.0708  0.3684 -0.1217
28320W        W45167   2.374   5.190   1.617  0.1360  0.2584  0.0670
28321W        W45168   4.320  12.049   1.315  0.0888 -0.1161  0.0620
28322W        W45169   2.094  17.397  16.631 -0.4435  0.0193  0.1102
28323W        W45170  12.061   7.285  11.877 -0.1560 -0.5079 -0.1200
28324W        W45171  15.746   5.201   0.316 -0.1039  0.1934  0.1540
28325W        W45172   3.212   7.395  13.789  0.3464 -0.2309  0.0319
28326W        W45173  13.481   7.396  16.119  0.2942 -0.0885  0.1256
28327W        W45174   5.123   4.871   0.001  0.0801 -0.0747  0.1254
28328W        W45175   1.482   6.632   1.644  0.1409 -0.1008 -0.2090
28329W        W45176  14.257  15.491  15.283 -0.3392 -0.1711  0.1960
28330W        W45177  17.972  16.058  12.122  0.1853 -0.3318  0.0478
28331W        W45178   6.631   9.714   2.635  0.1290 -0.3068 -0.1712
28332W        W45179   0.159  17.203  11.986  0.0857 -0.0206 -0.2926
28333W        W45180   4.770  13.067   0.661 -0.1954 -0.3005  0.2716
28334W        W45181  12.432   6.572  14.521  0.0586  0.0732 -0.1090
28335W        W45182   8.702  10.244   3.846  0.0846  0.4429  0.0322
28336W        W45183   0.297  10.049  11.736  0.0010  0.0869  0.2225
28337W        W45184   5.260  11.236   2.643  0.0055  0.1690  0.1390
28338W        W45185  16.561  14.764   5.545 -0.2580  0.2613 -0.1000
28339W        W45186   0.303   8.854   3.142 -0.1815  0.2233 -0.1315
28340W        W45187   2.971  16.611  12.834  0.3123 -0.1185  0.4075
28341W        W45188  10.556   2.900   5.074  0.1785 -0.2237  0.0375
28342W        W45189  11.859   2.907  16.207 -0.1981 -0.0602 -0.2606
28343W        W45190  15.755   6.578  15.085 -0.1890  0.0647  0.0454
28344W        W45191  15.884   8.262   3.920  0.0401 -0.2001  0.2193
28345W        W45192   6.975  17.330   3.066 -0.0332 -0.0830  0.0146
28346W        W45193  10.279   1.647   4.819  0.0695 -0.1289 -0.3552
28347W        W45194   5.595   9.793   4.117  0.0067  0.0102 -0.2007
28348W        W45195   1.653  14.191   3.076  0.3576 -0.1415 -0.1003
28349W        W45196  14.229   7.874   5.095 -0.0412  0.0157 -0.0726
28350W        W45197   1.939  14.933   5.613  0.0193  0.0152 -0.1425
28351W        W45198   0.366  16.063  14.558  0.3555  0.2093  0.0470
28352W        W45199  10.603  10.020  16.480  0.3006  0.0363  0.0181
28353W        W45200   5.740   5.445  12.869 -0.0097 -0.2377 -0.0504
28354W        W45201   5.565  16.212  16.141  0.3010 -0.0736  0.2132
28355W        W45202   4.039   0.660   1.439 -0.0985 -0.0439 -0.0914
28356W        W45203   0.451   5.266   1.830 -0.0338  0.1298  0.2966
28357W        W45204   1.083   7.762  12.812  0.3896 -0.0117 -0.0269
28358W        W45205   0.957  14.932   5.662 -0.0789 -0.2061 -0.2799
28359W        W45206  12.833  12.571   3.483 -0.0241 -0.2335 -0.2090
28360W        W45207   5.671   9.874   2.294 -0.0093  0.3712 -0.1051
28361W        W45208  11.460   0.556   3.409  0.0752  0.1424  0.2057
28362W        W45209   8.011   8.383  13.097  0.2033 -0.1025  0.1064
28363W        W45210  10.161  14.348  11.975  0.0520  0.0319 -0.1024
28364W        W45211  15.106   5.271  11.350  0.1364  0.3623 -0.0526
28365W        W45212   3.346   6.436   1.464 -0.0981  0.0090 -0.0816
28366W        W45213   3.179   2.038  14.698  0.3154 -0.0511  0.1841
28367W        W45214   8.202  10.253   3.655 -0.0989  0.0633  0.1295
28368W        W45215   1.377   4.448   0.703 -0.0468  0.0882  0.2439
28369W        W45216   4.655   6.185  12.706 -0.0576  0.0916 -0.0036
28370W        W45217  17.223   2.367  12.692  0.1497 -0.0466  0.3754
28371W        W45218  11.474   7.150   3.839 -0.1333 -0.3340  0.1077
28372W        W45219   6.933  16.222   3.095  0.0917 -0.3321  0.2332
28373W        W45220   4.732  15.819   1.700  0.2926 -0.1720  0.1295
28374W        W45221  14.209   4.654  12.977 -0.2748  0.1375  0.0353
28375W        W45222  10.464   5.931  11.914  0.2233 -0.2008  0.0098
28376W        W45223  15.737  15.899   0.139 -0.1298  0.1595  0.0280
28377W        W45224  10.791   7.837   3.694 -0.0343 -0.0721 -0.1144
28378W        W45225   6.276  11.097   3.155 -0.0680 -0.1847  0.2366
28379W        W45226  17.129  17.239   0.145  0.2418 -0.1905 -0.1904
28380W        W45227   5.144   1.065   2.401  0.1802 -0.2875 -0.0622
28381W        W45228  10.572  17.637  12.141  0.2788  0.0945  0.1788
28382W        W45229   2.359   1.571   4.895 -0.0500  0.1479 -0.1314
28383W        W45230  17.888  11.120  15.921  0.2351  0.1441  0.0785
28384W        W45231   0.728  13.768   2.136 -0.3159  0.1409 -0.4528
28385W        W45232   1.906   8.775   2.546 -0.1246  0.1034 -0.1721
28386W        W45233  12.194   2.081  12.622  0.1872  0.1446 -0.0247
28387W        W45234   4.815   2.383  14.683 -0.2423 -0.1863  0.3021
28388W        W45235  16.850  15.782  11.556  0.1977 -0.2194  0.2357
28389W        W45236   3.465  15.417  13.424 -0.1565  0.0000 -0.3581
28390W        W45237   4.619   1.177   0.131 -0.1114 -0.0724  0.1488
28391W        W45238   5.275  14.268   2.016  0.0383  0.2799 -0.0570
28392W        W45239   5.308  14.795   5.231  0.0375 -0.0682 -0.0459
28393W        W45240  16.944  17.385  15.259  0.1912 -0.1642 -0.1763
28394W        W45241   3.079   5.304   3.229 -0.1432  0.0404 -0.3238
28395W        W45242  11.246   8.725  11.967  0.2611 -0.1018  0.0309
28396W        W45243  12.728   2.142   1.650 -0.3583  0.2977 -0.0545
28397W        W45244  16.700   1.011   1.636 -0.1566  0.3238  0.1088
28398W        W45245  12.758  15.168   1.207  0.1050  0.0683 -0.1471
28399W        W45246  13.695   1.463   0.557  0.0537  0.0601  0.0735
28400W        W45247   9.016  13.928   3.334 -0.2029  0.1332 -0.2442
28401W        W45248   9.654   6.793   3.476  0.0129 -0.0471 -0.0438
28402W        W45249   8.058   3.173  11.862  0.0019  0.0710 -0.0140
28403W        W45250   6.310   2.392  14.908 -0.2358 -0.0630 -0.1340
28404W        W45251  13.020   6.296  15.066  0.0258  0.2603  0.1514
28405W        W45252   3.160   2.717  12.259 -0.0138 -0.2771  0.2157
28406W        W45253   4.864  16.156  14.030 -0.0326 -0.0468  0.0592
28407W        W45254   7.491  13.725  16.134  0.0083 -0.0955  0.3169
28408W        W45255   2.394   7.208  15.008 -0.0565 -0.0789 -0.0163
28409W        W45256   7.727  16.245   2.611  0.3140  0.0593  0.0239
28410W        W45257   2.512   6.272   0.826 -0.2114  0.1651 -0.0217
28411W        W45258   2.710  16.655   1.038  0.2464 -0.2913  0.1003
28412W        W45259  16.720   5.610   3.991 -0.1414 -0.1229 -0.2810
28413W        W45260   7.324   2.338   4.334 -0.3938  0.0246 -0.0895
28414W        W45261  11.266  16.548   2.154  0.2096  0.0835 -0.0746
28415W        W45262   4.376  15.616  13.763  0.1575  0.2732 -0.0198
28416W        W45263  13.293  15.533   3.062  0.1291 -0.1264  0.0883
28417W        W45264  16.748  13.506  13.379  0.4102 -0.1551  0.1691
28418W        W45265   0.202  10.311   3.671  0.0248  0.2276  0.1306
28419W        W45266   9.275  13.342  12.619 -0.4656 -0.1302  0.1010
28420W        W45267   2.777  16.212  15.843  0.1265 -0.3065  0.1080
28421W        W45268   0.153  16.673  16.282  0.1773 -0.0489  0.2251
28422W        W45269  12.382   2.176   2.455 -0.1516  0.2133 -0.1924
28423W        W45270  11.907  12.941   5.761  0.0458 -0.0245 -0.0651
28424W        W45271  17.246  14.219  12.749  0.1085  0.1142  0.2999
28425W        W45272   1.702  13.824  14.440  0.1586 -0.1023  0.1602
28426W        W45273  11.472   0.885   0.215 -0.1104  0.0725  0.1120
28427W        W45274   7.725   6.691  15.825  0.2851 -0.1433  0.0201
28428W        W45275  17.419   1.729   4.365  0.3118  0.0840  0.0491
28429W        W45276   2.329   7.592  11.614 -0.0496  0.2017 -0.1291
28430W        W45277   6.049   8.387  10.812  0.3871  0.0482  0.1937
28431W        W45278   4.414  14.365   3.005 -0.1588  0.1524  0.3608
28432W        W45279   8.333  12.844  10.607  0.0287 -0.1194 -0.0892
28433W        W45280   6.002   9.261   4.582  0.1450 -0.2508  0.1523
28434W        W45281  14.084   1.730   1.138  0.0024 -0.0626  0.3634
28435W        W45282   7.543  13.042   2.072 -0.0651  0.0888  0.0614
28436W        W45283   8.183  17.813  14.159  0.2430 -0.1228 -0.0687
28437W        W45284   4.316   3.156  14.419 -0.2727  0.0971 -0.0346
28438W        W45285  15.268  13.680   5.230 -0.2193  0.1600 -0.0532
28439W        W45286   5.236   1.110  16.195  0.0157  0.2433  0.2915
28440W        W45287  14.845   9.821   4.371  0.2746  0.1689 -0.1215
28441W        W45288  17.392  17.650  16.142  0.2081  0.0116  0.2911
28442W        W45289   6.520  13.849  16.506  0.4668  0.3273 -0.0326
28443W        W45290   7.903   8.407   2.853  0.1686  0.0204  0.1060
28444W        W45291  16.102  13.074   1.374  0.1654 -0.2429  0.0395
28445W        W45292  11.684  12.043  13.912 -0.0415  0.0525 -0.0350
28446W        W45293  17.338  11.524   5.137  0.1148  0.3194 -0.0677
28447W        W45294  11.780  16.040   0.433  0.1657 -0.1034 -0.2752
28448W        W45295  12.619   8.567  15.500 -0.0414  0.0158 -0.2280
28449W        W45296   2.670  17.556   0.907  0.0363 -0.1654  0.2277
28450W        W45297   9.683  11.532   5.582  0.0991 -0.0585 -0.2699
28451W        W45298  17.401   6.610   3.036 -0.1265  0.0293  0.1702
28452W        W45299   3.467  17.673  14.915 -0.2739 -0.2512  0.3047
28453W        W45300   1.939  12.401   0.650  0.0715  0.0191 -0.1103
28454W        W45301   8.183   0.893  14.036  0.0436 -0.0746 -0.2315
28455W        W45302  14.666  11.943  14.145 -0.1733 -0.1910  0.2512
28456W        W45303  11.647  14.244  11.200  0.1193  0.0284  0.0370
28457W        W45304  11.673   9.329  15.020  0.1915 -0.0565  0.0093
28458W        W45305  15.441   5.669  16.346 -0.1436 -0.1648 -0.0004
28459W        W45306   9.247   9.924   0.460 -0.0163 -0.0734 -0.2076
28460W        W45307  11.172  17.408  14.061 -0.0278 -0.2971 -0.3409
28461W        W45308  11.260   3.456  12.516 -0.0187  0.3939  0.2414
28462W        W45309   5.519   5.094   1.524  0.2214 -0.0290  0.1170
28463W        W45310   1.971  10.935  13.755  0.2303 -0.0310  0.0974
28464W        W45311   0.440   1.162   4.029  0.1895 -0.2149 -0.0914
28465W        W45312  11.657  17.192   3.311  0.1951 -0.3015 -0.3033
28466W        W45313  17.944   8.430   0.323  0.0518 -0.4878 -0.0295
28467W        W45314  12.582   5.532   3.280  0.2530  0.1741 -0.0982
28468W        W45315  12.240   6.440   3.009 -0.1652 -0.1700 -0.1884
28469W        W45316   8.276   2.577   4.587 -0.0618 -0.1635 -0.1832
28470W        W45317   0.320   9.284  15.388  0.1831  0.3163  0.0210
28471W        W45318  16.551  14.835  14.687  0.1654  0.0544  0.2438
28472W        W45319   4.335   2.115   0.180 -0.5333 -0.3676 -0.2147
28473W        W45320   1.474  15.113   5.741  0.0634 -0.1428  0.2680
28474W        W45321   9.768   4.767  11.679 -0.1832 -0.2519 -0.0082
28475W        W45322  12.126   9.870  15.321 -0.1689  0.0248  0.0984
28476W        W45323  17.016  16.390  14.191 -0.1700 -0.1984  0.0103
28477W        W45324   1.503  10.514   2.404  0.0079  0.0038 -0.0308
28478W        W45325  14.706   6.752  13.624  0.3059 -0.0695  0.3465
28479W        W45326   1.521  16.703   4.282 -0.0779  0.0254 -0.1278
28480W        W45327   1.306  15.136   1.057  0.0254 -0.1828  0.0582
28481W        W45328   3.767   6.658   1.321  0.2291  0.3027 -0.1940
28482W        W45329   4.402  17.284  15.699  0.0432 -0.0861  0.0128
28483W        W45330   4.580  10.776   0.208  0.1451 -0.1712  0.2380
28484W        W45331   8.774  12.502   4.616 -0.2252  0.0265  0.2244
28485W        W45332  15.659  10.701  15.399  0.1141 -0.0558  0.1145
28486W        W45333  15.606   5.850  15.671 -0.1348  0.0728  0.0476
28487W        W45334   5.166  11.827  16.506 -0.0996 -0.3251 -0.2375
28488W        W45335   7.934  14.321   5.332  0.0927  0.1694  0.0116
28489W        W45336  14.819  14.694  12.545 -0.0998 -0.2276  0.0203
28490W        W45337   7.566  13.836   3.937 -0.2085 -0.0640  0.1843
28491W        W45338   7.977   9.689  12.282 -0.3049 -0.1654 -0.1539
28492W        W45339   5.222   1.994  13.908  0.1204  0.2403  0.0007
28493W        W45340  10.075   9.231  13.485 -0.1958  0.1961 -0.2030
28494W        W45341   2.691  13.281   1.097 -0.2554 -0.3312  0.2430
28495W        W45342  15.668  14.571   2.696  0.3025  0.0931 -0.0242
28496W        W45343   4.980   4.742   2.663  0.0190 -0.0144 -0.1157
28497W        W45344   4.289   8.841   0.227  0.0382 -0.1052  0.1300
28498W        W45345   5.604   7.237   4.718 -0.3667  0.1112  0.2109
28499W        W45346  14.304  12.982   6.230  0.1196 -0.2989 -0.0240
28500W        W45347  14.714   3.478   0.896 -0.2594  0.1476 -0.0378
28501W        W45348   6.275   1.514   2.261 -0.3941 -0.3341  0.2095
28502W        W45349   3.657  15.460  12.960 -0.0730  0.2672 -0.0465
28503W        W45350  11.484   1.375   5.327  0.0700 -0.2600 -0.0925
28504W        W45351   3.475   1.626  10.313 -0.3500 -0.1220  0.0218
28505W        W45352  13.603  14.307  12.998  0.1939  0.2291  0.0136
28506W        W45353   6.555   3.704   2.619  0.1360 -0.1850 -0.0291
28507W        W45354   0.024  10.091  13.161 -0.0681  0.2369 -0.2660
28508W        W45355   3.432  13.542   2.870 -0.3855  0.0477  0.0536
28509W        W45356   1.556   0.733  15.839  0.2870  0.2521 -0.1404
28510W        W45357   1.299  12.943   1.366 -0.0497  0.1931  0.0416
28511W        W45358   0.362  18.005  12.189 -0.1455  0.0438 -0.1622
28512W        W45359   7.953   6.228   4.130 -0.2051  0.2623  0.1980
28513W        W45360  17.013   0.285  12.671 -0.0864  0.0342 -0.0195
28514W        W45361   2.466  17.421   3.437 -0.0492  0.0303 -0.0404
28515W        W45362  14.625   3.344   3.673 -0.1520  0.0622 -0.2395
28516W        W45363  12.746   3.117   5.315 -0.1600  0.1917  0.3484
28517W        W45364  14.086   0.704  15.943 -0.3554 -0.0024  0.1236
28518W        W45365  15.643   6.957   1.727  0.1321  0.1057 -0.2623
28519W        W45366   1.492   3.827   2.975  0.4793 -0.0870 -0.0827
28520W        W45367   4.419  14.187   2.444 -0.0577  0.0366  0.1572
28521W        W45368  14.644  14.363  14.636 -0.1006 -0.0697  0.1505
28522W        W45369  14.921  12.333   2.363  0.2226  0.2620 -0.0658
28523W        W45370   0.614  11.086   3.157  0.0665 -0.0087  0.0754
28524W        W45371   6.438   1.764  13.561 -0.0888 -0.0131 -0.1217
28525W        W45372  16.835  16.181   2.047  0.0754  0.0331  0.0743
28526W        W45373   7.921   5.805   1.582 -0.0377 -0.3143 -0.3029
28527W        W45374  10.716   7.223  12.234  0.1056 -0.3847  0.0286
28528W        W45375   4.847   1.152   1.486 -0.0681 -0.0213  0.0187
28529W        W45376  16.834  15.107   5.819 -0.1021 -0.4061  0.0772
28530W        W45377   9.654  16.757   1.203  0.0503  0.1043 -0.1841
28531W        W45378   2.722   9.299   0.794 -0.1975 -0.0136  0.1824
28532W        W45379  16.743   5.080  12.178 -0.0759  0.1004  0.2289
28533W        W45380  16.604   4.817  13.220  0.0133 -0.2198 -0.0518
28534W        W45381  16.414   1.747   5.756 -0.0632  0.1356 -0.3795
28535W        W45382   2.028  12.661  13.512 -0.0766  0.0204 -0.1479
28536W        W45383   7.238   5.669  12.346 -0.0778 -0.1117  0.0668
28537W        W45384  14.367  13.010   2.117 -0.0367 -0.2286 -0.0704
28538W        W45385   8.145   4.442  14.871  0.1487 -0.1251  0.0682
28539W        W45386   1.599   2.286   2.048 -0.0556  0.0355  0.3603
28540W        W45387   9.516  16.394  13.475 -0.0717 -0.0290  0.2455
28541W        W45388   4.367   0.243   0.392  0.2825 -0.1327 -0.3285
28542W        W45389   5.724   9.666  12.184  0.0328 -0.1401  0.3124
28543W        W45390   9.519   3.442  11.874 -0.2307 -0.0302  0.0657
28544W        W45391  14.544   0.352   4.446  0.0584 -0.0303 -0.2035
28545W        W45392   9.252   4.199   0.001 -0.2269  0.0914 -0.0241
28546W        W45393  12.420  15.464   1.562  0.2509  0.1606 -0.1763
28547W        W45394  13.278  17.051  13.050 -0.0727  0.1324  0.1766
28548W        W45395   6.558  13.385  14.975  0.0475 -0.3276 -0.2181
28549W        W45396  14.706   1.425  13.719  0.0211  0.0748  0.1426
28550W        W45397  13.388  13.801  14.056 -0.2000 -0.0157 -0.0209
28551W        W45398  17.783   3.884   6.218  0.0586 -0.1421  0.0083
28552W        W45399   6.213   4.581   1.568  0.1070  0.2516 -0.0499
28553W        W45400   3.920   1.995  14.194 -0.0608  0.0942 -0.2304
28554W        W45401  12.811  15.704  13.701  0.0851 -0.0189  0.2580
28555W        W45402   2.682  16.429   1.947 -0.1153  0.2103  0.0209
28556W        W45403   5.554  11.655  16.235 -0.0314  0.0809  0.0524
28557W        W45404   0.231   5.073  15.100 -0.1391 -0.3144  0.3275
28558W        W45405   6.069   9.756   4.767 -0.0599 -0.0637 -0.1748
28559W        W45406   7.054   1.605  11.853  0.1227 -0.2093 -0.1447
28560W        W45407  16.965   9.431   0.616 -0.0295 -0.2664 -0.3535
28561W        W45408  15.018   3.233  16.322  0.2831 -0.2041  0.1159
28562W        W45409  11.041  13.531   0.508  0.1158  0.2826  0.0693
28563W        W45410   8.074  16.967   2.902  0.0678 -0.0411 -0.0012
28564W        W45411   0.195  17.404  14.413 -0.0045  0.1469 -0.0793
28565W        W45412  14.648   1.278  13.257 -0.3371 -0.2496  0.1648
28566W        W45413   4.335  15.133   1.157  0.2897 -0.1582  0.1076
28567W        W45414  13.096   2.907  15.530 -0.2632  0.1734  0.0481
28568W        W45415  11.209   4.275   1.808 -0.1798  0.3853 -0.1324
28569W        W45416   7.968   0.100   3.431 -0.0270  0.1467  0.0265
28570W        W45417  13.341   2.694  11.444 -0.0710  0.1102 -0.0447
28571W        W45418  16.573   9.388   1.645  0.0845  0.1041  0.0944
28572W        W45419   8.186  13.968   4.504  0.1524 -0.1594 -0.1897
28573W        W45420  16.749   6.199   3.208  0.0300  0.0420  0.0059
28574W        W45421   8.841   2.256  12.030  0.1196  0.0608  0.0720
28575W        W45422  16.140   0.141   2.839  0.0264 -0.0836  0.0571
28576W        W45423   2.551   2.896   0.578 -0.0107  0.0457  0.0369
28577W        W45424   8.702   8.648  13.260 -0.1390  0.2466 -0.0700
28578W        W45425   8.047   8.577   2.032 -0.0587 -0.1474 -0.0273
28579W        W45426   7.803  17.348  14.732 -0.1326 -0.1740 -0.0648
28580W        W45427  10.257  10.552  12.849  0.1776 -0.1708 -0.0613
28581W        W45428   2.786   5.908   3.813  0.2669 -0.0947 -0.3804
28582W        W45429  10.276  17.252   4.842  0.4319 -0.0594 -0.1297
28583W        W45430   7.122   0.966  12.707  0.0753 -0.2532  0.1523
28584W        W45431   3.744   2.102   4.375  0.2631  0.0541  0.2581
28585W        W45432   1.769   7.872  12.799 -0.2254 -0.1228  0.3500
28586W        W45433   1.427   2.100   0.725  0.1063 -0.0110 -0.1621
28587W        W45434  10.442  11.621   2.682  0.2476 -0.3097  0.0669
28588W        W45435  15.392  13.340  12.508  0.0962  0.0158 -0.1829
28589W        W45436   8.369   0.527  13.094  0.1155  0.2607 -0.0186
28590W        W45437   0.211   1.667   2.349 -0.2040  0.1970  0.0121
28591W        W45438   8.229  18.029   3.825 -0.0480 -0.2722  0.1797
28592W        W45439   2.452  13.802   0.049  0.0822 -0.3548 -0.0025
28593W        W45440  12.918   4.762   1.768 -0.0459  0.0515 -0.0989
28594W        W45441   8.007  15.246  11.596 -0.0457 -0.1064 -0.0238
28595W        W45442   9.597   9.472  14.556  0.0493  0.1042  0.1424
28596W        W45443  16.032  15.915   1.493 -0.0355  0.0731 -0.1794
28597W        W45444  13.926  14.918   5.309 -0.2063 -0.1583 -0.0714
28598W        W45445   7.568  16.147   3.875 -0.0822  0.0581  0.3100
28599W        W45446   5.336  13.253   2.539 -0.2320 -0.0336 -0.4112
28600W        W45447   3.696   8.180   0.032 -0.0460  0.1504 -0.0815
28601W        W45448   5.437   2.451   0.959  0.1788  0.0842  0.2708
28602W        W45449  17.552  13.399   1.893  0.1726 -0.0898 -0.0877
28603W        W45450  16.290   6.282  13.607 -0.0951  0.1480 -0.0384
28604W        W45451  12.412   6.225  13.095 -0.2131  0.0459  0.2716
28605W        W45452  12.015  14.833   3.367  0.0867  0.2631  0.4224
28606W        W45453  15.299  16.797   5.138  0.3047  0.2103 -0.0255
28607W        W45454   4.966   7.849   1.819  0.0112  0.2469  0.0105
28608W        W45455  16.924   7.276   2.532  0.1848 -0.0825  0.2285
28609W        W45456  11.799   6.386   5.722  0.0906  0.2967  0.0996
28610W        W45457   1.991   0.949  12.361 -0.0052 -0.1654 -0.2364
28611W        W45458  13.717  14.693   2.051 -0.1606  0.1508  0.0835
28612W        W45459   7.850  10.588   1.282  0.0383 -0.0910 -0.3727
28613W        W45460   9.873  16.581   3.786 -0.4099  0.3016  0.2059
28614W        W45461   3.769   6.911  15.452  0.1061  0.0016 -0.1079
28615W        W45462   9.485  10.984  13.397 -0.0657  0.1179 -0.1032
28616W        W45463   3.644   4.664   3.272  0.1980  0.0090 -0.2841
28617W        W45464  15.655   0.242  13.257  0.0402  0.0106 -0.0005
28618W        W45465  14.450   0.424   2.186  0.1279 -0.0412 -0.1810
28619W        W45466   6.633  11.479   3.122  0.0384 -0.1616  0.0676
28620W        W45467  10.764   3.370   0.490 -0.2839 -0.0545  0.0997
28621W        W45468  17.390   2.910   3.628 -0.1742  0.3609 -0.1099
28622W        W45469   5.048  15.379  16.611 -0.2932  0.1447  0.3112
28623W        W45470   9.158   8.628  14.200 -0.2082  0.1968 -0.0147
28624W        W45471  10.962  15.648   0.634 -0.2928  0.1736  0.1681
28625W        W45472   4.031  17.561  12.274 -0.1423 -0.2847  0.2006
28626W        W45473  10.856  12.615  13.011 -0.2361  0.0495  0.0325
28627W        W45474   6.116  11.943   3.676  0.1185  0.0550  0.1112
28628W        W45475   0.717   7.537  13.328 -0.0741 -0.1128  0.0275
28629W        W45476  14.117   2.685   1.247 -0.1862  0.1001 -0.1225
28630W        W45477  11.548   4.851   2.063 -0.0319  0.0464  0.0628
28631W        W45478   4.053  13.151   3.599  0.0923 -0.2325 -0.3254
28632W        W45479   7.134   6.079   1.778 -0.0058 -0.1450  0.0141
28633W        W45480  17.098  12.362  15.321 -0.2862 -0.0830 -0.2120
28634W        W45481  14.825  10.469  11.954  0.0941 -0.2545 -0.0909
28635W        W45482   9.456  11.879  13.403 -0.1399  0.0415  0.3249
28636W        W45483  14.172   9.294  13.107  0.1763  0.1917  0.1658
28637W        W45484  17.554   4.444  12.617  0.0432  0.0311 -0.2099
28638W        W45485   7.675  13.833   3.097 -0.0118  0.1919  0.0811
28639W        W45486  12.973  14.176   5.919  0.0208 -0.1121  0.0392
28640W        W45487  16.372   7.812  15.828 -0.2747 -0.3041  0.4839
28641W        W45488  15.835  14.757   0.743 -0.1111 -0.1493  0.2094
28642W        W45489  12.285   2.851  11.756  0.2215  0.1652 -0.0374
28643W        W45490  17.583  14.711   0.050  0.0896  0.0737  0.1226
28644W        W45491   9.781  13.609  11.645 -0.2690 -0.0117 -0.0530
28645W        W45492   0.309  17.157  16.375  0.1203  0.0707  0.3217
28646W        W45493   5.189   7.467   1.137  0.3207  0.3261  0.0345
28647W        W45494   7.923  17.228   3.335  0.0534 -0.0455  0.0395
28648W        W45495   1.647   4.715  15.433 -0.0135 -0.0596  0.0753
28649W        W45496  15.983  13.486   4.524  0.4906  0.0712  0.1149
28650W        W45497  10.325   4.683   5.385  0.2314  0.0988 -0.0636
28651W        W45498   8.634  13.957  11.652  0.0994  0.1752  0.1182
28652W        W45499   5.071   8.465   1.727  0.0595 -0.3165  0.2069
28653W        W45500   1.801   8.744   4.310  0.2422  0.2009  0.1261
28654W        W45501  13.819   3.844  11.613 -0.0159  0.1130 -0.1817
28655W        W45502   2.684   4.613   3.327 -0.1266  0.0198 -0.2243
28656W        W45503   3.788   5.298   4.026 -0.0882  0.3124  0.1806
28657W        W45504   3.598   1.877   0.720  0.1531  0.0246 -0.0535
28658W        W45505  13.935  15.348   2.655 -0.0261  0.1787  0.3845
28659W        W45506   8.571   8.032   3.945 -0.1678  0.0787 -0.0823
28660W        W45507  17.307  11.648   3.987 -0.1345 -0.0475  0.1291
28661W        W45508   0.487   4.375   4.992  0.1884  0.0928  0.0341
28662W        W45509   0.684  11.260   0.114  0.0178 -0.0337 -0.1092
28663W        W45510   8.198   0.739  14.963  0.1911 -0.4258  0.1419
28664W        W45511   2.508   8.023  13.286 -0.1008 -0.0933  0.1678
28665W        W45512   1.097   9.337   2.891 -0.0460 -0.0088 -0.0963
28666W        W45513  16.503  15.791  13.760  0.1323  0.0531 -0.3751
28667W        W45514   7.475   5.524   2.336 -0.3343  0.0178  0.3290
28668W        W45515   1.837   6.720  11.569  0.0789 -0.2303  0.0667
28669W        W45516   2.405  11.903   1.665  0.2001 -0.0634 -0.2240
28670W        W45517  10.370  16.571   5.864 -0.1280  0.0744  0.0815
28671W        W45518   7.121   9.592  14.958  0.2750  0.1321  0.1913
28672W        W45519   0.739   8.154  15.938 -0.0906 -0.1412  0.3164
28673W        W45520  14.540  14.199  13.720  0.2375  0.3232  0.1413
28674W        W45521   6.445  14.117  12.784 -0.0623  0.0412  0.1280
28675W        W45522   9.017   3.431  12.169 -0.1003  0.0087 -0.2230
28676W        W45523   8.963  12.539  14.560  0.3513 -0.2239  0.1216
28677W        W45524  14.840   4.641   0.645  0.3386  0.3366 -0.0015
28678W        W45525   7.359  17.987   3.536  0.0918  0.0578  0.1617
28679W        W45526  13.313   1.625   3.162  0.0325 -0.1171 -0.3769
28680W        W45527  12.652  15.649  15.154 -0.0014  0.0859  0.0160
28681W        W45528  10.811  10.383  13.345  0.1975  0.0719 -0.1945
28682W        W45529  16.447   8.653   5.283 -0.0010  0.2061  0.1025
28683W        W45530   2.140  10.546  15.260 -0.2520 -0.0143  0.2473
28684W        W45531  14.310  13.217   3.236 -0.1921 -0.0950 -0.0557
28685W        W45532  10.295   3.485   1.315 -0.1264 -0.0213 -0.0170
28686W        W45533  11.065  10.888   2.587  0.0760 -0.0694  0.0649
28687W        W45534   0.819   0.299  14.992 -0.0519  0.0340 -0.2614
28688W        W45535   9.407  16.874  12.948 -0.0135  0.0142 -0.0475
28689W        W45536   9.673   5.155  14.840 -0.4036 -0.2610  0.2543
28690W        W45537   1.196  13.733   0.253  0.0301  0.1442 -0.0723
28691W        W45538   3.101  14.743   5.516 -0.2567  0.0636 -0.0366
28692W        W45539  11.141  13.261   4.694 -0.3343  0.0016  0.1058
28693W        W45540   2.198   2.426   1.090 -0.1964 -0.0339 -0.2225
28694W        W45541  13.091  10.365   1.160 -0.0545 -0.3234  0.0812
28695W        W45542  12.857   2.348   0.151  0.1780 -0.0207  0.1690
28696W        W45543   6.335   6.894  12.989  0.0323 -0.0565  0.3864
28697W        W45544  15.851   4.302   0.257  0.2556  0.2745 -0.1535
28698W        W45545   4.686  12.169   6.306  0.0491  0.0828 -0.1493
28699W        W45546  16.715   7.928   3.868  0.1015  0.2261 -0.1133
28700W        W45547   8.679  12.963   3.707  0.2820  0.1345 -0.1167
28701W        W45548  10.724  15.788  13.310 -0.0255 -0.1738  0.1899
28702W        W45549   3.825   1.801  12.345 -0.0423 -0.3734  0.0230
28703W        W45550  11.364  12.988  15.679 -0.0829 -0.0885 -0.4397
28704W        W45551  14.085   2.658  12.836 -0.3214  0.4682  0.0034
28705W        W45552  12.138  11.776   0.748  0.0768  0.0959  0.1101
28706W        W45553   4.850  12.711  16.585 -0.1255  0.2128 -0.1330
28707W        W45554   4.381  10.698  14.410 -0.0206 -0.1358  0.0238
28708W        W45555  11.488   4.739  13.272  0.1170 -0.0034 -0.1494
28709W        W45556  14.832  14.392   3.510  0.0820 -0.2097 -0.2124
28710W        W45557   1.501   8.364  15.288  0.0130 -0.1217  0.2467
28711W        W45558   9.746   3.852  11.583  0.3210 -0.0558 -0.0120
28712W        W45559   6.026   0.268  12.960 -0.1468  0.0755  0.0415
28713W        W45560   0.981  14.072  16.603 -0.1576 -0.0791 -0.0184
28714W        W45561  16.554  17.988   2.053  0.1616 -0.1218 -0.1912
28715W        W45562   6.190  10.447   4.480 -0.0874 -0.0348 -0.2219
28716W        W45563   0.867   8.970   2.506  0.2132  0.0360 -0.2638
28717W        W45564  17.166   1.921   5.460  0.0956  0.0430 -0.0877
28718W        W45565   5.712  14.168   4.159  0.0721 -0.3980 -0.1047
28719W        W45566   7.594   5.934  14.890 -0.2777  0.0004  0.0695
28720W        W45567   1.862   1.827   3.074  0.1490  0.0742  0.1459
28721W        W45568  11.453  16.355   4.639 -0.0967  0.2053  0.1357
28722W        W45569   1.914   0.451  13.808 -0.1113  0.5405  0.1972
28723W        W45570   7.110  11.049  16.194  0.2030  0.1194  0.1368
28724W        W45571  16.637   9.468  13.610 -0.0103 -0.0814 -0.0976
28725W        W45572   5.190  12.120   6.399 -0.3580  0.3092  0.0645
28726W        W45573   9.615   1.033  15.914  0.2162 -0.1661 -0.1400
28727W        W45574  14.895   8.430   5.584  0.2103  0.0448  0.1820
28728W        W45575  11.953  16.522  16.353 -0.1414 -0.0917 -0.0006
28729W        W45576   4.754  16.063  16.192 -0.2568  0.2013 -0.1610
28730W        W45577  16.783  11.910   6.186 -0.3336 -0.1567  0.3242
28731W        W45578  17.746   6.854  13.868  0.0634  0.0461 -0.0472
28732W        W45579  14.191   2.151   4.570 -0.1133  0.1875 -0.0607
28733W        W45580  13.156   6.753   0.818  0.3534  0.0225  0.1599
28734W        W45581   5.005   9.064  12.477 -0.2922 -0.0404  0.0716
28735W        W45582   4.162   3.533   1.568  0.1909 -0.2344  0.0441
28736W        W45583  15.132  17.148   1.193 -0.1369  0.2210 -0.1122
28737W        W45584   4.099  14.588  15.509 -0.0417  0.1590 -0.1341
28738W        W45585   5.402  12.241  14.312  0.0584 -0.2993 -0.0830
28739W        W45586  16.066  10.248   0.803  0.1384  0.1989 -0.2188
28740W        W45587   8.856  12.432   3.419 -0.5543  0.0913 -0.0286
28741W        W45588  13.331   8.522   4.261  0.0272  0.1793 -0.1088
28742W        W45589   2.329   1.547  13.024  0.0502  0.2521 -0.1019
28743W        W45590   5.637  11.947   0.034  0.0819 -0.2157 -0.0126
28744W        W45591   0.780  10.506   1.463 -0.0851  0.1882  0.0237
28745W        W45592  13.372   2.385   2.069 -0.2709 -0.1935 -0.2000
28746W        W45593   8.296  15.078   4.518  0.1393 -0.0579  0.2418
28747W        W45594  11.842  16.736  14.196  0.1513  0.1829 -0.0077
28748W        W45595  11.672   9.859  15.128  0.1247 -0.2900 -0.2252
28749W        W45596   5.741  12.897   1.578 -0.1743 -0.1174 -0.0294
28750W        W45597   1.425   6.138   2.387  0.2714 -0.3327 -0.1732
28751W        W45598   5.749   9.410   5.027 -0.3882 -0.0561  0.2706
28752W        W45599   4.260   0.947  15.621  0.1305  0.1782 -0.2009
28753W        W45600   3.958  14.591  16.647  0.2163  0.3406 -0.0355
28754W        W45601   3.278  14.554   0.912 -0.1943  0.3254 -0.3080
28755W        W45602  17.248   0.513  13.081  0.1486  0.2918  0.1917
28756W        W45603   2.384  15.179   0.418 -0.2976  0.1792  0.0124
28757W        W45604   6.082  10.932   1.059  0.2201  0.1055 -0.0666
28758W        W45605   6.097   0.149  13.516 -0.4983  0.0797 -0.1343
28759W        W45606   8.703  11.056  11.540 -0.0192 -0.0774 -0.1233
28760W        W45607  10.871  17.340   1.046  0.0947  0.0336 -0.0398
28761W        W45608  14.597   9.564  12.895  0.1105 -0.2954 -0.0811
28762W        W45609   7.056   1.022   5.758 -0.0735  0.1652  0.1639
28763W        W45610   0.964  11.189   4.460 -0.0849  0.1007 -0.1616
28764W        W45611  10.095   9.366  15.370  0.0434 -0.0339  0.0642
28765W        W45612  12.932  11.634  13.250  0.1624 -0.1475 -0.3275
28766W        W45613   3.197   7.706   0.529  0.1206 -0.0412 -0.1737
28767W        W45614  14.008  11.044  15.054  0.2344 -0.0717  0.0991
28768W        W45615  15.597   9.853  12.286  0.3646  0.0301  0.1657
28769W        W45616   7.765   4.535   4.773  0.1787  0.0914 -0.2904
28770W        W45617   9.042   0.721   2.101 -0.0993 -0.0086 -0.0787
28771W        W45618   0.870   0.406  11.658  0.2462  0.1223 -0.0840
28772W        W45619  12.914   3.576  11.885  0.0572 -0.2032 -0.3358
28773W        W45620  17.668  16.425   1.706 -0.0787 -0.2247  0.3563
28774W        W45621   8.717  15.634   1.278  0.1443 -0.0693 -0.0199
28775W        W45622   3.033   4.270   1.003  0.0552  0.0820 -0.1572
28776W        W45623  16.879   8.010  16.342 -0.1382 -0.2093  0.0486
28777W        W45624  13.806   4.820  11.910 -0.3610  0.0025  0.0958
28778W        W45625   8.902   8.384   0.402 -0.0427 -0.1711  0.2148
28779W        W45626   5.946  15.468  11.575 -0.2774  0.0784 -0.2513
28780W        W45627  15.804  12.153  14.597  0.2372  0.0917  0.1041
28781W        W45628  11.204  14.854   3.472 -0.1218  0.0100  0.0575
28782W        W45629   7.009  15.531   2.375 -0.2485  0.3182 -0.1103
28783W        W45630  12.127  12.000  11.503  0.0147  0.0576 -0.3681
28784W        W45631   5.045  17.783   5.890 -0.0058  0.2102  0.2690
28785W        W45632  16.903   7.031   4.661  0.2854  0.0975 -0.0932
28786W        W45633  13.952  10.098   4.610 -0.1414  0.1838  0.0981
28787W        W45634  13.262   9.010  11.983  0.2815 -0.0207  0.0462
28788W        W45635  14.946  14.342   0.784 -0.0567 -0.0356  0.1891
28789W        W45636  13.294  11.201  16.323  0.1417  0.2034 -0.0578
28790W        W45637  12.336  13.832  12.556 -0.1704  0.3351  0.2103
28791W        W45638  16.463  14.204   0.408 -0.0761 -0.0378  0.1725
28792W        W45639   4.812  15.860  13.116  0.0193  0.0182 -0.0550
28793W        W45640   9.096  12.556   2.982  0.2009 -0.2405 -0.1414
28794W        W45641  10.412  10.524   4.775 -0.3989 -0.2794 -0.3929
28795W        W45642  17.868  12.384   5.530 -0.0923  0.3904  0.0138
28796W        W45643   6.258  10.349  14.268  0.1223  0.0125 -0.1183
28797W        W45644   9.806  10.387   3.526  0.0293  0.0662 -0.2440
28798W        W45645  17.127   0.001  15.377 -0.2150  0.2468 -0.2593
28799W        W45646   5.528  17.176  12.885  0.0658 -0.0519 -0.3003
28800W        W45647  15.626   3.993   2.620 -0.2071  0.1192 -0.0959
28801W        W45648  15.497   1.636   0.288  0.1394 -0.0935 -0.0645
28802W        W45649   4.498  15.253  11.535 -0.0831 -0.1005 -0.0100
28803W        W45650   9.994   4.313  11.890  0.0948  0.0287  0.2231
28804W        W45651   1.642  13.794   3.660 -0.2275 -0.0446 -0.3925
28805W        W45652   6.779  16.708  16.517 -0.3308 -0.3294 -0.0823
28806W        W45653   9.364  15.209   3.825  0.0275  0.0979  0.2307
28807W        W45654   8.048  12.541  16.112  0.1373 -0.0300 -0.1920
28808W        W45655   2.726   8.017   3.826 -0.2196 -0.1330 -0.2062
28809W        W45656   5.669   2.417   0.408 -0.1569  0.2472 -0.0180
28810W        W45657   5.558   7.025   2.389  0.1449  0.2529  0.0896
28811W        W45658   9.197   8.723   4.092 -0.1458  0.0941  0.1412
28812W        W45659   0.562   4.395  12.559  0.3022 -0.0403  0.4000
28813W        W45660   3.784   8.610  13.236 -0.2225 -0.1286  0.0708
28814W        W45661   4.496   9.121   2.671  0.0779 -0.2513 -0.0552
28815W        W45662   7.052   6.880  15.777 -0.2289  0.2863 -0.0154
28816W        W45663   0.903  17.662  11.545 -0.2269 -0.0408  0.0140
28817W        W45664   7.934   6.509   5.741  0.0689 -0.0372 -0.1581
28818W        W45665   5.268   3.796   3.883  0.0118  0.0594  0.0723
28819W        W45666  12.497  13.461  15.062 -0.3310  0.2120  0.0156
28820W        W45667   1.515  17.467   2.841 -0.1157  0.2071  0.0166
28821W        W45668  10.715  17.313   3.708  0.1122  0.1145  0.1340
28822W        W45669  17.670  16.437   1.165 -0.0675  0.2590  0.1078
28823W        W45670  10.318  13.281   4.094 -0.0750  0.0553  0.1104
28824W        W45671  15.191  17.733   0.444 -0.0011  0.1837 -0.3401
28825W        W45672   7.563   1.271  15.557  0.1104  0.0524  0.2183
28826W        W45673  17.277  12.939   5.469  0.0528  0.1309 -0.1945
28827W        W45674   0.967   5.956   3.521  0.1446  0.0841 -0.0811
28828W        W45675   7.754  15.897   3.331 -0.0730  0.2589 -0.3797
28829W        W45676  15.700  16.987  11.332 -0.1825  0.1411 -0.0651
28830W        W45677   9.618   4.727  15.063  0.2120  0.0895  0.0043
28831W        W45678  14.100  10.537   4.696  0.0279  0.0199 -0.0670
28832W        W45679   9.342  12.562  15.424 -0.2139  0.0535 -0.1143
28833W        W45680   5.018   1.249   3.183  0.5204  0.1843 -0.1642
28834W        W45681  16.444  13.926  15.792  0.0617 -0.0400  0.0116
28835W        W45682   4.347   1.352  12.805  0.0405 -0.4715  0.1086
28836W        W45683   6.169  11.809   2.308 -0.0170 -0.0287  0.2191
28837W        W45684  12.063   1.189  15.625 -0.0103 -0.0922 -0.1070
28838W        W45685   3.344  15.797  13.816 -0.0034  0.0005  0.2308
28839W        W45686   8.875  12.464   4.060 -0.1392  0.1598 -0.1216
28840W        W45687  14.938  17.038   3.850 -0.0018  0.1793 -0.1482
28841W        W45688  13.547   1.137   1.421 -0.1289 -0.1858 -0.3790
28842W        W45689  17.327   4.652   1.779 -0.1205  0.1487 -0.0791
28843W        W45690  11.482  12.854   3.457 -0.4524 -0.3146 -0.0161
28844W        W45691   1.471   4.796   0.274  0.0225 -0.2298 -0.0499
28845W        W45692  10.277   7.315   2.078 -0.2288 -0.1609 -0.0290
28846W        W45693   4.288  16.747   2.118  0.1254 -0.4257 -0.0516
28847W        W45694   6.143   9.631  13.335 -0.3598  0.1890 -0.2699
28848W        W45695  10.600   3.379  14.539 -0.0428  0.1190 -0.2002
28849W        W45696  10.203   2.667  13.040 -0.0877  0.3628 -0.0594
28850W        W45697   4.559  10.320   3.470  0.0303 -0.2457 -0.0259
28851W        W45698   0.068  11.536   2.582 -0.0871  0.0896  0.5891
28852W        W45699   5.614   7.584   5.708  0.0755  0.0169 -0.2373
28853W        W45700  16.501   7.615  14.662  0.1032 -0.0277  0.2695
28854W        W45701  12.702   9.218   3.018 -0.0386 -0.3036 -0.1376
28855W        W45702   2.371  15.421  15.455 -0.3986  0.4763 -0.0268
28856W        W45703  16.188   7.751  14.188  0.2627  0.0275 -0.0655
28857W        W45704  11.948  17.671   4.175 -0.1948 -0.0946  0.0316
28858W        W45705   2.985  10.857  14.087  0.1704  0.1015  0.0525
28859W        W45706  11.094  16.946  16.362 -0.1561  0.2819 -0.2139
28860W        W45707   7.145  14.121  15.964  0.0090 -0.0778 -0.1533
28861W        W45708  12.913  12.186   3.022 -0.2361 -0.0183 -0.0275
28862W        W45709   3.145  13.298   4.296  0.3281  0.0713  0.0934
28863W        W45710   4.144   3.538   5.253 -0.0478 -0.0599  0.0093
28864W        W45711  17.665   0.633   1.649  0.1177 -0.0091  0.0829
28865W        W45712  13.247   8.777   0.796  0.1006 -0.0535 -0.0021
28866W        W45713  17.816   5.629  15.562  0.0343  0.0651 -0.0370
28867W        W45714   1.270   2.301   1.213  0.0695 -0.0740  0.0347
28868W        W45715   8.324   9.246  16.400  0.0487 -0.0737  0.1348
28869W        W45716   9.488  15.147   1.463  0.0754  0.1640  0.0406
28870W        W45717  10.093  11.440  12.915 -0.1090  0.0242  0.2388
28871W        W45718  17.546   2.003   0.390 -0.4854 -0.1403 -0.1476
28872W        W45719   8.040   8.429  16.528 -0.2107 -0.3034 -0.1226
28873W        W45720   0.808  16.763  15.428 -0.0154  0.2108  0.3852
28874W        W45721   0.973   1.968   1.495  0.1845 -0.0899 -0.0465
28875W        W45722  15.922  14.855  13.076 -0.2295  0.1250  0.1269
28876W        W45723   3.343   5.135   1.179 -0.0162  0.2090 -0.1076
28877W        W45724   1.295   9.705   5.730  0.1316  0.0255 -0.1791
28878W        W45725   0.595   4.212   2.444  0.0345 -0.1228 -0.1480
28879W        W45726  11.004  10.055   0.402 -0.4135 -0.1091  0.2891
28880W        W45727  12.077   6.646  13.156 -0.0490 -0.0461  0.0109
28881W        W45728   9.977   1.529  13.743 -0.0328 -0.0817 -0.3132
28882W        W45729  10.194   0.146  13.332 -0.1257  0.1341 -0.2009
28883W        W45730   2.765   5.534   4.798 -0.2659  0.1723 -0.1490
28884W        W45731   5.864  13.779  11.685  0.0022  0.3428  0.0527
28885W        W45732   4.085   5.397   2.597  0.0707 -0.0840  0.1622
28886W        W45733  11.242   0.697  14.698  0.3792  0.2394 -0.1119
28887W        W45734  17.642  17.432   0.431  0.1177  0.1075  0.2611
28888W        W45735  17.157  12.011   0.116 -0.0555 -0.1549  0.1221
28889W        W45736   5.843   0.645  13.311 -0.1267 -0.0806 -0.3054
28890W        W45737   1.813  14.232   2.264  0.1330  0.0136 -0.1609
28891W        W45738  16.384  16.910   5.073 -0.2034  0.0767 -0.1987
28892W        W45739  10.102  10.996   1.228 -0.1261 -0.0930  0.2864
28893W        W45740  12.626   4.377  14.289 -0.3476 -0.0866  0.0476
28894W        W45741  13.383   9.236   4.966  0.2032 -0.0676 -0.2979
28895W        W45742   0.831   0.294   0.984  0.1014 -0.0059  0.0773
28896W        W45743   0.857   9.479  13.482 -0.0977 -0.3168  0.1482
28897W        W45744   6.112   6.051   1.150  0.0860  0.0013 -0.2332
28898W        W45745  16.605   0.323   2.696 -0.1209 -0.2247 -0.0488
28899W        W45746   4.739  11.148  15.015  0.4927 -0.0816 -0.1111
28900W        W45747  11.378   6.624   1.833 -0.0581 -0.0746 -0.0109
28901W        W45748   8.223  16.537  13.595 -0.1523 -0.0332 -0.1264
28902W        W45749  16.199   2.718  14.901  0.0490  0.1556 -0.0568
28903W        W45750  11.060   0.560  16.270  0.1871  0.1429  0.1239
28904W        W45751   8.610  16.472  12.729  0.0883 -0.1994  0.2760
28905W        W45752   5.926   3.810  14.017  0.1165 -0.0112 -0.0210
28906W        W45753   2.217   3.148   3.349  0.3141 -0.1344  0.1057
28907W        W45754  12.871   9.031   5.927  0.2561  0.0745 -0.1124
28908W        W45755   9.125   1.260  16.101 -0.0599  0.0555  0.0933
28909W        W45756   1.770   1.499   2.678 -0.0233 -0.0818 -0.1052
28910W        W45757  12.125  13.357   1.729  0.1235  0.2814  0.3354
28911W        W45758  12.435   6.099   0.092  0.1546 -0.1996  0.0609
28912W        W45759   6.651  17.730   3.979 -0.1182 -0.1647  0.1417
28913W        W45760   9.349  17.420   1.459  0.0914 -0.1054 -0.1913
28914W        W45761   3.444   8.796   5.790  0.1211 -0.1525  0.1196
28915W        W45762  14.240  17.234  14.251 -0.1553  0.0788 -0.2641
28916W        W45763   4.520   1.129  13.793 -0.0304 -0.1826  0.1805
28917W        W45764   5.259  15.999  11.274 -0.0231 -0.2204 -0.0202
28918W        W45765  13.933  17.624  10.923  0.0834 -0.1644 -0.2542
28919W        W45766  13.342  14.638  14.928  0.1001  0.5221 -0.1814
28920W        W45767   2.069   6.794   0.528  0.0577  0.2938  0.1038
28921W        W45768  13.411  10.581   1.473 -0.2017  0.1524  0.1081
28922W        W45769  16.452   1.385   1.264 -0.1650  0.1903 -0.0721
28923W        W45770  12.229   1.623   2.398 -0.3236  0.1047  0.0026
28924W        W45771  15.252  11.569   5.507 -0.1224 -0.2007 -0.1299
28925W        W45772  10.561  14.170  13.963 -0.2716  0.1585 -0.2185
28926W        W45773  18.015  10.576  13.907  0.1060 -0.1710  0.0465
28927W        W45774   1.505  12.715   3.193  0.1976 -0.4798  0.1034
28928W        W45775   3.983   2.260   1.433 -0.1535  0.1037 -0.1109
28929W        W45776   9.682   2.504  15.324  0.0414 -0.0388 -0.2951
28930W        W45777  12.780  11.515   3.360 -0.1629 -0.0345  0.2299
28931W        W45778   1.260  11.627   4.349 -0.1946 -0.1615 -0.0281
28932W        W45779  15.936  14.182   4.744  0.0832 -0.1257  0.0238
28933W        W45780   5.808  14.913   3.878 -0.0809  0.0093  0.0342
28934W        W45781   3.990   1.008  13.576  0.0636 -0.2764 -0.1697
28935W        W45782   6.128  12.954   5.533 -0.1606  0.0638  0.0845
28936W        W45783   5.562   8.174   1.844 -0.3306 -0.0894  0.1426
28937W        W45784  12.905   0.236   2.375 -0.1027 -0.1627 -0.2862
28938W        W45785  13.364   0.652  15.424 -0.1418 -0.5196 -0.2505
28939W        W45786   9.711  16.436   4.324 -0.0856 -0.0728 -0.2378
28940W        W45787   6.631  13.030   0.340  0.1870  0.1077  0.4466
28941W        W45788  13.915  11.946   4.337 -0.1330  0.0249  0.1071
28942W        W45789   4.021   0.149   3.382  0.1987  0.1326  0.1292
28943W        W45790  18.042  11.849   3.421 -0.2865 -0.0047  0.0738
28944W        W45791  12.327   5.029  13.702  0.4076  0.2424 -0.0529
28945W        W45792   8.620  15.465   2.458  0.2835  0.2293 -0.2413
28946W        W45793  17.034  15.210   4.401 -0.0176  0.1399 -0.1046
28947W        W45794  17.750   0.065   3.089  0.5015 -0.2191  0.1242
28948W        W45795  14.250   4.041  16.323  0.3064  0.1963  0.1127
28949W        W45796   2.281  13.078  12.779 -0.2985 -0.0739 -0.1201
28950W        W45797   6.325   8.957   2.687  0.0025 -0.0620 -0.4334
28951W        W45798  10.995   3.607  14.216  0.0311 -0.1240 -0.0971
28952W        W45799  10.011   3.818  14.044 -0.1910  0.1369  0.1518
28953W        W45800  12.470   1.241  12.928  0.1837  0.2549  0.2011
28954W        W45801  10.455   7.947  16.128 -0.1026 -0.1436  0.0238
28955W        W45802   5.188  12.366  16.509  0.1920  0.0893 -0.0168
28956W        W45803  16.266   4.774   4.964 -0.1049  0.0116 -0.1827
28957W        W45804   0.762   7.083  14.145  0.0092  0.2724  0.0110
28958W        W45805   5.838   2.291   4.159 -0.2634  0.1139 -0.0281
28959W        W45806  17.677  10.254   1.347  0.4567  0.0770 -0.2065
28960W        W45807   9.195   6.002   3.651  0.1082  0.0337  0.1083
28961W        W45808  16.292   8.295  15.105  0.0068  0.2983  0.0749
28962W        W45809   4.540   6.260   0.411 -0.2916  0.0467 -0.2284
28963W        W45810   0.562  17.855   3.367  0.1893 -0.0611 -0.2505
28964W        W45811   8.837  13.977   4.831  0.0288  0.3545 -0.0935
28965W        W45812   4.008  15.969  11.999  0.0163  0.0081  0.2308
28966W        W45813  17.240   8.366   2.637  0.1485 -0.1288  0.2187
28967W        W45814  16.790  16.871   2.998 -0.2498 -0.1392 -0.2941
28968W        W45815  15.474   2.226  14.460  0.2486 -0.0243  0.0189
28969W        W45816   3.303  12.870   2.243 -0.0596  0.3871 -0.0402
28970W        W45817   5.223  16.304   4.475  0.1949  0.3193 -0.2713
28971W        W45818   4.171   7.551  14.694  0.2932  0.2198  0.0445
28972W        W45819  17.656  15.960   3.489  0.0188  0.0025 -0.0841
28973W        W45820  13.782   0.466  14.490 -0.1944  0.2933  0.3757
28974W        W45821   5.240   4.931   3.089  0.4047  0.0366 -0.2821
28975W        W45822   5.287  17.417  14.683 -0.0617 -0.0838  0.1095
28976W        W45823   8.604  12.892  14.550  0.0725  0.2923  0.4148
28977W        W45824   5.507   4.223   4.463 -0.2571 -0.0150  0.0180
28978W        W45825   9.833  16.733   3.268 -0.0526  0.0391  0.1469
28979W        W45826   0.386  15.598   2.067  0.3889 -0.0828  0.1131
28980W        W45827  13.843  10.024   5.636  0.2611  0.1182 -0.0175
28981W        W45828  13.432  17.625  14.542 -0.0405 -0.0865  0.1851
28982W        W45829  12.404  15.826   0.533 -0.1285 -0.2591  0.1845
28983W        W45830  11.912   3.633  15.738 -0.0515  0.1836 -0.2209
28984W        W45831  11.712  12.646  15.781 -0.1748  0.2336  0.0513
28985W        W45832  10.784  10.168  15.440  0.0737 -0.4590 -0.0117
28986W        W45833  11.977   8.718   2.614 -0.1884  0.0899  0.3896
28987W        W45834  12.935   9.520   3.407  0.5211  0.3046  0.0751
28988W        W45835   8.339  12.141  15.025  0.2112  0.0155 -0.2086
28989W        W45836   6.281   4.928  15.261  0.0336 -0.0745 -0.2385
28990W        W45837   0.982   1.535   3.445  0.1517 -0.2954  0.0510
28991W        W45838   6.749  16.880   3.076  0.0035 -0.3511  0.1975
28992W        W45839   8.076  11.183   1.156 -0.1978  0.0513 -0.1207
28993W        W45840   5.495  12.465   6.071  0.4880  0.1060 -0.2617
28994W        W45841  13.157   5.810   3.728 -0.0537 -0.0046  0.1452
28995W        W45842  10.391   0.989  13.207 -0.0390  0.0480 -0.0621
28996W        W45843   3.304  10.261   1.437 -0.1092 -0.0341 -0.1569
28997W        W45844  14.267  15.634   2.855  0.1059  0.1594 -0.0978
28998W        W45845   5.992   1.437   4.620  0.0405  0.1445  0.1005
28999W        W45846  17.257   6.847  12.762  0.0592 -0.0339  0.0186
29000W        W45847   6.071  15.229   3.222  0.0024  0.1609 -0.1012
29001W        W45848  15.960  13.962  13.507 -0.1378 -0.1810 -0.2770
29002W        W45849   4.311   1.377  13.391 -0.1897  0.2061 -0.1683
29003W        W45850   3.180  10.421  15.645  0.1283  0.0164  0.1504
29004W        W45851  14.875   2.712  13.579 -0.1965 -0.3658 -0.4068
29005W        W45852  17.123   1.672  12.412  0.2285 -0.2497 -0.0877
29006W        W45853   3.065   8.567  12.631 -0.1408 -0.1062  0.1671
29007W        W45854   7.265  17.617   5.370 -0.0812  0.0443  0.0575
29008W        W45855   9.352  17.736   4.224  0.0329  0.0267 -0.0493
29009W        W45856   5.297  12.254  14.806 -0.1370 -0.0628 -0.0298
29010W        W45857   2.041   2.760   5.599 -0.0286 -0.0163  0.0231
29011W        W45858   4.755  11.337   1.520 -0.2742 -0.5047 -0.1861
29012W        W45859   4.958  10.001   1.588  0.0400  0.0184  0.1418
29013W        W45860   3.809   3.118   4.038 -0.1455 -0.0394  0.1142
29014W        W45861  10.788  18.053   0.305 -0.0147 -0.1747 -0.0643
29015W        W45862  13.767   7.022  16.269 -0.2181  0.3043  0.0135
29016W        W45863   7.502   8.256   2.612  0.2363 -0.0466  0.3094
29017W        W45864  16.947   7.814  15.875 -0.0479 -0.2631 -0.1079
29018W        W45865  16.296   9.161   2.874 -0.0425 -0.1029 -0.0038
29019W        W45866   9.024  10.357  13.037  0.0658  0.0209  0.1789
29020W        W45867  15.060  13.839   3.478 -0.0244  0.0958 -0.5335
29021W        W45868  15.944   1.777  15.653  0.1335 -0.3003  0.2296
29022W        W45869   2.594   2.803   4.233  0.0770 -0.0074 -0.0890
29023W        W45870   8.571  16.290   2.149 -0.0408 -0.0364  0.1138
29024W        W45871  14.176  12.819  15.956 -0.2485  0.0391  0.0872
29025W        W45872   4.304  10.049  15.701 -0.0399 -0.0534 -0.1263
29026W        W45873   4.632  14.091  16.237 -0.0934  0.0409  0.0024
29027W        W45874  13.337   8.868  14.280  0.3103 -0.2491  0.0743
29028W        W45875  17.068  12.450   1.836  0.1039  0.0353  0.2062
29029W        W45876  13.957  13.876  12.888  0.2342  0.3859 -0.0553
29030W        W45877  10.227  16.101   0.513  0.1616  0.0763 -0.0133
29031W        W45878   1.924   6.766   2.609 -0.1181 -0.0741 -0.1939
29032W        W45879   6.281  13.224   4.014 -0.0296  0.0089  0.3310
29033W        W45880  14.913   8.701  12.303  0.0599  0.0206 -0.1566
29034W        W45881  17.600   8.580   1.388  0.1611 -0.0978  0.0487
29035W        W45882   2.365   0.198  16.343 -0.0830 -0.1209  0.1100
29036W        W45883   0.752  17.066   4.547 -0.0292 -0.5179  0.3118
29037W        W45884  17.596   9.641  12.522 -0.1021 -0.0833 -0.0484
29038W        W45885   5.362   0.712  12.129 -0.3638  0.1325  0.1758
29039W        W45886   7.061   4.921  15.613  0.1087 -0.3078 -0.3046
29040W        W45887   9.780  15.354  13.821  0.0264  0.0593  0.2715
29041W        W45888   5.038  11.809   4.261 -0.1510  0.1070  0.0722
29042W        W45889   5.390  15.425  15.739  0.1467  0.0055  0.0068
29043W        W45890  13.543   2.914   1.893 -0.0480 -0.2879 -0.1617
29044W        W45891   4.789   6.887  14.437 -0.2593 -0.0709  0.2294
29045W        W45892   2.581   7.645   0.696  0.0480  0.0320  0.1017
29046W        W45893   4.412   3.059  13.420 -0.3698 -0.4540  0.0910
29047W        W45894   0.986  14.223   5.306 -0.0869 -0.0050 -0.2527
29048W        W45895   3.134  16.857   1.142  0.1479  0.1285 -0.0279
29049W        W45896   8.996  13.751   0.243  0.3014  0.2229 -0.0909
29050W        W45897   6.909  16.962   5.860 -0.1675 -0.1159  0.1416
29051W        W45898  10.132   6.212   2.992 -0.1104 -0.0053  0.1462
29052W        W45899   0.659   4.098  16.654  0.0495  0.1122 -0.2776
29053W        W45900  17.805   4.270  16.237 -0.1829 -0.2952 -0.1096
29054W        W45901  17.004   0.257   2.326  0.2643  0.2745 -0.0710
29055W        W45902   4.492   7.227   5.898 -0.0115  0.1407 -0.0485
29056W        W45903   7.487   1.801   2.697 -0.4045  0.0108  0.1409
29057W        W45904  13.986  10.665   3.736 -0.1016  0.3603  0.2513
29058W        W45905   5.150  17.102  11.588  0.0240 -0.1313  0.0884
29059W        W45906   4.749  10.600  14.055  0.0699  0.1649  0.0378
29060W        W45907  12.451   3.979  12.654  0.0342 -0.0051 -0.1540
29061W        W45908   7.451  10.848  14.339 -0.2171 -0.1638  0.0340
29062W        W45909  11.369  15.821   2.609 -0.1694 -0.3836  0.2471
29063W        W45910  15.547   9.173  15.207  0.1781 -0.2526  0.3195
29064W        W45911   0.474  11.444   4.589  0.2421 -0.2720  0.0035
29065W        W45912  16.704  15.046  13.866  0.2103  0.0797  0.3640
29066W        W45913  12.902   5.158  11.194 -0.0315  0.2211  0.2010
29067W        W45914   1.783   6.471   5.327  0.1403  0.1629 -0.2922
29068W        W45915  17.861   0.463  15.199 -0.0450 -0.0497  0.2089
29069W        W45916  12.511  11.647   1.566 -0.1130  0.1256 -0.0324
29070W        W45917   1.765  11.436   5.388  0.0455 -0.0877 -0.0601
29071W        W45918   8.641  17.848   3.452  0.1169 -0.1193 -0.0119
29072W        W45919  10.405   0.768  13.709 -0.2708 -0.0367 -0.0250
29073W        W45920   0.141   5.305  11.794  0.1362 -0.0666  0.1970
29074W        W45921   5.974   1.115  11.641  0.0157 -0.0724 -0.1076
29075W        W45922   9.753  16.953   4.105 -0.2147  0.0311  0.2561
29076W        W45923  15.927   4.748   5.305  0.1705 -0.0692  0.0062
29077W        W45924  16.581   1.673  14.460 -0.2044  0.0396  0.0298
29078W        W45925  17.495   2.484   4.785 -0.1323  0.0681  0.3862
29079W        W45926   6.230  10.076  15.829 -0.1552 -0.0901  0.1070
29080W        W45927   4.527   2.432   2.095 -0.0521  0.1277  0.0363
29081W        W45928  15.630  17.031   1.069  0.0425 -0.0337  0.1907
29082W        W45929   1.449   3.981  14.053 -0.0894  0.0466  0.2273
29083W        W45930   6.806  13.743   3.479  0.0036 -0.2940 -0.2022
29084W        W45931   5.593   8.268   0.688 -0.0787 -0.2716  0.1751
29085W        W45932  16.906  14.588   3.253 -0.1664 -0.0282  0.2644
29086W        W45933   5.662  12.303  13.199  0.3223 -0.0368 -0.1300
29087W        W45934   3.705  15.579  11.882  0.1233  0.2759  0.4122
29088W        W45935   0.082   7.716   4.948  0.0034 -0.3404 -0.3961
29089W        W45936  13.628  11.888   0.288  0.0765 -0.1085 -0.0094
29090W        W45937  13.265   9.711   2.340  0.1479  0.3957  0.0311
29091W        W45938  16.965   6.655   3.870  0.0673 -0.2926 -0.1530
29092W        W45939   6.962   5.065  13.608  0.1176 -0.1027 -0.0874
29093W        W45940   2.787  15.169   0.110 -0.0378  0.1209  0.3198
29094W        W45941  10.162  10.125   4.817 -0.1542  0.0754  0.4287
29095W        W45942   5.855  17.407  16.021 -0.2653  0.2552 -0.0582
29096W        W45943   2.596   7.518   3.069 -0.0367 -0.0708  0.1495
29097W        W45944  13.491   8.505  15.187 -0.1268 -0.0696 -0.0453
29098W        W45945   2.948   6.626  15.419  0.2370  0.2313 -0.1091
29099W        W45946   3.618   3.850  11.849 -0.2056 -0.0819 -0.3724
29100W        W45947  10.732   8.260  14.859  0.0554  0.1275 -0.1345
29101W        W45948   4.894   8.126   1.363 -0.0156  0.1885 -0.1541
29102W        W45949  11.264   5.745   3.035  0.1736  0.1170 -0.1512
29103W        W45950  11.301  14.519  14.557  0.0099 -0.0418  0.1537
29104W        W45951   0.960  16.504   0.117  0.0246 -0.1140  0.0278
29105W        W45952   9.791   9.349   4.280  0.0611 -0.0280  0.1529
29106W        W45953   5.112  13.994   5.289 -0.1116 -0.3378  0.1539
29107W        W45954  14.576   7.627   1.451 -0.0906 -0.1359  0.2017
29108W        W45955  16.908   2.326  13.272 -0.2083  0.1663  0.0316
29109W        W45956  15.929  13.494   3.484 -0.4599  0.2110 -0.1842
29110W        W45957  11.760  13.478  15.305  0.1692  0.1479 -0.0526
29111W        W45958   8.859   7.334   2.344 -0.1377  0.1087 -0.0576
29112W        W45959   7.560  16.916   3.487  0.2205 -0.0718 -0.4481
29113W        W45960  13.386  15.071  15.978  0.1950  0.1120  0.0395
29114W        W45961  11.711   2.815   4.019  0.1295 -0.4501 -0.1046
29115W        W45962  16.268   1.825  11.079 -0.0897 -0.0814 -0.2063
29116W        W45963  15.071   1.704  16.661  0.3989 -0.2312  0.4806
29117W        W45964   0.328   6.690  12.904  0.1214  0.0208  0.0956
29118W        W45965   6.402  12.109   1.837  0.0211 -0.0463 -0.0393
29119W        W45966   3.057   8.672   0.952 -0.2032 -0.3519 -0.1082
29120W        W45967  15.095  15.524  16.113  0.2044  0.1069  0.2384
29121W        W45968  14.635  14.817  15.017 -0.0015  0.0465 -0.1349
29122W        W45969  11.707  11.170  15.154  0.1605 -0.1905 -0.1067
29123W        W45970  12.327   6.717  15.881  0.2068 -0.2294 -0.0575
29124W        W45971  17.547  16.193  12.898 -0.3182 -0.2226 -0.1749
29125W        W45972  14.885   5.515   4.288  0.1125 -0.3115  0.1085
29126W        W45973   6.072  17.922   1.856  0.0545 -0.6764 -0.0437
29127W        W45974   7.898   8.211   5.777 -0.0853 -0.0344  0.0936
29128W        W45975  17.397   4.243  11.325  0.1457  0.0033  0.0414
29129W        W45976   9.670  10.197  16.402  0.2680 -0.0975  0.0965
29130W        W45977   9.285  16.056   4.187  0.0062  0.0699  0.0802
29131W        W45978  10.501  12.408   4.960  0.0754 -0.0926  0.0435
29132W        W45979   3.806  14.034  14.522 -0.1698  0.0844 -0.0054
29133W        W45980   6.098   8.375   4.136 -0.2514  0.3326  0.0727
29134W        W45981   1.633   3.736   5.557 -0.0157  0.3032  0.3832
29135W        W45982   6.503   3.715  13.018 -0.0488  0.2789 -0.1307
29136W        W45983   0.206   8.618   4.692  0.0620 -0.2212  0.1760
29137W        W45984   2.743   0.842   4.427  0.0179 -0.0559 -0.0964
29138W        W45985  15.659  17.705   5.242 -0.0426  0.1704  0.0329
29139W        W45986   7.293  12.126   4.679 -0.0515  0.0058  0.2284
29140W        W45987  13.758  15.269   4.440 -0.0358  0.1473 -0.0695
29141W        W45988   5.019   1.987  15.006  0.1418  0.0770 -0.0012
29142W        W45989  11.414   5.198  11.450  0.3248 -0.2167  0.3051
29143W        W45990  10.594   4.789   4.040 -0.2876  0.1996  0.1994
29144W        W45991   1.594  11.648   6.215  0.1812  0.3087  0.0052
29145W        W45992   5.999   1.194  14.140 -0.2014  0.2137 -0.2295
29146W        W45993  17.023  14.536   5.223 -0.0856  0.1621 -0.0136
29147W        W45994   0.560   5.249   0.385  0.1859 -0.1843 -0.1666
29148W        W45995   5.168   3.889   1.119 -0.0447 -0.1746  0.1817
29149W        W45996   3.810   6.813   2.293  0.1041 -0.1501  0.0047
29150W        W45997  12.779  14.874   2.213 -0.0066  0.2991 -0.0011
29151W        W45998   8.860  10.578   0.990  0.1510 -0.0273 -0.0709
29152W        W45999   3.553  15.224   4.323 -0.1743  0.2181  0.0453
29153W        W46000   1.323   0.712  13.653 -0.3421  0.0383 -0.3895
29154W        W46001  15.433  13.532   4.253  0.2560  0.1664 -0.3065
29155W        W46002   5.670  11.031  13.978  0.0498 -0.0803  0.0587
29156W        W46003  16.896  15.039   3.950  0.2747  0.0894 -0.2689
29157W        W46004  13.804  14.292  14.891  0.1133 -0.0122 -0.1263
29158W        W46005  17.043  17.783   1.060  0.1225 -0.0860  0.0783
29159W        W46006  13.593   2.969  16.519 -0.2664  0.0786  0.0200
29160W        W46007   0.517  14.184   0.855  0.1131  0.1473  0.1539
29161W        W46008  12.976  16.740  12.758  0.2009  0.0801 -0.0094
29162W        W46009  17.566   6.269  14.718  0.1745  0.1142  0.0698
29163W        W46010  12.289  13.761   3.410 -0.2207  0.2651  0.4928
29164W        W46011   4.794  16.387  13.386  0.2589 -0.0411 -0.3309
29165W        W46012   9.245   1.588   3.845  0.3482  0.3061 -0.0539
29166W        W46013   3.986   3.445  15.997 -0.2861 -0.0252 -0.1118
29167W        W46014  13.209   9.622   0.896 -0.0637 -0.0414  0.0380
29168W        W46015  11.149  17.107  13.297 -0.0668 -0.3793 -0.0429
29169W        W46016   4.131   7.763  15.562 -0.0460  0.1481 -0.2371
29170W        W46017  14.392   9.087   1.781 -0.0976 -0.1532 -0.0996
29171W        W46018  13.207  13.786   5.865  0.0262  0.2513  0.1404
29172W        W46019  13.545   9.138   0.219 -0.0086 -0.2853  0.0546
29173W        W46020   5.282   2.445   1.409  0.0077  0.1922 -0.0876
29174W        W46021   4.478  13.189   0.993 -0.1087  0.0264 -0.0253
29175W        W46022  11.926  13.832   0.320 -0.4406 -0.0613  0.0417
29176W        W46023   5.995  17.212   3.676  0.1705  0.1967 -0.1300
29177W        W46024   9.878   6.415   2.625 -0.1342 -0.0949 -0.0120
29178W        W46025   3.107  17.998  14.033  0.0608  0.0614  0.1130
29179W        W46026  16.147  17.640  14.213 -0.1460 -0.0858  0.0964
29180W        W46027  13.708  11.574  12.509 -0.0023  0.1440  0.1307
29181W        W46028   5.726   4.750   0.682 -0.2335 -0.3970 -0.2773
29182W        W46029   7.014  10.804   1.215  0.1279 -0.0469  0.1449
29183W        W46030  14.389  14.780   5.533  0.1167 -0.1693 -0.0553
29184W        W46031  17.417  11.649   1.919  0.1061  0.1066 -0.1669
29185W        W46032   1.652   7.028   1.853 -0.2719 -0.0055  0.0711
29186W        W46033  17.922  14.253   0.116  0.1208  0.1647 -0.0238
29187W        W46034  12.142  12.005   3.879  0.3355 -0.0300  0.2680
29188W        W46035   0.089  16.468  12.880 -0.2059  0.0513  0.0915
29189W        W46036   4.407  10.334   2.158  0.0116  0.3245 -0.1355
29190W        W46037   8.170   7.354   3.942  0.2292  0.4687 -0.0458
29191W        W46038  14.634  12.544  16.098  0.1330  0.2302  0.3333
29192W        W46039   6.592   3.415  15.905 -0.0038 -0.0058 -0.2151
29193W        W46040   8.965  11.478  16.685  0.0026  0.0329 -0.2876
29194W        W46041   1.543   6.628   0.492 -0.3254 -0.1246  0.2083
29195W        W46042   4.223   8.523  13.527  0.0574 -0.1001  0.3818
29196W        W46043   2.475   5.997  14.328 -0.1968 -0.5320 -0.0785
29197W        W46044   8.899   0.257   2.273 -0.0208 -0.0381 -0.2241
29198W        W46045   0.271   9.724   0.656 -0.0372 -0.1293  0.2309
29199W        W46046   4.956  14.664  15.114 -0.0891  0.1890 -0.0891
29200W        W46047   4.424   3.694  16.056 -0.0778  0.1889  0.0179
29201W        W46048  12.340   5.718   5.606  0.0969  0.1905  0.0600
29202W        W46049  10.804   1.128   0.882 -0.3171  0.1607 -0.1174
29203W        W46050   5.148   5.310  15.839 -0.2868  0.0746 -0.0990
29204W        W46051  13.035   6.234   4.166 -0.2819 -0.2241 -0.0202
29205W        W46052  15.146   0.921   1.332  0.1063  0.1795  0.2025
29206W        W46053  18.051  14.239  15.823 -0.0258 -0.1465 -0.1218
29207W        W46054  10.839  10.836  13.738 -0.0091 -0.0195  0.0032
29208W        W46055  17.693  15.888   4.622 -0.1374 -0.3121  0.3220
29209W        W46056  11.634  13.619   4.347 -0.1726  0.0397 -0.0639
29210W        W46057  17.371   4.230   4.247  0.2179 -0.1256 -0.1295
29211W        W46058   5.464   3.063   4.267 -0.0119 -0.2230  0.2298
29212W        W46059   8.833  12.504   2.036  0.0225  0.0729 -0.0156
29213W        W46060   1.934  10.099  15.438 -0.2057 -0.0504  0.0762
29214W        W46061  16.908  11.757  14.516 -0.2098  0.0990  0.4605
29215W        W46062  16.949   4.691   3.524  0.1694 -0.0215  0.2463
29216W        W46063   1.002   9.808   6.160  0.0520  0.0126  0.0789
29217W        W46064   0.068  15.021   5.084  0.0158 -0.1594 -0.0374
29218W        W46065   6.759   4.789  12.202 -0.3538  0.0186 -0.0389
29219W        W46066   1.140  12.888   5.814 -0.0532  0.1775 -0.0327
29220W        W46067   4.307  13.741  15.434  0.2961 -0.1550 -0.1113
29221W        W46068   3.385  16.776   0.552 -0.1206 -0.2278  0.0908
29222W        W46069  15.109   6.715  11.581 -0.0323 -0.1752 -0.0389
29223W        W46070   5.229   1.590  14.567 -0.0351  0.0539 -0.1028
29224W        W46071  15.793  10.271   5.990  0.0807  0.0626  0.1062
29225W        W46072  14.408  17.909   1.156  0.1243  0.0414 -0.4151
29226W        W46073   4.958   0.871   4.885  0.0987  0.0594 -0.1960
29227W        W46074   4.401   8.328  15.650  0.1460 -0.1177  0.0551
29228W        W46075   4.131   9.521   3.650  0.1243  0.0710  0.2711
29229W        W46076  14.813  16.663  15.357 -0.1289  0.1355  0.0008
29230W        W46077   4.530   7.001   0.109  0.2042  0.0475 -0.0634
29231W        W46078   1.217  11.816  12.661  0.1335  0.1362 -0.1221
29232W        W46079  17.254   8.477  12.409  0.0684  0.0960 -0.1614
29233W        W46080  15.718  12.144   0.132  0.0815  0.0508 -0.0529
29234W        W46081  17.838   4.289   0.566 -0.0036  0.1165 -0.3498
29235W        W46082  13.796   2.610  14.974 -0.0650  0.0394 -0.1580
29236W        W46083  14.593   9.289   3.504 -0.0923 -0.4111  0.1187
29237W        W46084  11.444  11.811   4.490  0.0718  0.4969 -0.0331
29238W        W46085  10.556  15.503  14.217  0.2757  0.2164 -0.0312
29239W        W46086   9.804   0.465  16.070 -0.0474 -0.0271 -0.3430
29240W        W46087  11.449   8.858  11.515  0.0052 -0.1771 -0.2337
29241W        W46088   7.102   1.148   0.914  0.1314 -0.2951 -0.0336
29242W        W46089  11.004  10.578  11.565 -0.0745  0.1006  0.0981
29243W        W46090   8.632   2.047   5.420  0.6252 -0.3490  0.0018
29244W        W46091   8.872   1.899  15.126  0.0329  0.0882  0.0418
29245W        W46092  17.694  12.316  12.559 -0.0954 -0.5304  0.0876
29246W        W46093  11.875   1.311   2.170 -0.2678 -0.2350 -0.2797
29247W        W46094  17.675  10.680  16.421  0.4907 -0.1131  0.2254
29248W        W46095  13.447   3.228   3.780  0.1933 -0.1591 -0.1014
29249W        W46096   5.636   9.267   1.443  0.4448 -0.1387 -0.0776
29250W        W46097  14.795  10.195   4.712 -0.0561  0.0030 -0.1077
29251W        W46098  13.285  15.012   1.083  0.0843 -0.0322 -0.1409
29252W        W46099  11.919   3.509   4.695  0.0571 -0.3106  0.1668
29253W        W46100  16.294  11.364   2.419  0.1613 -0.2851  0.0436
29254W        W46101  13.843   2.240   2.104 -0.2384 -0.1181 -0.1527
29255W        W46102   6.758   4.266   4.169 -0.1395 -0.2151 -0.1337
29256W        W46103  13.019  11.469  14.071  0.0540  0.2662  0.1200
29257W        W46104  14.389   7.934  13.165  0.1275  0.0102 -0.0976
29258W        W46105  12.564  12.307  13.881 -0.1140 -0.1479  0.0308
29259W        W46106  16.803  16.596  12.525  0.0372  0.0970  0.2919
29260W        W46107   0.377  14.192  15.475  0.2127  0.2714  0.1500
29261W        W46108   5.246   7.660  13.575 -0.2406  0.1037  0.0950
29262W        W46109   3.112   8.098   2.366  0.0977 -0.1588  0.1720
29263W        W46110   0.873  15.671   1.707  0.0856 -0.3490 -0.0194
29264W        W46111  14.723  15.550   4.907  0.2478 -0.1280 -0.2842
29265W        W46112  13.155   7.882   0.971  0.1638 -0.3394  0.0707
29266W        W46113  16.290  14.209  16.204 -0.2348  0.3740  0.0156
29267W        W46114   0.825  17.026   1.431  0.2381  0.0484 -0.3873
29268W        W46115  17.053  10.055  15.518  0.0936 -0.3521  0.0225
29269W        W46116   7.692   2.047  11.967  0.1187 -0.0339 -0.0301
29270W        W46117   0.456   5.938   3.240  0.0471 -0.0736  0.0436
29271W        W46118   4.197  13.329   0.009  0.0617 -0.1547 -0.1657
29272W        W46119  17.162   8.232  14.558 -0.2508  0.2390 -0.1480
29273W        W46120  17.666   0.098   4.477 -0.1586  0.1187  0.1222
29274W        W46121   4.291   4.037   3.752 -0.2393 -0.0389 -0.0720
29275W        W46122   9.873  17.357   3.210 -0.0425 -0.0212 -0.1396
29276W        W46123   2.545  16.253  13.735 -0.0167  0.0485  0.2966
29277W        W46124  14.260  16.941  14.661  0.0538  0.1934 -0.4327
29278W        W46125  10.155  14.854  12.461 -0.1176 -0.1612  0.1509
29279W        W46126   3.189   1.851  16.212  0.0064 -0.0414 -0.2094
29280W        W46127   1.873  11.914  16.351  0.1844  0.0419 -0.1999
29281W        W46128   1.201   2.613   0.745 -0.3187  0.1660 -0.6020
29282W        W46129   0.135  16.725   1.119  0.6021  0.0737  0.1806
29283W        W46130   5.238   3.386   2.912  0.3946  0.0367  0.3095
29284W        W46131   8.509   4.705   0.486  0.2416  0.0510  0.1909
29285W        W46132   2.210   3.153  12.946  0.0643  0.1679  0.4807
29286W        W46133   7.415  13.461  16.553 -0.2236  0.0263 -0.0725
29287W        W46134   3.623  12.744   1.004 -0.0472 -0.0774 -0.3870
29288W        W46135  10.571   5.656  15.091  0.0311  0.0097  0.0637
29289W        W46136   3.411  11.943   3.885  0.0025 -0.0492 -0.0285
29290W        W46137   8.739  12.047   1.172  0.1925 -0.0335  0.1797
29291W        W46138   2.195   0.687   1.340 -0.0979  0.1290  0.0060
29292W        W46139  11.096   5.053  11.775 -0.3146 -0.0754 -0.4124
29293W        W46140   7.815   6.623  12.484  0.0711  0.0673  0.3608
29294W        W46141   8.208   2.949  14.920  0.2114 -0.3448  0.2212
29295W        W46142   4.064   4.352   4.131  0.3326  0.0366 -0.0808
29296W        W46143  17.142   7.858   3.015  0.1284 -0.1376  0.1694
29297W        W46144  14.650   4.612  13.265 -0.1064  0.2102  0.0809
29298W        W46145   2.933   4.411  11.875 -0.0236 -0.1119 -0.1099
29299W        W46146  16.182   2.877  12.042 -0.1074 -0.1309  0.0987
29300W        W46147   3.647  15.375  16.077  0.0280  0.2390  0.1581
29301W        W46148   7.043  15.809  12.731  0.0387 -0.3155  0.3149
29302W        W46149   4.381  11.963  16.035  0.4533 -0.0430  0.0239
29303W        W46150   2.316  13.861  12.289  0.1030 -0.2897  0.0705
29304W        W46151   0.934  11.313   1.868  0.0641  0.1293 -0.2551
29305W        W46152  16.478  12.927   1.066  0.0259  0.0845  0.1596
29306W        W46153   7.420   9.320  12.149 -0.0979 -0.2551 -0.0930
29307W        W46154   4.169  15.050  13.002 -0.3137  0.3049 -0.2366
29308W        W46155   4.656   1.950   4.449  0.0821  0.1977  0.0134
29309W        W46156   6.371  13.629  16.120 -0.0772 -0.5055  0.1807
29310W        W46157   6.389   2.126   1.982 -0.0485  0.1917 -0.1314
29311W        W46158   6.487   3.948   0.209  0.0843  0.0769 -0.0854
29312W        W46159   6.606  10.783   5.192 -0.3815  0.1185 -0.1046
29313W        W46160  15.572  13.793  15.446  0.0057  0.3408 -0.1172
29314W        W46161   5.757   9.955  13.409  0.2158 -0.1074  0.2439
29315W        W46162   3.813   2.650   9.898 -0.0957  0.0486 -0.1721
29316W        W46163  18.047   0.946  13.313 -0.1621 -0.2400  0.2021
29317W        W46164   5.411  11.351  13.130 -0.0783  0.0897 -0.0241
29318W        W46165   4.938  16.572   2.741 -0.0917  0.0362  0.0314
29319W        W46166   2.960   6.395   0.073  0.2443 -0.4256  0.2329
29320W        W46167  12.497  17.276   4.978 -0.2754 -0.0547  0.0246
29321W        W46168  11.220  14.088   4.208 -0.0421 -0.1346 -0.0941
29322W        W46169   2.147   0.097  12.209 -0.0200 -0.1738  0.0283
29323W        W46170  15.473   8.940   2.517 -0.1807  0.1567 -0.1439
29324W        W46171   3.071   3.121  14.086  0.2535  0.2139  0.0964
29325W        W46172  14.367  16.272  12.754 -0.1545 -0.1474  0.0489
29326W        W46173   1.633  10.206  12.699 -0.0720  0.2240  0.1308
29327W        W46174  15.922   9.875   1.812  0.1345 -0.0076  0.0059
29328W        W46175   2.129  14.938  12.782 -0.1978  0.0822 -0.0802
29329W        W46176   3.270   9.466  16.637 -0.3926  0.3022  0.1920
29330W        W46177   7.524  12.349  11.844 -0.0283 -0.0582  0.0845
29331W        W46178  10.052   3.477  16.201 -0.2443 -0.1081 -0.1157
29332W        W46179   9.782   8.516   0.867 -0.1856 -0.1475  0.0251
29333W        W46180   4.568  16.365  14.412  0.1998  0.1596  0.3446
29334W        W46181   0.317  17.129   0.270  0.0776 -0.2225 -0.0114
29335W        W46182   4.796  15.750   3.542 -0.0107 -0.0302  0.2662
29336W        W46183  15.112  15.005  11.851 -0.0489  0.0098  0.0094
29337W        W46184  11.715   3.223  14.960  0.2301  0.0862  0.0388
29338W        W46185   8.007  10.840   5.278 -0.1170  0.2570  0.3145
29339W        W46186   3.199  12.882  13.684  0.2336 -0.0330 -0.0767
29340W        W46187  17.533   6.618   0.041 -0.1748 -0.0679  0.1490
29341W        W46188   8.122  16.722   4.223 -0.2846 -0.0655  0.3182
29342W        W46189   1.429  11.741  16.224 -0.2910  0.1233 -0.2912
29343W        W46190   7.673   1.914  15.499 -0.2515  0.0272  0.1541
29344W        W46191  15.351   5.762  12.050 -0.1173  0.0712 -0.0658
29345W        W46192   4.083   9.893  14.771  0.3532  0.2010  0.2731
29346W        W46193   1.426   7.413  12.690  0.3278 -0.2222  0.1062
29347W        W46194  11.057   1.046   4.863  0.1455 -0.0378  0.0751
29348W        W46195   6.416   5.972  14.893  0.1255  0.1039 -0.2392
29349W        W46196   6.944   1.377   4.889  0.1994 -0.2956 -0.3072
29350W        W46197  12.422  11.999  15.548 -0.0646  0.0595  0.0442
29351W        W46198   5.548  16.193  16.683  0.0854  0.1722  0.0225
29352W        W46199   0.639  12.690   0.165  0.0621  0.3292  0.1099
29353W        W46200   3.691   4.058  12.312 -0.2578  0.0887 -0.0217
29354W        W46201   8.828   5.200   5.425  0.4256 -0.0922 -0.2367
29355W        W46202  14.719   7.231  13.739  0.1650  0.2572  0.2223
29356W        W46203  12.031  13.056  14.190  0.2039 -0.0791 -0.0811
29357W        W46204  16.351  14.577   4.145  0.3535  0.1634  0.0466
29358W        W46205   3.697   2.281   0.933  0.0844  0.2823  0.2360
29359W        W46206   0.796   0.374   2.791 -0.5970 -0.0430 -0.4071
29360W        W46207  17.203   9.420   2.472 -0.0066  0.1680 -0.1987
29361W        W46208  11.016  15.187  15.251 -0.0908  0.4623  0.0938
29362W        W46209  14.475  13.583   5.558 -0.1088  0.2946 -0.0276
29363W        W46210   6.282   3.064  14.258  0.0399 -0.1529 -0.3180
29364W        W46211   8.467   5.371  16.080 -0.0690 -0.1345 -0.1234
29365W        W46212  12.216   3.476   1.465 -0.0914  0.1452  0.2285
29366W        W46213   2.487   7.998  14.112  0.2208  0.1510  0.1292
29367W        W46214   1.776  14.480   0.598  0.0829  0.2807  0.0721
29368W        W46215   1.473   1.045  13.200  0.1473  0.2625  0.1860
29369W        W46216  17.763   6.607   1.667  0.1754  0.1126 -0.1770
29370W        W46217   3.310   7.819  15.014 -0.0797  0.0951  0.1006
29371W        W46218   3.641   3.307  15.052 -0.1439 -0.3150  0.2726
29372W        W46219   1.969  11.635  13.244  0.1171  0.1853  0.2801
29373W        W46220  12.658   4.492   2.919 -0.2466  0.0833 -0.1547
29374W        W46221   2.969   3.246  13.444 -0.1889  0.1530  0.2352
29375W        W46222   4.184   6.789   2.664  0.0916  0.0160  0.0817
29376W        W46223  11.437  13.747  12.576  0.2820  0.0213 -0.0098
29377W        W46224   1.907  13.988  16.072 -0.0561  0.1480 -0.2916
29378W        W46225   4.729   5.339  16.131 -0.2813 -0.1707  0.0382
29379W        W46226   1.245   2.395  13.277  0.0970 -0.1414  0.3426
29380W        W46227   9.258  10.507   3.459  0.1158 -0.0244  0.2743
29381W        W46228   6.736  14.580   0.846  0.2671 -0.0138 -0.0148
29382W        W46229  12.294   8.633  12.224  0.2296 -0.3209 -0.1192
29383W        W46230   5.722  16.712   3.674 -0.2599 -0.1443 -0.2416
29384W        W46231  14.846  15.521   3.639 -0.1073  0.1312 -0.1171
29385W        W46232   7.488  11.977  15.937 -0.0385  0.1022  0.2235
29386W        W46233  14.050  12.569  14.426  0.1309 -0.0682 -0.3420
29387W        W46234  13.852   3.466  12.812 -0.0526  0.0156 -0.1687
29388W        W46235   3.869  11.574  16.660 -0.1137 -0.3101  0.2171
29389W        W46236  16.450  16.021  16.403 -0.0516 -0.0953  0.1135
29390W        W46237   7.242  14.536   0.990  0.0357  0.0855  0.1965
29391W        W46238   0.757  13.319   5.038 -0.0061  0.0731  0.1879
29392W        W46239  13.007   4.477   5.538 -0.0677 -0.0297 -0.2762
29393W        W46240  12.732  16.024  10.854 -0.0920 -0.3158  0.4842
29394W        W46241   6.017  16.923   0.915 -0.2233  0.3154  0.1775
29395W        W46242   9.133  17.756  16.474  0.1147 -0.1264 -0.0214
29396W        W46243   8.110  15.378   2.029  0.1464 -0.2798  0.0482
29397W        W46244  13.597  15.655   0.869  0.0229  0.0559 -0.0325
29398W        W46245   8.762   3.398  14.176  0.1501  0.2376  0.2571
29399W        W46246  17.531  12.941  13.359  0.2895  0.0730 -0.0848
29400W        W46247   5.060   5.562   1.632  0.0443  0.2530  0.3729
29401W        W46248   6.302  17.017   2.220 -0.1303 -0.0599 -0.0912
29402W        W46249   5.929   9.327  12.475 -0.1712 -0.1007  0.3171
29403W        W46250   9.088  13.390   4.331 -0.0824  0.0473 -0.0489
29404W        W46251   8.235  13.119   4.075 -0.2966 -0.1243  0.1290
29405W        W46252   5.691   4.169  15.246 -0.4273 -0.2766  0.2213
29406W        W46253   4.840  16.736   0.240  0.0250  0.1719  0.0697
29407W        W46254  15.060   0.445   4.560  0.3657 -0.0876 -0.1988
29408W        W46255  13.890  15.712   1.542 -0.0540  0.0902  0.1720
29409W        W46256  17.334  10.903   3.936  0.0372  0.0608 -0.2578
29410W        W46257  12.664  11.057   1.023  0.1663  0.3662  0.0005
29411W        W46258   2.158   4.361   4.505  0.1594  0.3327 -0.0974
29412W        W46259  12.579   0.148  15.633  0.0817  0.1529  0.1613
29413W        W46260   2.133  14.152  12.697 -0.1562  0.0277 -0.1980
29414W        W46261   4.900   2.268   0.952 -0.0729 -0.2086  0.2094
29415W        W46262  11.065  17.008   4.536  0.0853 -0.1870  0.0558
29416W        W46263   5.782  13.438  12.774  0.0343  0.0142  0.0878
29417W        W46264   8.218   9.942  13.096 -0.0037 -0.2611  0.1473
29418W        W46265   1.904  17.013   0.799 -0.0555  0.1764  0.1961
29419W        W46266  15.558  17.723   0.139  0.2206 -0.0635 -0.0218
29420W        W46267  15.395  11.464  14.424 -0.1674  0.0411  0.0465
29421W        W46268   3.381  15.022   0.950 -0.1281  0.0457  0.1608
29422W        W46269   3.402   4.024   2.509  0.0157  0.1678 -0.0929
29423W        W46270   5.578  10.159  13.829 -0.1667 -0.0434 -0.0497
29424W        W46271  14.426  13.916   1.700 -0.1151 -0.1949  0.3063
29425W        W46272  10.156  15.336   5.272  0.1222  0.3943  0.2050
29426W        W46273  14.258   4.206  13.462  0.0462 -0.0964  0.0533
29427W        W46274  10.768  16.955   2.489  0.3217  0.1873  0.1102
29428W        W46275   4.522   8.398   0.364 -0.2085 -0.0131 -0.1388
29429W        W46276   9.675   3.990   0.161  0.0429  0.0425  0.0921
29430W        W46277   1.111  17.710   3.834 -0.1820 -0.0662 -0.0379
29431W        W46278  13.256  10.758  16.083  0.0951  0.0002  0.1136
29432W        W46279   6.046  11.977  16.472  0.1480 -0.1246 -0.4225
29433W        W46280  16.710   8.286  12.406 -0.0484  0.4604  0.0970
29434W        W46281   4.940  14.746   1.878 -0.1049  0.0417 -0.0095
29435W        W46282  13.917   7.896   0.040  0.1356 -0.1100 -0.1151
29436W        W46283   3.102  12.017  11.582  0.1289 -0.3055 -0.1683
29437W        W46284  17.657   1.477   0.419 -0.3101  0.0199  0.1432
29438W        W46285   5.514   2.247  14.211  0.1150 -0.0731 -0.1253
29439W        W46286   3.658   6.842  14.976 -0.2036 -0.0412  0.1479
29440W        W46287   5.463   8.012  11.842  0.3174  0.1057  0.0879
29441W        W46288   9.223   4.484  14.845  0.1307 -0.0771  0.0081
29442W        W46289   7.460   1.166  16.014  0.2029 -0.0739 -0.2218
29443W        W46290   4.397   4.173   2.170 -0.0553  0.4297 -0.1539
29444W        W46291  15.192   3.588   2.617  0.0279  0.0737 -0.0431
29445W        W46292  11.898  16.819   5.473 -0.0199 -0.3344 -0.1475
29446W        W46293   4.707  15.453  12.782  0.1229  0.0789  0.0924
29447W        W46294  17.761   7.472   5.492  0.2713  0.2192 -0.1652
29448W        W46295   2.437   4.726   2.456  0.2364  0.4245 -0.1152
29449W        W46296   7.958   1.630   1.874 -0.0266  0.0530  0.1378
29450W        W46297  11.386   4.675  11.348 -0.0696  0.3016  0.1711
29451W        W46298   0.500   6.447   4.002 -0.0605  0.0797 -0.1051
29452W        W46299   7.214  11.917  12.068 -0.0247 -0.2050 -0.1277
29453W        W46300  10.060   7.772   2.249 -0.0532 -0.0834 -0.0016
29454W        W46301   5.020  11.326  12.481  0.0114 -0.1421 -0.0552
29455W        W46302  16.975  18.051   2.948 -0.3572 -0.1265  0.2554
29456W        W46303  15.574  14.799   2.262 -0.1373 -0.0537 -0.0154
29457W        W46304   4.248   1.880  16.369  0.0184 -0.3336 -0.1075
29458W        W46305  15.032  15.436   4.558  0.1610 -0.4565 -0.0451
29459W        W46306  11.417  17.589  16.363  0.0697 -0.1274 -0.1048
29460W        W46307   7.642   4.879  15.987 -0.4202  0.0051  0.1307
29461W        W46308  12.912   9.509  14.914 -0.0846 -0.0950 -0.0366
29462W        W46309  17.760  10.233  13.604 -0.2127  0.2931  0.0266
29463W        W46310   4.090   6.574   4.734  0.0059 -0.2344  0.1637
29464W        W46311  15.115  16.835  16.148 -0.3353 -0.0461 -0.4315
29465W        W46312   9.437   5.456   1.791 -0.1567 -0.0972  0.1319
29466W        W46313  15.997   7.160  12.873  0.1250  0.0563 -0.0173
29467W        W46314  18.051   3.193   3.795  0.0630 -0.1611 -0.1815
29468W        W46315   6.103   1.403  15.092 -0.0022 -0.2735  0.2737
29469W        W46316   9.844  18.033   0.358 -0.2634 -0.1396  0.0477
29470W        W46317   7.470   3.400  16.129  0.2155 -0.0963  0.1668
29471W        W46318  13.306   8.164   3.158  0.1377  0.0255 -0.2128
29472W        W46319   6.256   6.101  13.692  0.1980 -0.0799  0.0315
29473W        W46320  10.010   5.611  14.662 -0.3653  0.0115 -0.1336
29474W        W46321  13.787   4.664   0.327 -0.1985 -0.1330  0.0039
29475W        W46322  17.472  10.699  14.595  0.2507  0.1518 -0.0535
29476W        W46323   8.714  13.512  11.980 -0.1251  0.0348 -0.0458
29477W        W46324   6.366  14.088   5.513 -0.1334  0.1650 -0.1288
29478W        W46325  13.985   9.070   1.002  0.2434 -0.0573 -0.3029
29479W        W46326  14.733   3.780   2.378 -0.1319 -0.0772  0.1181
29480W        W46327  17.927   7.604  12.568  0.0918 -0.0382 -0.4309
29481W        W46328  15.406  17.307  12.863 -0.0159  0.0299 -0.0298
29482W        W46329  15.307  12.271  15.079 -0.1432 -0.1744  0.0693
29483W        W46330  11.068  17.306   0.465 -0.1488 -0.1902 -0.1342
29484W        W46331   2.047  11.541   0.983  0.3690  0.0857  0.3345
29485W        W46332  14.964  10.538  14.517  0.1169  0.1280 -0.0535
29486W        W46333   1.416   7.077  16.336 -0.1937 -0.1797  0.1732
29487W        W46334   8.702   2.896  13.889  0.0623 -0.0840 -0.2155
29488W        W46335  12.787   1.044  13.737  0.0813  0.2688 -0.0766
29489W        W46336   5.587  13.165   4.837  0.0128 -0.3343  0.0956
29490W        W46337   6.515  11.083  13.618 -0.2586  0.0645 -0.2376
29491W        W46338   8.316  16.421  12.291 -0.1203  0.0913  0.1336
29492W        W46339   8.571   7.614   3.693  0.1894  0.0148  0.0935
29493W        W46340   9.066   7.434  12.277 -0.0545 -0.1628  0.5306
29494W        W46341   7.740   3.501  12.660 -0.0580  0.2678  0.1272
29495W        W46342  11.656  11.705  15.113 -0.2381 -0.0128  0.0877
29496W        W46343   1.923  16.866  16.582  0.2084  0.4087 -0.0588
29497W        W46344   4.761   6.598   0.154 -0.0809  0.3070 -0.5906
29498W        W46345   1.386   3.720   3.455 -0.0646  0.1016  0.0533
29499W        W46346   8.865   7.827  13.047 -0.2062  0.0297  0.1984
29500W        W46347  16.718   5.274  14.989  0.0914 -0.0414  0.1591
29501W        W46348  11.160   9.629  15.050  0.1551  0.1353  0.0202
29502W        W46349   7.426   0.771  12.362  0.1435  0.1946 -0.0442
29503W        W46350  16.106   2.230   2.510 -0.0933  0.0357  0.1379
29504W        W46351   0.213   3.776   2.952  0.2670 -0.1594  0.0977
29505W        W46352   5.748   3.943   4.095  0.1417 -0.1476  0.0474
29506W        W46353  17.286  10.623  16.060 -0.0123  0.1822  0.2473
29507W        W46354   1.903  15.261   0.179  0.1301  0.0349  0.0407
29508W        W46355  14.844  14.808   0.998 -0.2381 -0.3747 -0.0012
29509W        W46356  16.426  15.496  16.581 -0.0578  0.1159  0.1565
29510W        W46357   8.997  12.932   3.346  0.1791 -0.1376  0.2192
29511W        W46358  11.250   8.736   1.261  0.0905 -0.1684  0.1402
29512W        W46359   9.186   0.525   5.925  0.2163  0.0133  0.0334
29513W        W46360   8.737   0.961  14.342 -0.0309  0.3856  0.0768
29514W        W46361   4.540  11.570   5.468  0.0474 -0.0980  0.0671
29515W        W46362  15.140  10.841   2.888  0.1015  0.0795  0.1271
29516W        W46363  13.173   7.585   1.823 -0.2110 -0.0022 -0.3066
29517W        W46364  11.670  11.312   1.528  0.0601 -0.1916 -0.0961
29518W        W46365   3.942   7.756   2.758 -0.0316  0.2530 -0.2105
29519W        W46366   5.656  11.831  13.469 -0.0318 -0.0840 -0.2181
29520W        W46367  14.561   4.402   0.982 -0.0143  0.0459 -0.1456
29521W        W46368  13.089   0.738  14.635 -0.1105  0.0200 -0.0438
29522W        W46369   7.058  16.963  11.950  0.0184 -0.0043  0.2052
29523W        W46370   3.675  15.284  14.480 -0.3106 -0.2770 -0.0790
29524W        W46371  11.854   3.611  11.863  0.0517 -0.1715 -0.1530
29525W        W46372   9.217   6.882   5.083 -0.2442  0.0556  0.1310
29526W        W46373   0.083  16.738   0.626 -0.0998  0.1207  0.3187
29527W        W46374  10.863   7.603   5.028  0.0920  0.1405 -0.0656
29528W        W46375  10.089   2.069   3.598 -0.2147 -0.1016  0.2972
29529W        W46376   8.533   7.307   3.159 -0.0022  0.2458  0.0708
29530W        W46377  14.853   7.240   2.410 -0.0492 -0.2164  0.4257
29531W        W46378   5.022   4.875  13.281  0.3734 -0.0685  0.0032
29532W        W46379   4.163   8.936  16.359 -0.0199  0.1072  0.2471
29533W        W46380  12.617   4.934  14.240  0.0121 -0.2446 -0.2475
29534W        W46381  15.150  15.036  14.871 -0.0688  0.1617  0.0836
29535W        W46382  12.245  12.209   4.678  0.0203 -0.3291 -0.1033
29536W        W46383  12.016   7.759  14.290 -0.1874  0.0229 -0.3476
29537W        W46384   1.920   4.241  15.540 -0.0609 -0.1475  0.3403
29538W        W46385  12.657  13.874   0.045 -0.0592  0.0362  0.3048
29539W        W46386   2.920  17.122   0.754  0.3230  0.0943  0.1661
29540W        W46387   1.137  16.401  14.189  0.0595  0.2493 -0.0201
29541W        W46388  17.590  13.314   5.552  0.0362  0.0668  0.0313
29542W        W46389   9.526  11.060  15.563 -0.1421  0.0484  0.1302
29543W        W46390   6.161   6.935   5.479 -0.0687 -0.0499  0.2481
29544W        W46391  16.541  16.998  13.789  0.2191  0.1744 -0.1663
29545W        W46392   1.929   2.947  13.290  0.0006  0.0470 -0.0954
29546W        W46393  17.466   1.416  15.104  0.0301  0.2300  0.1704
29547W        W46394  12.929  15.033  12.818  0.1865  0.1448  0.2258
29548W        W46395   7.411  17.276   1.296  0.0831 -0.0416 -0.0031
29549W        W46396   3.687   4.029  13.350  0.1725  0.1622 -0.0243
29550W        W46397   5.291  14.358  14.865 -0.1524 -0.0608 -0.1398
29551W        W46398   3.527   7.804   0.990  0.2795  0.0023  0.0207
29552W        W46399   1.572  14.852  11.883  0.1658  0.2148  0.1153
29553W        W46400  10.939   3.784  13.745 -0.0556  0.2542 -0.1968
29554W        W46401  14.284  16.446  12.333 -0.0916  0.0047 -0.0230
29555W        W46402   2.634  14.159   3.841  0.0610  0.0687  0.0493
29556W        W46403  17.589  12.579  15.233 -0.2987 -0.1924  0.1660
29557W        W46404   9.678  17.888  16.299  0.2920  0.2110 -0.1634
29558W        W46405   9.213  12.016   3.325 -0.2710 -0.2761  0.1165
29559W        W46406  15.200  12.764   6.166 -0.0399  0.1008 -0.1858
29560W        W46407  15.748  10.786  14.851  0.1845 -0.0806 -0.4254
29561W        W46408  12.392   9.213   0.931  0.1336 -0.0091 -0.2193
29562W        W46409  17.794  14.678  14.400 -0.1902  0.2151  0.1354
29563W        W46410   2.688   0.664   1.203 -0.1121 -0.1002  0.1539
29564W        W46411  17.900   7.008  15.955 -0.1597  0.2534 -0.1226
29565W        W46412  16.660   0.197   4.439  0.2236 -0.2219  0.0497
29566W        W46413  10.729   4.512   0.886 -0.3149  0.1824 -0.1684
29567W        W46414   6.374   8.685  15.532  0.2403  0.0425  0.2216
29568W        W46415   6.917  15.645   3.360  0.3211  0.2767  0.0235
29569W        W46416   2.144  15.271   2.781  0.3133 -0.1569 -0.2157
29570W        W46417   5.072   3.325   4.099  0.1053 -0.1720  0.3140
29571W        W46418   5.376  15.898   4.838  0.0960 -0.0868  0.2430
29572W        W46419  11.081  11.059  14.671 -0.2165 -0.1223  0.1391
29573W        W46420   0.583  16.424  12.466 -0.1982 -0.1049 -0.1471
29574W        W46421   2.574  10.456  15.475 -0.1820  0.0082 -0.1166
29575W        W46422   0.635   8.937  14.203 -0.2568 -0.0137  0.0919
29576W        W46423  11.166  11.832  15.922  0.1929 -0.2051 -0.0540
29577W        W46424  11.146  16.629   0.702  0.3362 -0.0059  0.0046
29578W        W46425  13.736  11.361   2.295  0.1154 -0.0725  0.2559
29579W        W46426  17.877   2.678   3.692  0.2201 -0.0825 -0.3152
29580W        W46427   9.586   3.906   2.802 -0.2298  0.0263  0.5298
29581W        W46428  16.175   9.062  13.456  0.0269  0.3869  0.1424
29582W        W46429  16.863   6.783   0.753 -0.2437 -0.0259  0.0543
29583W        W46430  10.778   8.314   2.517 -0.2382  0.1454 -0.2849
29584W        W46431   0.768  17.121  12.230 -0.2729  0.0839 -0.1535
29585W        W46432   7.196  15.041  12.275 -0.2940 -0.1310 -0.2130
29586W        W46433   5.668   2.150  13.673  0.1482 -0.0494 -0.0944
29587W        W46434  17.303   4.137   2.144 -0.0693  0.0968  0.0117
29588W        W46435  11.578  17.970   4.109 -0.1715 -0.0625 -0.0194
29589W        W46436   1.846   0.298  11.860 -0.0590 -0.2169 -0.0776
29590W        W46437  11.747  10.182   0.000 -0.0387  0.0792  0.1066
29591W        W46438  16.017   3.247  11.643  0.1346 -0.0760  0.0585
29592W        W46439   5.788   5.677  14.207 -0.0747 -0.1339 -0.0294
29593W        W46440  16.025   1.501  11.313 -0.0635  0.0757  0.0857
29594W        W46441   8.721   4.292   0.369 -0.0432 -0.1335  0.0660
29595W        W46442   8.037  11.806   0.502  0.2694  0.2640 -0.0915
29596W        W46443  13.106   4.504   3.174 -0.3067 -0.2218 -0.1868
29597W        W46444  17.864   9.788  11.830 -0.4565  0.0011  0.0270
29598W        W46445  13.416   1.903   0.374  0.1442  0.3064  0.2983
29599W        W46446  15.116  12.120   3.688  0.0132 -0.0423 -0.2384
29600W        W46447   6.339  16.601   1.950  0.0425  0.0462 -0.1088
29601W        W46448  11.890   4.092   0.948 -0.2820  0.1618 -0.1805
29602W        W46449   7.620   4.137   3.282 -0.2165 -0.0862 -0.0760
29603W        W46450  16.528  14.711  15.302 -0.1867 -0.1097 -0.6016
29604W        W46451  11.867  11.424   1.089 -0.2004  0.0094 -0.2997
29605W        W46452   7.968  11.436  11.800  0.4180 -0.0773  0.2919
29606W        W46453  11.502  16.205  12.871  0.3052 -0.1869  0.0894
29607W        W46454  15.164   0.108  12.750 -0.0006 -0.1820 -0.2161
29608W        W46455   3.973   9.751   1.629 -0.0663 -0.2359  0.1341
29609W        W46456  13.463  14.282  14.517 -0.1039 -0.2096 -0.0152
29610W        W46457   0.025   0.895  15.145 -0.1542  0.0618 -0.2689
29611W        W46458  15.668   9.506  11.821  0.0531  0.0600  0.2113
29612W        W46459   4.585   7.917   0.560  0.0049  0.0101  0.0613
29613W        W46460   0.786   5.179   1.339 -0.3024  0.2804 -0.1482
29614W        W46461  13.141   0.699  16.016 -0.0452 -0.0469 -0.1714
29615W        W46462  17.447   4.930   2.201 -0.0250 -0.3387  0.0616
29616W        W46463  10.591  12.442  16.036  0.1794  0.1891  0.3842
29617W        W46464   4.841   0.788   3.886 -0.0084  0.0241  0.0240
29618W        W46465  14.978  14.763  14.485 -0.1941  0.0394 -0.2882
29619W        W46466   7.296  12.852   4.059 -0.1226 -0.1981 -0.2306
29620W        W46467   3.273  10.725  15.097 -0.1045  0.0209  0.4580
29621W        W46468  16.428  10.477  16.024 -0.0934  0.1860  0.2542
29622W        W46469  13.778  13.781  15.969  0.2896  0.2069  0.0521
29623W        W46470  14.070  12.887   2.466  0.0357  0.0897 -0.1268
29624W        W46471  12.212  12.593  14.333 -0.3516  0.2342  0.0148
29625W        W46472   9.265  10.073  16.653 -0.0469 -0.0251 -0.1084
29626W        W46473   3.872  16.441  11.832 -0.0620 -0.1279  0.1061
29627W        W46474  17.451  11.300   3.656 -0.2752  0.0038  0.0546
29628W        W46475  15.509   1.519   2.087 -0.0033 -0.1402  0.2594
29629W        W46476   3.372  17.174   3.058 -0.0806 -0.3927  0.3147
29630W        W46477   7.298   3.072   0.914 -0.0071  0.3505 -0.2018
29631W        W46478   5.352   4.547  11.601 -0.1732 -0.0466 -0.0094
29632W        W46479  12.336  14.744  11.729  0.1237  0.2178 -0.1136
29633W        W46480  17.962   2.782   2.129 -0.1223 -0.0502  0.1245
29634W        W46481  13.731  15.221   3.923  0.0326 -0.0234 -0.1965
29635W        W46482   4.622  12.707   3.032 -0.1553  0.0704  0.0000
29636W        W46483  11.153   7.959  16.144  0.1955  0.0022 -0.0260
29637W        W46484  17.766   6.558  16.129 -0.1643 -0.1930 -0.0220
29638W        W46485  17.523   1.902  14.242 -0.0232 -0.0013  0.0236
29639W        W46486   9.112  14.676  14.879 -0.1630 -0.0155 -0.0346
29640W        W46487   1.957  12.014   2.780 -0.0780 -0.1145 -0.1403
29641W        W46488   6.025   3.981  15.676  0.2344  0.1152  0.0429
29642W        W46489   5.665  13.506  15.004 -0.2228  0.3373 -0.0429
29643W        W46490  13.714   0.424  12.838  0.0850 -0.0856  0.3152
29644W        W46491  12.114   7.628  11.289  0.2449  0.0391 -0.1725
29645W        W46492  12.859   0.616  11.675 -0.0994  0.0043  0.1865
29646W        W46493   6.951   3.469   3.475 -0.0301  0.0798 -0.1916
29647W        W46494   0.483  14.799   4.811  0.1152  0.1324 -0.1266
29648W        W46495   8.514   4.550  12.026  0.0427  0.0776  0.0637
29649W        W46496  15.302   2.520   2.742  0.1993  0.2541 -0.0914
29650W        W46497   7.280  11.805   2.789 -0.0674 -0.0599  0.0211
29651W        W46498  14.097   8.310   3.628  0.2490  0.0213 -0.1301
29652W        W46499  12.907   5.870  14.373 -0.2214  0.0338  0.2768
29653W        W46500  11.947   0.340  15.120  0.0093  0.0268  0.4230
29654W        W46501  11.410  14.304  15.463  0.2100  0.1747  0.2954
29655W        W46502  11.362   6.996   2.910 -0.2964 -0.0865  0.3882
29656W        W46503  12.762  13.030   0.735 -0.0381 -0.1947  0.0049
29657W        W46504  15.469   8.601  12.845  0.4133  0.0488  0.0370
29658W        W46505  11.373  17.282   2.897 -0.0236 -0.1137  0.1098
29659W        W46506  14.825   1.424  11.184  0.0832 -0.2050  0.0016
29660W        W46507   1.456  12.231  16.183 -0.1751 -0.2679  0.1537
29661W        W46508  17.019   1.092  12.448  0.3019  0.1812 -0.0494
29662W        W46509  10.354  14.455  12.766  0.1141  0.3188  0.0848
29663W        W46510  15.431  11.686   2.805 -0.1860  0.2830  0.2220
29664W        W46511  13.687  12.912   3.318  0.2365 -0.1345  0.1145
29665W        W46512   1.130   6.026   0.076  0.1752  0.0476 -0.0583
29666W        W46513  10.207   0.954  12.758 -0.1086 -0.3601 -0.0582
29667W        W46514  15.005  16.336  13.422 -0.2414  0.0686 -0.2140
29668W        W46515   4.759   5.797   0.430 -0.0244  0.3000 -0.1990
29669W        W46516   8.395  17.601   5.445 -0.1449 -0.1297  0.2166
29670W        W46517  16.768   4.663  11.863  0.4778 -0.1234  0.1280
29671W        W46518  17.133  13.992   5.097  0.2247 -0.0627  0.1772
29672W        W46519  11.181   8.482  15.469  0.0312  0.0873  0.1370
29673W        W46520   7.044  18.010  13.399  0.2698 -0.1195  0.0516
29674W        W46521   7.442  12.574   6.001 -0.1602  0.1087  0.0458
29675W        W46522   5.703  14.175  11.975 -0.2533  0.0857  0.0748
29676W        W46523   7.820  11.970   5.396 -0.1029 -0.1202  0.3580
29677W        W46524   3.931  18.053   0.674 -0.1439 -0.1368 -0.3491
29678W        W46525  16.645   3.874   2.881  0.2048 -0.2527  0.1312
29679W        W46526   9.893  14.853  14.087  0.1061  0.1742 -0.2648
29680W        W46527  10.652   1.006  15.701  0.1392 -0.3144 -0.2032
29681W        W46528   9.289  11.414   0.953  0.4451  0.0418 -0.0346
29682W        W46529   9.186   3.774   0.873 -0.1230  0.1084 -0.0470
29683W        W46530  10.436  11.600  16.480  0.0248 -0.0834  0.4207
29684W        W46531  15.015   2.095   2.705 -0.1069 -0.3134 -0.3215
29685W        W46532  16.250  12.073   4.656  0.1010 -0.0711  0.0756
29686W        W46533  17.558   3.538  14.651  0.1454 -0.1681  0.1053
29687W        W46534  15.471   0.222  12.293 -0.0007 -0.1500  0.4807
29688W        W46535  13.345  11.617  11.930  0.2370  0.2503 -0.1149
29689W        W46536  17.692   8.158  12.437  0.0416 -0.3192  0.0844
29690W        W46537  13.453  13.662   2.978  0.3246 -0.3621 -0.2722
29691W        W46538   2.095   9.472   2.847 -0.0748 -0.0341 -0.0572
29692W        W46539  16.278  17.531  13.319  0.0946  0.0232  0.3832
29693W        W46540   4.229  13.740  12.135 -0.1045  0.3172 -0.0246
29694W        W46541   5.978   4.746  13.920  0.1925 -0.0090  0.2140
29695W        W46542   8.681  10.282  13.927 -0.0384  0.1626 -0.0663
29696W        W46543  12.810  15.460  14.180  0.1319 -0.0022 -0.0510
29697W        W46544   9.134   8.832  13.026 -0.0255  0.1554  0.0428
29698W        W46545   0.433   3.636  12.123  0.1542  0.1951  0.2866
29699W        W46546   4.554   8.694   4.532  0.0099  0.2153 -0.0877
29700W        W46547   4.599   5.204   4.542 -0.4973  0.0970  0.2028
29701W        W46548  11.081   6.543   2.211  0.0731 -0.1423  0.1498
29702W        W46549   9.187   0.215   2.887  0.1619  0.3979 -0.2042
29703W        W46550  17.552   8.180  15.260  0.0302  0.2102 -0.2166
29704W        W46551  12.084   5.851  16.059  0.1694  0.2457 -0.1566
29705W        W46552   4.733  14.996  16.459  0.0097 -0.0261 -0.1440
29706W        W46553  16.423   6.027   5.153  0.1629  0.0056 -0.2341
29707W        W46554   7.964   9.172   0.112  0.1637  0.1445  0.1298
29708W        W46555   8.590  12.359  13.766  0.4005 -0.3692  0.0224
29709W        W46556   5.645  16.008   1.974  0.0577 -0.3951  0.1144
29710W        W46557   1.413  10.505  15.020 -0.0948  0.0094  0.0909
29711W        W46558   3.165   3.726  12.744  0.0535  0.3352 -0.0041
29712W        W46559   0.452  13.632   2.583 -0.1319  0.1244  0.1629
29713W        W46560  17.455   6.205  15.888 -0.1019 -0.0649  0.1650
29714W        W46561  16.078  14.500  12.031 -0.3703  0.0180  0.0365
29715W        W46562   1.327   1.718   1.131  0.1262 -0.0028 -0.0179
29716W        W46563  16.540   3.095   2.569  0.0918  0.1632 -0.2519
29717W        W46564  15.458  12.414   1.060 -0.3167 -0.2040  0.1473
29718W        W46565   4.939   7.715  15.061  0.0122  0.0108  0.2382
29719W        W46566   5.209   4.658   1.547 -0.0431  0.1473  0.0381
29720W        W46567  10.704   7.788  15.628 -0.0318 -0.0601  0.2861
29721W        W46568  12.790   1.129   5.946  0.1147 -0.0317  0.0945
29722W        W46569   7.318   0.733   0.995  0.2767  0.2230 -0.1851
29723W        W46570  13.445  12.546   5.267  0.0368  0.2692  0.0055
29724W        W46571  14.305   4.637  14.760  0.0562  0.2481  0.0724
29725W        W46572   6.782  14.830  12.336  0.0436 -0.0735  0.1097
29726W        W46573  15.085   5.308  12.051 -0.3728  0.0264 -0.0991
29727W        W46574   5.606   3.340  10.629 -0.1569 -0.1274 -0.1893
29728W        W46575   7.926   9.296  12.000 -0.1184  0.2088 -0.0968
29729W        W46576   9.311   4.396  14.338 -0.0957  0.1756 -0.0092
29730W        W46577  15.881  16.045  15.610  0.0478  0.2063 -0.0312
29731W        W46578   4.651   3.282  15.205  0.1314  0.0916  0.0098
29732W        W46579  14.128   0.969   5.960 -0.1447  0.1458 -0.0685
29733W        W46580   9.933  14.868   0.104  0.3326  0.1494  0.3839
29734W        W46581   4.326  14.596   1.333  0.2170 -0.1100 -0.0033
29735W        W46582  15.190   5.953  14.830 -0.2699  0.0895 -0.1730
29736W        W46583   0.651   6.339   3.479 -0.0460  0.1659  0.1443
29737W        W46584   2.844  17.586  16.064 -0.0189  0.1070 -0.0755
29738W        W46585  15.194   6.283   3.877 -0.2929 -0.3493  0.1037
29739W        W46586  15.390   2.730   1.852  0.1334 -0.1123  0.3168
29740W        W46587   3.746  16.158  14.897  0.2699 -0.1384  0.0161
29741W        W46588  13.225   0.598   2.568 -0.3271  0.2570  0.0128
29742W        W46589   3.192  12.720   4.087  0.2049  0.0545 -0.0353
29743W        W46590  16.764   5.725   2.421  0.0956  0.0673  0.0348
29744W        W46591   4.277   6.964   2.118 -0.3824  0.0851  0.1280
29745W        W46592  14.179   6.827  15.110 -0.1006 -0.2825  0.0945
29746W        W46593  16.266  17.329   1.979 -0.0041  0.1105  0.0955
29747W        W46594   5.566   2.047   2.823 -0.0121  0.0495  0.2596
29748W        W46595  15.737  15.317  16.481 -0.0168  0.0310  0.0878
29749W        W46596  11.187   9.530   2.009  0.2664 -0.0662 -0.0496
29750W        W46597   1.225  12.807  13.776  0.0335 -0.0531  0.1756
29751W        W46598  11.774  10.818   4.537 -0.1917  0.2473  0.1198
29752W        W46599  14.976   1.102  15.447 -0.0808 -0.2902  0.0962
29753W        W46600   5.255  13.456   6.356 -0.0023  0.1276 -0.0286
29754W        W46601   0.725  11.648  12.962  0.2822  0.0954  0.0930
29755W        W46602   1.275  12.988   2.420 -0.1534 -0.0934 -0.0958
29756W        W46603   2.462  13.138   1.707  0.2878  0.1955 -0.2979
29757W        W46604  11.156  12.962   2.690 -0.1619 -0.0242  0.0244
29758W        W46605  13.645  14.165   5.331  0.1210 -0.1115 -0.3401
29759W        W46606   9.209   9.068  16.402  0.2343  0.1456 -0.3080
29760W        W46607   3.149  15.224  14.401 -0.1115 -0.2290 -0.0163
29761W        W46608   5.512  12.917   2.927 -0.0482 -0.0663 -0.0942
29762W        W46609   3.125  10.999  14.517  0.1395 -0.1493 -0.1888
29763W        W46610   9.505   1.771   1.242 -0.1425  0.0245  0.0910
29764W        W46611   9.790   3.433   2.650 -0.5050  0.0678  0.2118
29765W        W46612   0.423  10.174   1.465  0.2057 -0.0799 -0.0534
29766W        W46613  10.314  16.739  12.288 -0.1161  0.2038 -0.0562
29767W        W46614   4.343  12.280   4.976  0.2609  0.1507 -0.2983
29768W        W46615   7.037   1.745  16.545  0.1910 -0.1040 -0.4839
29769W        W46616  15.256  17.263   0.228 -0.0314 -0.1380  0.3024
29770W        W46617  15.096   1.889  16.169  0.1491 -0.1844  0.4326
29771W        W46618   4.605   1.876   3.943 -0.0080 -0.3292 -0.1429
29772W        W46619   9.071  10.007  16.092 -0.1770  0.0657  0.2345
29773W        W46620   0.651   8.126  14.620 -0.1713  0.0045  0.1619
29774W        W46621  10.873   5.637  10.785 -0.1909  0.2638  0.1501
29775W        W46622  16.662  10.260  11.823  0.0520 -0.1186  0.3650
29776W        W46623  13.024   6.157   0.160  0.2040 -0.1424 -0.0702
29777W        W46624  13.248  13.133   2.445  0.0482 -0.5493 -0.2897
29778W        W46625   6.458   1.132   3.041 -0.0743 -0.0281  0.3078
29779W        W46626   3.329  17.055   2.010  0.1704 -0.0914 -0.1398
29780W        W46627  17.683  15.847  15.422  0.1004 -0.0399  0.2223
29781W        W46628   6.596   0.599  15.973  0.0296  0.4736  0.0387
29782W        W46629   9.893  12.360   5.822  0.0371  0.0437  0.0218
29783W        W46630   2.343   9.079   3.730  0.2398  0.0147  0.0716
29784W        W46631  12.980   5.888   5.025  0.0275 -0.1424 -0.0312
29785W        W46632   4.351   5.880   0.793 -0.0051  0.1455 -0.0156
29786W        W46633   3.147   1.773   1.658  0.0011  0.0028 -0.0514
29787W        W46634   1.187  15.050   5.166 -0.0992 -0.2809  0.0507
29788W        W46635  13.197   0.113   3.312 -0.2898  0.4191  0.1636
29789W        W46636   5.064  15.634   4.568  0.2125  0.2586  0.1362
29790W        W46637   1.349   0.355  11.976  0.0066  0.1272 -0.4354
29791W        W46638   2.411  14.516  12.899 -0.0447 -0.0471 -0.0709
29792W        W46639  17.002   8.790  16.567  0.1650  0.1095 -0.1277
29793W        W46640  10.594  11.239  13.785 -0.2237 -0.1981 -0.0374
29794W        W46641  11.708  13.869  16.116  0.1310  0.2513  0.1815
29795W        W46642  13.117   4.397   0.543 -0.0438 -0.1364 -0.0170
29796W        W46643   1.947  11.908  15.397  0.3419 -0.1805 -0.1352
29797W        W46644  11.166   8.070  13.685  0.1344  0.0094  0.0703
29798W        W46645  10.039  10.068   3.774 -0.0229 -0.3608 -0.2001
29799W        W46646   1.805   0.567  15.350  0.0381 -0.0187  0.3878
29800W        W46647  14.544  12.537   3.489  0.1198 -0.0372 -0.0414
29801W        W46648   5.931  17.065  13.132  0.0184 -0.1314  0.2475
29802W        W46649   7.456   6.691   4.125 -0.0129 -0.0709 -0.0218
29803W        W46650   5.468  10.066  14.330 -0.0776 -0.0992  0.3523
29804W        W46651  16.940  11.385   2.003 -0.0535 -0.0073  0.2553
29805W        W46652   9.289   0.247  13.601 -0.1603  0.3568  0.2140
29806W        W46653   5.245  11.706  12.229 -0.0678 -0.0008 -0.1779
29807W        W46654   7.455   1.202   1.919  0.0417  0.2770 -0.1646
29808W        W46655  13.349  11.432  14.460 -0.3400  0.1334  0.2276
29809W        W46656   3.088   1.852  12.015 -0.0479 -0.2053  0.1330
29810W        W46657   3.219   5.522   5.132 -0.0590  0.1645  0.1526
29811W        W46658   2.692   4.619  16.530 -0.3160 -0.1169  0.1823
29812W        W46659  16.790   3.805  15.812 -0.1786 -0.1454  0.0231
29813W        W46660  10.498  15.452   3.952 -0.1927  0.1249  0.0551
29814W        W46661  13.073   6.867   2.074  0.0259 -0.0809  0.1933
29815W        W46662   9.735  11.151  16.057 -0.2150 -0.1351 -0.4668
29816W        W46663   6.452  13.469   0.309 -0.2127 -0.0349 -0.0182
29817W        W46664  14.295   4.547   2.247  0.0164 -0.0770  0.1418
29818W        W46665   5.334  11.397   5.951  0.3388 -0.1216  0.1038
29819W        W46666  11.416   4.900   5.089  0.0196 -0.1829 -0.1219
29820W        W46667  16.420   3.784   3.303 -0.2332  0.0411  0.2291
29821W        W46668   7.050   1.929   2.456  0.2944  0.1041  0.1117
29822W        W46669   2.852   1.946   4.396  0.0198  0.0267  0.0785
29823W        W46670  15.077   4.140  15.892  0.2658 -0.1825 -0.0901
29824W        W46671   3.491   7.889   4.171 -0.4459  0.3106 -0.0235
29825W        W46672  10.219   7.925  13.025 -0.1944  0.2287 -0.1082
29826W        W46673  14.273  17.880  10.680  0.0053 -0.2364 -0.0221
29827W        W46674   3.540  11.098   1.906 -0.1304 -0.0458 -0.2646
29828W        W46675  16.790  11.142  14.964 -0.0420 -0.0179  0.0142
29829W        W46676  11.759  11.555   5.050  0.1317  0.1629 -0.1029
29830W        W46677  10.238  13.893  11.564  0.2886 -0.2499 -0.0466
29831W        W46678  16.831  10.055  14.294 -0.0117 -0.0410 -0.0909
29832W        W46679  16.593   7.472  16.100  0.0156  0.3442 -0.1506
29833W        W46680   5.779   6.945   3.285 -0.1836 -0.2231 -0.1662
29834W        W46681   4.102  13.281   4.623  0.2419 -0.0640  0.3972
29835W        W46682   1.398  17.490   1.769  0.0856  0.1486  0.1044
29836W        W46683   7.814   8.551  11.892  0.0525  0.0763 -0.0561
29837W        W46684   4.766   9.495  12.648  0.0760  0.1094 -0.1966
29838W        W46685   9.139   2.924   6.327 -0.1299 -0.1124 -0.0792
29839W        W46686  14.257   3.650   4.112  0.0801  0.2348  0.1163
29840W        W46687  10.596   0.664  12.811  0.1948  0.2865  0.1688
29841W        W46688  17.674   6.670   2.596 -0.1529 -0.2658 -0.4385
29842W        W46689  10.305   9.235   4.190  0.3777 -0.2342  0.1243
29843W        W46690   7.081  12.098   5.216  0.2295  0.0932 -0.3478
29844W        W46691  16.669  16.390   2.724 -0.3080 -0.1971  0.0173
29845W        W46692   5.046  13.353  15.748  0.1210 -0.1333  0.0303
29846W        W46693  13.988   0.581   1.535 -0.3602  0.0438  0.3150
29847W        W46694  15.134   9.791   5.656 -0.0135 -0.0908  0.2542
29848W        W46695   8.639   8.130   1.546 -0.0607 -0.2624  0.0653
29849W        W46696  12.681   2.710   3.859 -0.0113  0.0283  0.1007
29850W        W46697  16.935  17.948   0.576 -0.0917 -0.2133 -0.3404
29851W        W46698  17.465   4.273   6.055  0.0703 -0.0769 -0.0786
29852W        W46699   2.827   5.767  15.159  0.0881  0.1436 -0.1527
29853W        W46700  16.734   7.768  12.415  0.5356  0.0519 -0.0765
29854W        W46701  16.960  13.564   0.549 -0.0936 -0.6528 -0.2202
29855W        W46702   1.840  17.057   4.620 -0.0621  0.3441  0.3197
29856W        W46703   0.286  12.166   3.667  0.4206 -0.0379 -0.1542
29857W        W46704   0.273  13.472   1.230 -0.4730 -0.1521 -0.1784
29858W        W46705  14.330   5.621  11.838 -0.2245 -0.0225  0.2351
29859W        W46706   1.186  10.732   1.099 -0.0096  0.1045  0.1099
29860W        W46707  10.648  10.763  14.361 -0.0735 -0.0090 -0.0754
29861W        W46708   0.735  14.697  14.567  0.1902 -0.0068  0.0752
29862W        W46709  10.809   3.199  13.479  0.2526 -0.0539 -0.4260
29863W        W46710  12.011  12.022  12.387  0.0082 -0.1091  0.0943
29864W        W46711  12.968   3.756   4.524  0.1317  0.2514 -0.2574
29865W        W46712   3.042  15.711   3.829  0.2474  0.1069  0.2881
29866W        W46713   7.227   4.159   4.005 -0.2205 -0.3383  0.0133
29867W        W46714   8.129  15.210  13.374  0.0169 -0.1070 -0.0400
29868W        W46715   0.894  15.387   0.934  0.0698 -0.2057 -0.0907
29869W        W46716   2.798   5.416   3.780 -0.1797 -0.1128  0.1269
29870W        W46717  10.742  16.949  12.281  0.0457  0.2092  0.0706
29871W        W46718  15.420  10.218  15.502 -0.0161 -0.1413  0.1476
29872W        W46719   2.750  10.323  16.539 -0.1029 -0.0229  0.0804
29873W        W46720   7.877   5.538  14.746  0.0319  0.3213 -0.1542
29874W        W46721   0.212   0.723  14.212  0.2813 -0.2478  0.0127
29875W        W46722   8.309   0.989   4.560  0.1473 -0.0982  0.0079
29876W        W46723  14.725   3.720   0.453 -0.0498  0.2882  0.1027
29877W        W46724  11.592  10.888   0.703  0.0090 -0.3056  0.0651
29878W        W46725   3.966   1.054  16.117 -0.0500  0.0480  0.0190
29879W        W46726   0.760  11.591   3.187 -0.2742 -0.0004 -0.0701
29880W        W46727   7.242  16.533  12.172 -0.1524 -0.0739  0.0022
29881W        W46728  16.051  11.989  14.103  0.2705 -0.1800  0.3202
29882W        W46729  14.747  15.189   2.442  0.3440  0.3124 -0.1834
29883W        W46730   1.896   3.006  15.013 -0.1287  0.1710 -0.0486
29884W        W46731  13.563   6.054  11.975 -0.1101 -0.1665 -0.4458
29885W        W46732   1.415   1.601  14.615  0.1506  0.0079 -0.0318
29886W        W46733   2.179  17.175   5.000  0.3283 -0.1416 -0.1797
29887W        W46734   4.044  12.747   4.428  0.2232 -0.0611  0.1036
29888W        W46735   6.735  12.447   3.032  0.2921 -0.3134 -0.1972
29889W        W46736  14.676   2.130  12.067  0.2331  0.0621  0.0115
29890W        W46737  14.355  15.538   2.350  0.0186 -0.0545  0.0753
29891W        W46738   4.923  12.422   6.006  0.0505  0.1065 -0.0804
29892W        W46739   1.526  14.556   2.513 -0.0900 -0.1535  0.3211
29893W        W46740   7.769   4.398  14.058  0.0222 -0.0483 -0.0328
29894W        W46741   5.237  17.897   4.456 -0.0964  0.0893 -0.1438
29895W        W46742   1.492   0.495  14.093  0.0576 -0.1077  0.2197
29896W        W46743  17.051  11.852  14.020 -0.1981 -0.3261 -0.4244
29897W        W46744  16.161   3.408  14.253  0.1484  0.1103  0.0844
29898W        W46745   4.254   4.305  14.170  0.0933 -0.1340  0.1097
29899W        W46746  12.426   1.054   4.378  0.2062 -0.0188  0.1257
29900W        W46747   2.663   3.799  12.706 -0.2928  0.0468  0.0961
29901W        W46748   6.895   9.201  12.290  0.3576 -0.3584 -0.0146
29902W        W46749   3.410   0.117  11.350  0.1725  0.0718 -0.0261
29903W        W46750  16.923   6.022   5.281  0.3144 -0.0925  0.4182
29904W        W46751  10.939   1.367  13.697  0.1431  0.1182 -0.0555
29905W        W46752  11.261   9.632  13.198  0.0563  0.0239  0.0996
29906W        W46753   4.084   8.274  15.238  0.1085  0.2745 -0.3016
29907W        W46754  14.338   7.845   2.475  0.2774 -0.3557 -0.1021
29908W        W46755  11.692  14.469   1.082 -0.0246 -0.1243  0.1119
29909W        W46756   3.581  14.292  12.125  0.0829 -0.2684 -0.1732
29910W        W46757  12.442   0.850   1.541 -0.0777  0.1413  0.0450
29911W        W46758  12.776  17.858   3.576  0.3050 -0.2337 -0.0302
29912W        W46759  14.687   9.069  12.584 -0.3392  0.2407 -0.1241
29913W        W46760  11.765  15.648   2.324  0.3672  0.0930  0.0075
29914W        W46761   0.746  10.756  16.669 -0.0435  0.6679  0.0319
29915W        W46762   2.236  17.605  13.542  0.2706 -0.0185 -0.0652
29916W        W46763   9.874  10.840   0.755  0.0255 -0.0572  0.0261
29917W        W46764   3.182   5.719   4.527  0.4383  0.0399  0.3611
29918W        W46765  16.659   8.983  13.504 -0.2131 -0.2860  0.0274
29919W        W46766  11.054   6.125   3.855  0.0160  0.1734  0.0205
29920W        W46767  16.542  14.703   6.055 -0.1950  0.0611  0.0137
29921W        W46768   4.507  13.979   1.957 -0.0869 -0.1243  0.1568
29922W        W46769   3.998  14.739   0.941 -0.1753  0.0206  0.2486
29923W        W46770  17.004   0.277  13.538 -0.2491 -0.2531  0.0055
29924W        W46771   5.766   3.291   2.911 -0.1048 -0.2242 -0.0210
29925W        W46772   0.636   5.783   5.506  0.1526  0.1660 -0.1842
29926W        W46773  11.053   5.815  15.182  0.2679 -0.3636 -0.0247
29927W        W46774  16.275   8.556  14.687  0.3121 -0.1813 -0.0819
29928W        W46775  11.933  13.704  12.270 -0.4070 -0.1618 -0.0395
29929W        W46776   1.048   2.512  14.031 -0.3197  0.1133  0.1357
29930W        W46777   9.280   8.198   0.053  0.2784 -0.1516 -0.2805
29931W        W46778  10.231   7.074   1.243 -0.0974  0.1868  0.0673
29932W        W46779   3.699   9.315   3.451 -0.5000  0.2052 -0.0619
29933W        W46780  17.772  16.112  16.319  0.1105 -0.0372  0.1123
29934W        W46781  14.567   1.600   1.902  0.0971 -0.1492  0.1355
29935W        W46782  16.766   2.975   3.501  0.3117 -0.0768  0.0526
29936W        W46783  11.696   8.189  15.282 -0.0083 -0.1891 -0.0008
29937W        W46784  12.899   7.653   1.364  0.1883 -0.1096 -0.0355
29938W        W46785   5.936  16.385   1.779 -0.1095 -0.0043 -0.2837
29939W        W46786  16.298  13.392  15.097  0.2938  0.1453  0.1977
29940W        W46787   0.665  15.097   2.328  0.2449  0.0945  0.3323
29941W        W46788   0.998  10.929  12.576  0.1009  0.0082 -0.1288
29942W        W46789  15.285   4.914  15.085  0.0151  0.1539  0.0595
29943W        W46790  12.275  16.069  11.112  0.0856  0.1456 -0.0208
29944W        W46791  18.001   2.469   0.978 -0.1177 -0.0210  0.0270
29945W        W46792   2.271   1.282   2.607 -0.0073  0.0126  0.1028
29946W        W46793   9.549   9.872   2.799  0.2046 -0.0182 -0.1304
29947W        W46794   8.005   6.870   5.177  0.0428  0.0526 -0.2917
29948W        W46795   8.620   1.538  12.947  0.0440  0.2746 -0.0266
29949W        W46796  16.376  12.836  15.389  0.3618  0.0615 -0.1050
29950W        W46797   0.256   7.249  14.272 -0.0851  0.0267 -0.0759
29951W        W46798  12.328  14.140  12.039  0.0771  0.1081  0.3215
29952W        W46799  12.826  14.055   2.127  0.1696  0.2842  0.0676
29953W        W46800  14.297  14.067  14.142 -0.5384  0.2662 -0.1419
29954W        W46801   3.133   4.552   2.559  0.2149  0.1676  0.1469
29955W        W46802  15.201   9.828   3.076  0.2660  0.0205  0.5777
29956W        W46803  13.980  14.377  14.409  0.0961  0.0620  0.3002
29957W        W46804  11.841   2.749   4.509 -0.3674  0.1381 -0.4007
29958W        W46805   7.642  12.062   0.247 -0.2366 -0.0038  0.0602
29959W        W46806   2.980  17.091  15.625 -0.0422 -0.2178 -0.0634
29960W        W46807  11.456  15.844   4.726 -0.1625  0.0199 -0.2253
29961W        W46808   6.181  17.812  16.198  0.0423  0.0254 -0.1176
29962W        W46809   6.048   7.142  13.495  0.2998 -0.0384  0.0924
29963W        W46810  10.357  16.572   3.460 -0.0096  0.1381  0.2014
29964W        W46811  15.154   1.933  14.696  0.0017  0.2261  0.0380
29965W        W46812  13.843   7.962   2.595  0.1308 -0.0369  0.0082
29966W        W46813   8.595   4.435  13.662  0.1244  0.2121  0.0199
29967W        W46814   7.601  10.437  14.615  0.0070 -0.0313  0.0782
29968W        W46815   3.037   6.786   2.922 -0.3338  0.4146 -0.2252
29969W        W46816   9.977   8.639   4.712 -0.1182 -0.1373 -0.0900
29970W        W46817   8.280   4.762  12.433 -0.3550  0.0895 -0.0255
29971W        W46818   8.030   9.914  14.798 -0.0799 -0.0528 -0.0602
29972W        W46819  11.349  16.868  15.554  0.2172 -0.1862  0.0418
29973W        W46820   9.167   3.322  12.731 -0.2580 -0.0662 -0.1705
29974W        W46821  13.980  10.281  14.651  0.0756 -0.1343 -0.3035
29975W        W46822   8.287  11.184   3.947 -0.1754 -0.0487  0.2640
29976W        W46823  14.120   8.502  11.659 -0.0234 -0.0202 -0.3010
29977W        W46824   9.217   8.592   3.603 -0.1389  0.0092  0.2540
29978W        W46825   0.021  13.981   2.591  0.2786  0.0191  0.2459
29979W        W46826   9.763   5.971  16.277  0.1335 -0.1022 -0.1593
29980W        W46827  16.135   6.699   5.423  0.0519 -0.1953  0.1141
29981W        W46828  11.699  11.556  12.325 -0.3503 -0.1939 -0.3636
29982W        W46829  11.735  17.800   0.081  0.1054  0.2787  0.1055
29983W        W46830   0.572   1.840   0.906  0.1735  0.1599  0.2661
29984W        W46831   0.931  16.822   0.719 -0.0601 -0.1967  0.2273
29985W        W46832   8.313   5.905  12.408  0.1275  0.4937 -0.1328
29986W        W46833   7.702  16.746  11.876 -0.0028  0.1441  0.0611
29987W        W46834   7.803   3.183  15.017  0.2366 -0.1021 -0.0766
29988W        W46835   6.292   5.388   3.810 -0.0116 -0.1371 -0.0226
29989W        W46836   9.873  14.563   5.677  0.1137  0.1114  0.2361
29990W        W46837  14.553  15.131  15.442 -0.0180  0.2241 -0.0818
29991W        W46838  10.138  12.574  15.264  0.1748 -0.1541  0.2263
29992W        W46839   3.989   9.768   4.097 -0.1352 -0.4693  0.0125
29993W        W46840   0.002  12.105  12.294  0.2761  0.0022  0.0722
29994W        W46841  10.636   3.102   1.276  0.2471 -0.1373  0.0420
29995W        W46842   6.924  13.780  15.259  0.2726  0.1812  0.0770
29996W        W46843  15.185   1.596  12.553 -0.1484  0.1011  0.3015
29997W        W46844  10.252  11.175   1.806 -0.1496 -0.0501  0.0533
29998W        W46845   0.910  16.318  15.812  0.0034 -0.1272  0.1623
29999W        W46846  11.679  17.953  16.005  0.0820 -0.0054  0.3560
30000W        W46847   9.962  17.891  15.276  0.0173 -0.0623  0.1384
30001W        W46848   0.542   9.076  13.404  0.1254  0.0604  0.1613
30002W        W46849  14.789   2.489  14.022 -0.1351  0.0858 -0.2637
30003W        W46850   4.303  14.932   0.104 -0.0015  0.2256 -0.3065
30004W        W46851  15.947  17.242  12.908 -0.3277 -0.1859 -0.2554
30005W        W46852  10.421  11.562  15.156  0.0160 -0.0773  0.2255
30006W        W46853   8.060   0.451  16.639  0.2179  0.0074  0.1480
30007W        W46854   5.764  11.360   2.372  0.1077  0.0683 -0.1451
30008W        W46855   0.690   1.421  13.230 -0.1684  0.0920  0.1112
30009W        W46856  14.663   5.026   4.147  0.4153  0.1981 -0.2436
30010W        W46857   2.159  15.520  14.570 -0.3755 -0.0294  0.1063
30011W        W46858   0.964  15.036  12.065  0.2394  0.2355 -0.3019
30012W        W46859   1.146  15.397  12.566 -0.2119 -0.1080 -0.0643
30013W        W46860  15.101   1.047  11.779 -0.0940  0.2260 -0.1051
30014W        W46861   1.228   8.905  11.535  0.0038  0.2380  0.1234
30015W        W46862  14.532  10.377  15.483 -0.3206 -0.2205  0.0259
30016W        W46863  14.521   3.842  13.264 -0.4781 -0.0940  0.0506
30017W        W46864   4.560  16.814  15.809 -0.0195  0.1157 -0.3848
30018W        W46865  11.954   7.435  12.805  0.0352 -0.0837  0.0939
30019W        W46866  11.405  11.026   1.175  0.0246 -0.0158  0.1308
30020W        W46867  13.189  17.169   2.366 -0.0451  0.2083  0.0982
30021W        W46868   0.516   4.187   1.047  0.2605  0.1355 -0.2116
30022W        W46869   2.607   5.266   0.739 -0.1298  0.3087  0.0669
30023W        W46870   1.514   0.622   5.487  0.3049  0.2935 -0.1552
30024W        W46871  14.299   4.774   5.339 -0.1659 -0.0263 -0.0007
30025W        W46872   9.386  10.595   5.231  0.1558 -0.2444  0.1300
30026W        W46873   5.077   5.088   1.795 -0.0934  0.0129 -0.2074
30027W        W46874   5.679   0.512   0.590  0.5926  0.0531 -0.3255
30028W        W46875  13.182   5.374   2.426  0.1670  0.1633 -0.1741
30029W        W46876   1.459  17.001  16.201  0.1209  0.2032 -0.2472
30030W        W46877   2.220   4.162  14.326  0.0010  0.0928  0.0018
30031W        W46878  13.162   2.133   3.008  0.1849  0.0099  0.0421
30032W        W46879   2.040   6.698   3.093  0.1068 -0.3125 -0.2468
30033W        W46880  13.392   7.695   4.437 -0.0210 -0.0233  0.0256
30034W        W46881  12.756  11.228  16.376 -0.0898  0.0916 -0.0540
30035W        W46882   2.448   3.840  16.192 -0.3009 -0.2264 -0.0182
30036W        W46883   6.577  15.064   3.219 -0.3873 -0.0840  0.1402
30037W        W46884  11.980   8.957   4.922 -0.2007  0.2117  0.0332
30038W        W46885   5.089   8.184  13.348  0.1033 -0.1909  0.3443
30039W        W46886   2.380  16.835   4.728  0.1691  0.1380  0.1867
30040W        W46887   3.066  17.533  12.020  0.3731 -0.0155  0.1845
30041W        W46888   2.551  11.439  15.364 -0.3053  0.2285  0.1101
30042W        W46889  14.352  17.007  13.616 -0.1354  0.3154 -0.2654
30043W        W46890   8.055   3.268   3.059 -0.2226  0.1967 -0.1057
30044W        W46891  17.217   7.960  12.636 -0.0579 -0.0928 -0.2936
30045W        W46892   0.571   3.052  13.340  0.0155 -0.1329  0.1178
30046W        W46893   9.317   6.200  16.567 -0.1860 -0.0268  0.2303
30047W        W46894  13.248  11.784   5.003 -0.0284  0.1753  0.0681
30048W        W46895   2.821   4.173  13.967  0.1198 -0.2865  0.0869
30049W        W46896   8.544   1.874  16.546 -0.2009  0.1561  0.2675
30050W        W46897  12.131  17.697   6.020  0.1317  0.2079 -0.1269
30051W        W46898  12.761  14.178   1.275  0.3125  0.2897  0.2563
30052W        W46899   0.908   0.821   0.663 -0.0679  0.3887  0.0408
30053W        W46900  10.607   4.365   4.883 -0.1006 -0.0715 -0.0360
30054W        W46901   9.439  10.082  11.751 -0.0133 -0.0719  0.1034
30055W        W46902  12.032   4.983   1.097  0.3761 -0.3677 -0.0674
30056W        W46903   3.611  17.569  11.914  0.0382  0.0278  0.0740
30057W        W46904   1.111  13.349   3.000  0.2027  0.2484  0.0642
30058W        W46905   7.806   3.751   1.413  0.0918  0.3380 -0.1202
30059W        W46906   4.852   2.946  13.163 -0.0024 -0.2044 -0.1550
30060W        W46907   1.268   2.343   2.517 -0.0188  0.0764 -0.0442
30061W        W46908  14.228   7.377   2.266  0.2959 -0.3234  0.0447
30062W        W46909   6.883   5.943  16.607 -0.0148  0.1008 -0.4077
30063W        W46910   6.569  13.285  13.425  0.3363  0.0948 -0.1409
30064W        W46911   5.183  12.091   1.557 -0.1990  0.0756  0.2678
30065W        W46912  14.730  13.399  12.723  0.0368 -0.1927  0.4333
30066W        W46913   8.385   7.952   2.376 -0.0272 -0.0221 -0.2118
30067W        W46914   6.256   5.521  15.347  0.1339  0.2063  0.1529
30068W        W46915   0.442  17.044   0.761 -0.1209  0.3455 -0.1614
30069W        W46916   5.061   5.732  16.274  0.1371 -0.1488 -0.1082
30070W        W46917  17.218   4.889  11.717  0.0698  0.0740  0.1119
30071W        W46918   5.894  13.768  15.918 -0.0433  0.2786 -0.3495
30072W        W46919  13.320   1.165   3.382 -0.2502  0.0588  0.0090
30073W        W46920   3.259   5.170  12.918 -0.0997  0.0572  0.1884
30074W        W46921   4.366  16.052   4.525  0.0091  0.0800  0.2185
30075W        W46922  16.292  15.211  15.738 -0.1270 -0.1169  0.1811
30076W        W46923  12.030   4.561   1.908  0.2264  0.0415  0.1244
30077W        W46924  10.121  14.189  13.692 -0.1767 -0.0933  0.0586
30078W        W46925  13.968   3.740   1.851 -0.0212  0.3192 -0.0652
30079W        W46926   5.217   2.547  14.455 -0.1637 -0.1819  0.2605
30080W        W46927  12.611   5.936   1.916  0.0598 -0.2424  0.1227
30081W        W46928  10.817  14.380  16.062  0.3310 -0.1595  0.0712
30082W        W46929   7.075  11.443   3.526 -0.0828  0.2223  0.0649
30083W        W46930  10.176   2.209  15.141 -0.0100  0.1095  0.0138
30084W        W46931  16.397   3.989  13.501 -0.0018  0.2103  0.2213
30085W        W46932   8.775   7.608  15.037  0.0289  0.0524  0.0207
30086W        W46933   0.006  17.498   0.009  0.0669 -0.0127 -0.1375
30087W        W46934   9.092   4.385  15.343 -0.2341  0.2257 -0.2574
30088W        W46935  12.178   0.602   4.502  0.2861 -0.1325 -0.1491
30089W        W46936  13.029   7.933   0.057  0.1972 -0.2491 -0.0948
30090W        W46937   4.003  15.952  12.466 -0.2048  0.2550  0.3260
30091W        W46938   8.270  10.689   3.357 -0.0408 -0.1097  0.3001
30092W        W46939  16.565  10.630  12.154 -0.0055  0.3139  0.2276
30093W        W46940   2.383   6.672  11.597  0.0977 -0.2955  0.2819
30094W        W46941   9.946   4.891   1.364 -0.2270 -0.1270  0.2589
30095W        W46942  14.227   9.447   2.172 -0.3450  0.0840 -0.1691
30096W        W46943   2.932   2.039  16.648  0.2343  0.3386 -0.0248
30097W        W46944  13.212  12.262   3.824  0.2736  0.0249  0.0110
30098W        W46945   3.735  16.754   1.999  0.0659 -0.2203  0.0503
30099W        W46946  10.879  12.192  13.775  0.0786  0.3826 -0.2216
30100W        W46947   5.171  18.022  16.600  0.0649 -0.0371  0.0240
30101W        W46948   9.355  11.228   1.972 -0.2945  0.0303 -0.1651
30102W        W46949   6.737  15.259   1.429  0.0932  0.1291 -0.2431
30103W        W46950  11.367   9.868  14.146 -0.0871 -0.1803  0.1545
30104W        W46951  12.973  17.659  13.189 -0.1453  0.2491 -0.2622
30105W        W46952  15.199   2.000   2.045 -0.0870  0.0040 -0.0415
30106W        W46953  11.513   3.394   1.253 -0.0341 -0.0015 -0.1899
30107W        W46954   3.678   5.986   0.146  0.0172 -0.0378  0.0997
30108W        W46955   8.078   5.955  11.934 -0.0654 -0.1832  0.1397
30109W        W46956   4.010  11.448   3.350  0.0402 -0.2086 -0.1008
30110W        W46957   9.110  14.308   0.410 -0.0696  0.1125  0.1039
30111W        W46958   5.559  12.050  12.595 -0.2859 -0.0887  0.1892
30112W        W46959  16.887  15.146   5.306  0.2565  0.0623 -0.2036
30113W        W46960   4.634  15.535   5.860 -0.0015 -0.0483 -0.0842
30114W        W46961  10.456   9.172   2.607 -0.0546  0.1754 -0.1208
30115W        W46962  17.521   7.969   6.098  0.0193 -0.0970  0.4892
30116W        W46963  17.052   2.513   3.464  0.1245  0.2040 -0.0060
30117W        W46964  13.930  18.063  15.312 -0.2217 -0.2897 -0.3853
30118W        W46965  15.549  13.094   4.401 -0.1442  0.2282 -0.0931
30119W        W46966   4.430   2.289   3.702  0.1888 -0.1839  0.0709
30120W        W46967   5.327  12.915  15.672 -0.3978 -0.0809  0.0488
30121W        W46968   0.872  15.203   1.426 -0.0955  0.0646  0.0265
30122W        W46969   3.195  18.032   3.426  0.1072  0.2169 -0.3572
30123W        W46970   2.337   4.262   0.362  0.3771 -0.1538  0.1869
30124W        W46971   1.653  16.751  15.677 -0.1738  0.3589  0.1265
30125W        W46972   8.976  12.015  10.716 -0.0089 -0.2615  0.0090
30126W        W46973  10.868   2.221  12.626 -0.0510 -0.4410 -0.0107
30127W        W46974   0.581  16.682  11.910  0.1810 -0.0219 -0.2487
30128W        W46975  17.712  14.749   3.751 -0.2071  0.1540 -0.0698
30129W        W46976   2.020   3.479   1.959  0.2926  0.1020 -0.0261
30130W        W46977   2.837   0.246   5.614 -0.1543 -0.2490 -0.0947
30131W        W46978  15.595   2.265   2.292  0.2105  0.1263  0.2084
30132W        W46979  16.674   2.699  16.628  0.2671 -0.0769 -0.0658
30133W        W46980  11.176  10.168  16.455 -0.0029 -0.1599  0.0140
30134W        W46981  11.573  10.827   3.892  0.1853  0.0626 -0.1890
30135W        W46982   2.049   4.518  15.096  0.0601  0.0070 -0.4750
30136W        W46983  13.703   7.443  11.768  0.0589 -0.0288 -0.2344
30137W        W46984  14.406   3.445  16.442  0.2593 -0.1689 -0.0576
30138W        W46985  15.256   3.781   0.398 -0.3232  0.2603  0.0149
30139W        W46986  15.973   0.200  15.261 -0.1473  0.0757 -0.1355
30140W        W46987  13.040  11.361   5.007  0.0194  0.1261 -0.0229
30141W        W46988  16.594  15.762  15.941 -0.1425  0.2043  0.1954
30142W        W46989  13.698   1.941  14.363  0.0394  0.0483  0.2778
30143W        W46990   3.510   1.918  13.079 -0.0509  0.0843 -0.2165
30144W        W46991   4.450   0.425   2.047  0.1035  0.1334 -0.1537
30145W        W46992  15.778   8.333  11.526 -0.4620 -0.1133 -0.0101
30146W        W46993   1.437  14.736   4.726  0.0853 -0.2086 -0.0514
30147W        W46994   9.085   1.327   2.027  0.2285  0.3357 -0.1082
30148W        W46995  14.805  11.901   6.167  0.0586 -0.0044  0.0539
30149W        W46996   0.972  14.368  13.279 -0.0036  0.0070  0.0348
30150W        W46997   8.875   0.909   0.224  0.0980 -0.2468  0.0120
30151W        W46998   6.262  10.801   5.558 -0.2099 -0.4508 -0.2513
30152W        W46999  14.402   0.380  12.384  0.1185 -0.1396  0.0964
30153W        W47000   6.649   9.392   3.454  0.1137 -0.1418  0.0342
30154W        W47001  17.468  11.893  12.913  0.2634 -0.2881 -0.0753
30155W        W47002   1.371   0.946  15.401 -0.1324  0.0804 -0.0614
30156W        W47003  14.176  15.491   4.919  0.0060 -0.1772  0.2057
30157W        W47004  17.790   8.664  12.479 -0.0180 -0.1999  0.1559
30158W        W47005   1.450  15.399   0.435 -0.0248  0.0889  0.0772
30159W        W47006   2.522   9.360  15.998 -0.1329 -0.0601 -0.0411
30160W        W47007  11.790  13.272  14.553  0.4968 -0.1346  0.0077
30161W        W47008  15.353   0.655   5.779 -0.1812 -0.3188 -0.4657
30162W        W47009   2.221  15.707  16.376 -0.1240 -0.1377  0.0083
30163W        W47010  15.488   2.480  15.513  0.1036 -0.1093  0.0068
30164W        W47011  11.572  14.997   3.173  0.0122 -0.1901 -0.1299
30165W        W47012   7.603   1.983   1.336 -0.1191 -0.1817  0.0058
30166W        W47013   4.332   3.800  14.258  0.3083  0.1376 -0.2663
30167W        W47014  11.285  17.919  13.593  0.2779  0.2587  0.1199
30168W        W47015   1.978  15.832   5.880  0.2441 -0.0332  0.1053
30169W        W47016   3.171  11.854   3.363 -0.0394  0.1697  0.1743
30170W        W47017   5.162  10.556  15.714  0.0920 -0.0213  0.3887
30171W        W47018   4.180   5.923  12.864 -0.0646  0.1743  0.2975
30172W        W47019  15.650   8.994   6.249  0.1164  0.0560  0.3395
30173W        W47020  11.049   0.626   3.074 -0.1251  0.0217  0.2280
30174W        W47021   4.099  14.031   4.944 -0.0056  0.0061  0.0050
30175W        W47022  12.956   9.753  16.377 -0.0582 -0.1399 -0.1216
30176W        W47023   8.624   4.202  15.995  0.0832  0.1118  0.0666
30177W        W47024  10.739   4.820   5.792  0.2738 -0.1702  0.0658
30178W        W47025   1.613   8.886   6.207 -0.2417  0.1711  0.1132
30179W        W47026   9.946  10.582   4.567  0.2036  0.1401 -0.5837
30180W        W47027  12.540  13.524   2.119  0.1293 -0.0311  0.1653
30181W        W47028   5.130  10.017   5.227  0.1370 -0.3383  0.2282
30182W        W47029   4.773   9.437  14.527 -0.0377 -0.0918 -0.0902
30183W        W47030  17.440   9.808   3.118  0.0866 -0.2969 -0.0224
30184W        W47031   0.659  16.714   1.072  0.0230  0.1899 -0.3600
30185W        W47032   2.758   4.376   2.875  0.1778  0.3568  0.0788
30186W        W47033   8.338   3.957  12.154 -0.0306 -0.0603  0.1803
30187W        W47034  15.475   3.449  15.467 -0.0410  0.0382 -0.1265
30188W        W47035   2.362   5.130   5.143 -0.0578 -0.0528  0.2002
30189W        W47036   6.016   4.092   0.053 -0.3340 -0.0466 -0.0651
30190W        W47037   9.979   6.004  11.572 -0.1518 -0.2128  0.0618
30191W        W47038   8.723  14.050   2.946 -0.0293  0.1645 -0.0799
30192W        W47039  10.056   1.768  14.172 -0.0881  0.0017  0.2481
30193W        W47040   2.196  11.636   4.327  0.1750 -0.4059 -0.0766
30194W        W47041   9.113   1.585  13.229 -0.0032  0.2020  0.0258
30195W        W47042  16.840  12.367   1.320 -0.0333  0.1614  0.1665
30196W        W47043  13.329   2.846   2.769  0.4575 -0.0134 -0.2726
30197W        W47044   2.539   9.546   3.980  0.0324  0.1727  0.4582
30198W        W47045  12.636  10.674   1.393 -0.1271  0.1075 -0.2814
30199W        W47046  16.782  10.015   6.022  0.0330 -0.1535 -0.2505
30200W        W47047   1.693   7.014  13.714 -0.4537 -0.1287 -0.1190
30201W        W47048  15.028   4.568   5.490  0.1989 -0.2498 -0.1486
30202W        W47049  13.463   8.621  12.282  0.0921  0.2112 -0.0190
30203W        W47050  10.571   6.297  15.212  0.1249 -0.2442 -0.0054
30204W        W47051  10.897  11.562  11.261  0.2456  0.0332  0.0101
30205W        W47052  17.195   4.211   3.753  0.1712  0.0161 -0.2052
30206W        W47053   9.637   0.836   5.701 -0.0527 -0.0809 -0.1601
30207W        W47054  14.981   8.938   1.047  0.1983 -0.2343  0.0949
30208W        W47055   3.765   8.921   5.144 -0.0282  0.2056 -0.0568
30209W        W47056  11.148   0.625   2.031  0.0372 -0.2565 -0.2059
30210W        W47057  11.531   5.961   4.763 -0.0053  0.0702  0.2182
30211W        W47058   8.582   2.649  13.450 -0.1806 -0.0393  0.2179
30212W        W47059   5.343   7.236   5.420  0.0567  0.0292  0.3761
30213W        W47060   7.588  14.532   3.021  0.1243 -0.4629  0.2524
30214W        W47061  16.726  14.614   1.886 -0.1648 -0.4624  0.3728
30215W        W47062  16.242   5.118  13.013 -0.1699 -0.1882 -0.0587
30216W        W47063  13.508  11.633  16.167 -0.0221  0.0177 -0.0331
30217W        W47064  11.691   9.310   1.484 -0.0222  0.2756  0.1261
30218W        W47065  10.374   8.233   4.063  0.3768  0.0816  0.0672
30219W        W47066  14.969   5.462  16.203 -0.0154  0.1700 -0.0439
30220W        W47067  14.974   3.651  15.542 -0.3027 -0.4670 -0.2622
30221W        W47068   8.006   2.108  10.957 -0.0505 -0.0747 -0.3360
30222W        W47069  12.730   7.083  16.456  0.0660  0.0254  0.3133
30223W        W47070  14.125  11.941   0.442  0.0627  0.1380 -0.1643
30224W        W47071   9.108  15.505   4.928 -0.2096 -0.3502 -0.1667
30225W        W47072   5.652  13.483   0.748 -0.1668  0.0061  0.1956
30226W        W47073   0.732  11.961   0.677 -0.0178 -0.2218  0.1701
30227W        W47074   5.851  15.548  15.533  0.0346  0.0535  0.1029
30228W        W47075   9.706   1.860  14.558 -0.0071 -0.0900 -0.0184
30229W        W47076   9.949   2.162   0.062  0.5763  0.2146  0.1752
30230W        W47077  12.524   7.098   0.240 -0.2431 -0.0753 -0.0393
30231W        W47078   9.473  12.301  13.668  0.1112 -0.0866 -0.0020
30232W        W47079  17.243  10.301  15.129 -0.0257 -0.0153  0.1397
30233W        W47080   0.946   7.599   4.384 -0.3922 -0.1945  0.0123
30234W        W47081  10.490  10.403  13.788  0.0526 -0.0890 -0.0179
30235W        W47082   2.372   5.901   4.601  0.2194  0.0787  0.0519
30236W        W47083   7.238   0.128   4.621 -0.2830  0.3668  0.2496
30237W        W47084  17.658   7.428   0.978 -0.0730 -0.2014  0.0900
30238W        W47085  14.264   1.935  16.588 -0.1994 -0.1059  0.1037
30239W        W47086   0.260   8.884   2.601  0.3594  0.1220  0.3996
30240W        W47087   1.822   6.491  12.887 -0.2022 -0.0171  0.3018
30241W        W47088  11.301  10.100   1.001 -0.1164  0.0140 -0.3630
30242W        W47089   5.431   8.007  16.522 -0.3833 -0.1418  0.1478
30243W        W47090   3.419  13.465  10.748 -0.0945  0.0766  0.0677
30244W        W47091  16.039  16.151   0.585 -0.4113  0.3903  0.1694
30245W        W47092   6.427   9.083   4.832 -0.0708  0.1313 -0.4910
30246W        W47093   4.530  17.486   3.249  0.1063  0.0218 -0.0445
30247W        W47094  14.620   3.388  13.486  0.3478 -0.1379 -0.1567
30248W        W47095  16.556  17.835   2.785 -0.3250  0.0881 -0.0002
30249W        W47096  15.928   0.679  14.407  0.3874 -0.1949  0.3115
30250W        W47097   4.122   7.367  15.876  0.1295 -0.0854 -0.0630
30251W        W47098   4.099  10.483   5.562  0.1785 -0.0197  0.0594
30252W        W47099  17.414   6.205   5.186  0.1639  0.0137 -0.1005
30253W        W47100  15.438  10.317  14.445  0.0359  0.0219  0.0784
30254W        W47101  10.394   7.240  15.612  0.1208  0.2463  0.1389
30255W        W47102   6.710   3.791   4.897 -0.2809 -0.0720 -0.1122
30256W        W47103   8.512   9.485   5.622 -0.1010  0.1633  0.0826
30257W        W47104  14.357  16.139  14.314 -0.1077  0.1579 -0.1965
30258W        W47105  14.829   6.340  15.742 -0.3277  0.0605  0.1148
30259W        W47106   5.036  11.895  12.613  0.1987  0.0857 -0.1594
30260W        W47107   0.135  13.066  15.576  0.0596 -0.1068  0.1318
30261W        W47108  14.616   9.420   5.467  0.0306  0.6026  0.1695
30262W        W47109  13.669  16.894  13.485  0.0801  0.1700  0.0503
30263W        W47110   7.954   2.242  16.328 -0.1538  0.1713  0.0853
30264W        W47111   9.195  12.094   2.750  0.3726  0.0310  0.0742
30265W        W47112   1.863   6.630   3.980  0.0317 -0.0529  0.2608
30266W        W47113  14.078   5.507   2.252 -0.0789  0.2468 -0.0857
30267W        W47114   1.124  11.822   0.981  0.1624 -0.0798 -0.1531
30268W        W47115  16.082  16.307   5.738 -0.0237  0.1011  0.3762
30269W        W47116  17.144   7.726  14.018  0.4641 -0.0050  0.0842
30270W        W47117  14.860   5.698  15.080  0.0031 -0.0701 -0.0722
30271W        W47118   2.983   8.410  15.803 -0.1453  0.1748 -0.0826
30272W        W47119   7.669  17.251   0.783  0.1899  0.2359 -0.1399
30273W        W47120  16.212  13.381  12.238  0.1833 -0.2580  0.2090
30274W        W47121   9.160  15.412   2.578 -0.1461 -0.2415  0.1387
30275W        W47122   4.803  11.300  13.465 -0.1189 -0.0011 -0.2700
30276W        W47123  17.033  10.463  14.052  0.2261 -0.2856 -0.1188
30277W        W47124  10.285   6.425  12.000  0.0137 -0.1811  0.2530
30278W        W47125   5.568   5.480  12.337  0.0149  0.7416 -0.2130
30279W        W47126   9.836   5.154  13.214  0.0146 -0.0043  0.2251
30280W        W47127  16.157   8.937   1.628 -0.1617  0.0435 -0.0741
30281W        W47128   5.254   9.220   1.988 -0.4455  0.1397  0.0676
30282W        W47129   8.087  14.968   3.547  0.1281 -0.0518  0.1205
30283W        W47130   5.018   6.680  15.842 -0.3237  0.2414 -0.0343
30284W        W47131  13.916   2.297   3.702  0.0616  0.1871 -0.0769
30285W        W47132  10.503   0.568  15.485  0.2531  0.1690 -0.0197
30286W        W47133  12.649   6.597   0.048  0.0504 -0.0016  0.2745
30287W        W47134  15.470  12.789   0.712 -0.0150  0.3206  0.1275
30288W        W47135  15.666  13.676   4.931  0.3697  0.0009  0.0351
30289W        W47136  17.153   2.470   2.835 -0.0777  0.0595  0.0991
30290W        W47137   1.434   7.821  13.195 -0.0610  0.1132  0.1110
30291W        W47138  16.020   7.437   4.901 -0.0291 -0.0377 -0.0470
30292W        W47139   8.381   6.917   1.684 -0.2092 -0.0392 -0.1738
30293W        W47140   1.620  14.325  16.302 -0.3219 -0.2258 -0.1961
30294W        W47141   6.790   0.893  14.534 -0.0410 -0.1731  0.2578
30295W        W47142   3.273   1.048   2.380 -0.4169 -0.1295 -0.1128
30296W        W47143   8.859  11.127  12.620 -0.1092  0.1744  0.0321
30297W        W47144  15.234  15.775  14.358 -0.0637  0.1446 -0.1611
30298W        W47145   1.956  13.090   4.585 -0.0068 -0.2772 -0.1667
30299W        W47146   8.608   6.938   4.335  0.2597  0.3321 -0.2751
30300W        W47147  17.510  10.518  12.671  0.0704  0.1194 -0.0752
30301W        W47148   9.869   6.787  11.289  0.0002 -0.3032 -0.1675
30302W        W47149   1.652  14.751   3.838  0.0625 -0.0707 -0.0510
30303W        W47150  13.499  10.704  12.433  0.1968 -0.1634 -0.1729
30304W        W47151  14.974  12.918   2.397 -0.1090  0.2982  0.2937
30305W        W47152  14.864   8.879  14.880  0.1014 -0.2206 -0.0593
30306W        W47153   9.587  13.879   1.788 -0.0591  0.2308 -0.0255
30307W        W47154   4.041   0.309   1.061 -0.0335 -0.0516  0.0025
30308W        W47155   9.060  16.381  13.848 -0.2575 -0.0422 -0.0937
30309W        W47156  17.257   9.824   4.725 -0.4484 -0.1628  0.4073
30310W        W47157   2.149   7.987   0.781  0.1038 -0.0005 -0.0217
30311W        W47158   6.994   9.982   0.275  0.1226  0.1155 -0.3067
30312W        W47159  12.155  13.810  15.281  0.1962  0.2685  0.1441
30313W        W47160  15.657   8.964  13.267 -0.3014 -0.0268  0.2705
30314W        W47161   6.590   4.304   3.144 -0.0650 -0.0654  0.1908
30315W        W47162   5.130  13.410  12.230 -0.0444 -0.2389  0.1011
30316W        W47163  12.872  13.938   0.834 -0.0359 -0.1326  0.1180
30317W        W47164   5.781   7.189  12.191 -0.1448 -0.0650  0.0595
30318W        W47165   1.351  15.597   0.843 -0.0534  0.4086  0.2121
30319W        W47166  12.871  12.616   5.387  0.3350  0.3024  0.3613
30320W        W47167   1.527  11.746   3.577 -0.0069  0.3960 -0.0136
30321W        W47168   7.619   5.826   0.973 -0.0249 -0.0170 -0.2903
30322W        W47169  16.624  14.059   1.692 -0.2322  0.0372  0.1348
30323W        W47170  17.179  11.926   4.788  0.1121 -0.1767 -0.0071
30324W        W47171  18.014   4.505  12.412 -0.1887 -0.1552  0.3716
30325W        W47172  15.986   8.222  16.494 -0.4593 -0.2980 -0.1169
30326W        W47173  10.831  17.840   4.739 -0.2297 -0.1052  0.1383
30327W        W47174  13.732  13.691   5.293 -0.0519  0.1111 -0.1314
30328W        W47175   6.159   3.316   5.915 -0.2030 -0.1985 -0.0611
30329W        W47176  11.170   2.215  16.544  0.0539 -0.2072 -0.0766
30330W        W47177  12.352   5.079   3.517 -0.1276  0.2881  0.0748
30331W        W47178  14.488   2.675   3.113  0.1888 -0.2437  0.0562
30332W        W47179   8.421  11.128   1.936  0.0345  0.1200 -0.4203
30333W        W47180  11.480  11.373   3.785 -0.0924  0.0010 -0.0864
30334W        W47181   5.126  10.967  15.366  0.2389 -0.0283 -0.0813
30335W        W47182   6.147   0.405   1.392 -0.0164  0.0087 -0.1440
30336W        W47183   6.620   5.173  12.599  0.0361  0.1166 -0.3548
30337W        W47184   0.067   2.185   1.438 -0.0108  0.0052 -0.5625
30338W        W47185   8.536   9.685  12.242  0.1550 -0.0009 -0.0564
30339W        W47186  14.604  10.671  13.322  0.0604  0.4509  0.4278
30340W        W47187  11.682   2.007  15.218  0.4257 -0.2627 -0.3721
30341W        W47188   0.578   0.093  13.704 -0.0516  0.0253  0.0648
30342W        W47189   0.612   0.477   1.800  0.3136 -0.2113 -0.2205
30343W        W47190   0.081  13.847  12.708  0.4589  0.0857 -0.1941
30344W        W47191   8.567  14.857  15.833 -0.0514  0.0770 -0.1968
30345W        W47192   6.834  17.550   3.524 -0.0884  0.1253  0.3458
30346W        W47193   7.552  14.995  15.829  0.3862  0.0076 -0.1006
30347W        W47194   1.821  12.522  12.483 -0.0798 -0.2019 -0.1632
30348W        W47195   0.610   5.730  13.188 -0.0005  0.2648  0.0154
30349W        W47196   4.446   0.645  14.710  0.1736 -0.1852 -0.2152
30350W        W47197   7.785   2.075   3.648  0.0816 -0.2901  0.0767
30351W        W47198  13.654   0.891  13.314  0.1914  0.1982 -0.1780
30352W        W47199  12.433   2.287  15.708  0.0311  0.0681 -0.2889
30353W        W47200  10.694  14.734   4.447 -0.2920  0.1673 -0.0996
30354W        W47201  10.400  16.861  12.921  0.1073  0.0898  0.0283
30355W        W47202  15.812  14.458  14.555 -0.0753 -0.1389 -0.0133
30356W        W47203  10.727   2.062  15.694 -0.3798  0.0281  0.1138
30357W        W47204  17.963   5.634  12.602 -0.2221 -0.0166 -0.2373
30358W        W47205   5.476  14.127   5.717 -0.0481 -0.0293 -0.0813
30359W        W47206   6.103   6.603   4.485  0.0292  0.0645 -0.4152
30360W        W47207  16.785  16.286   1.063 -0.0745 -0.3031  0.0742
30361W        W47208   4.600  10.633   0.696 -0.1481  0.0886 -0.5525
30362W        W47209   1.841   4.087  12.804 -0.1894 -0.1426 -0.0828
30363W        W47210   2.803  10.230  11.587 -0.1962 -0.0637 -0.0062
30364W        W47211   6.901  10.727   1.748 -0.1062  0.0528 -0.0468
30365W        W47212  13.942   7.178  14.020  0.2258 -0.1169 -0.0125
30366W        W47213   6.355   1.389  10.572 -0.0255  0.2542 -0.1363
30367W        W47214  13.447  10.254  12.642  0.0024  0.0932 -0.0890
30368W        W47215  15.958   3.717   3.608 -0.5702  0.1334 -0.1246
30369W        W47216   3.430   3.060  13.534 -0.0786  0.1123 -0.1227
30370W        W47217   7.018  17.474  12.526  0.0514 -0.1932 -0.2831
30371W        W47218   4.607  15.355   0.229 -0.1801  0.0646 -0.1931
30372W        W47219   6.035   3.197   3.293 -0.0941  0.3872 -0.2852
30373W        W47220   8.689   7.565  15.538  0.1666  0.0168 -0.0785
30374W        W47221  15.287  12.382   4.717  0.2165 -0.0974  0.2251
30375W        W47222   1.335   1.874  12.434 -0.1570  0.0782 -0.1193
30376W        W47223  17.968   4.541  14.527 -0.2524 -0.3232 -0.0971
30377W        W47224   3.443  16.942   2.516 -0.1464  0.1031  0.1100
30378W        W47225  10.710  15.088   3.479  0.0698 -0.0386 -0.2646
30379W        W47226   5.710  13.101   1.064  0.1119 -0.1461 -0.3200
30380W        W47227   5.326  17.371   1.183 -0.2657  0.0870 -0.0704
30381W        W47228  12.081   7.648   0.339 -0.2416  0.0553 -0.1912
30382W        W47229   3.768   9.991   0.635 -0.5294  0.3627  0.4158
30383W        W47230   3.730  13.961   3.039  0.0258  0.0820 -0.0866
30384W        W47231   6.802  16.288   6.048  0.0701 -0.1002 -0.0061
30385W        W47232  10.492   9.485  15.731  0.0791 -0.1749 -0.5322
30386W        W47233  17.933  14.586   4.208  0.1905 -0.2620  0.0324
30387W        W47234   9.366  16.129   3.105 -0.1825  0.0654 -0.2071
30388W        W47235   5.080  14.202  13.359 -0.0655 -0.2007  0.2728
30389W        W47236  12.841   2.448  15.428  0.0228  0.1206 -0.0768
30390W        W47237  16.874  10.674   3.759 -0.0267 -0.2613  0.0058
30391W        W47238   8.245  15.846   3.368 -0.1419 -0.0031  0.2444
30392W        W47239  13.661  13.307  15.983  0.2101  0.1573  0.2337
30393W        W47240  12.082   3.940   3.211 -0.0509 -0.0755  0.1979
30394W        W47241  10.699   6.088  14.818 -0.0012 -0.1189 -0.1472
30395W        W47242  17.954  10.806  11.786 -0.2618 -0.0329  0.0153
30396W        W47243  13.916  16.345  14.011 -0.1057  0.2187 -0.0682
30397W        W47244   5.198  16.720   0.622  0.0608  0.0897  0.0165
30398W        W47245   3.139   3.347   4.969 -0.0960  0.0300 -0.0387
30399W        W47246   6.784   0.407  14.507 -0.0067 -0.3295  0.0676
30400W        W47247   0.446  16.435   0.739  0.0057 -0.0318 -0.2369
30401W        W47248  11.065   1.088   2.908 -0.3327 -0.1895 -0.1179
30402W        W47249  12.772  17.583   5.336 -0.2445 -0.2379 -0.2217
30403W        W47250  13.473  16.356   2.661  0.2272 -0.1326 -0.0417
30404W        W47251   2.870  11.313   5.373  0.1629  0.2201  0.2452
30405W        W47252  16.340  13.901   2.358  0.1739 -0.0414  0.1880
30406W        W47253   4.766  10.341   2.630  0.1584  0.1408  0.0128
30407W        W47254   2.045   8.701   0.474 -0.1517  0.4158 -0.1120
30408W        W47255   7.154  12.148   3.571 -0.1918  0.0949  0.1732
30409W        W47256  16.444   6.189  14.215  0.0896  0.1895 -0.2265
30410W        W47257  17.145   4.801  14.138 -0.1911  0.1647 -0.1106
30411W        W47258   1.915  17.977   4.952  0.2092 -0.0010 -0.0052
30412W        W47259  12.738   9.985   3.658  0.0035 -0.3959  0.1221
30413W        W47260  11.493   5.900   5.570 -0.0724  0.0039 -0.1914
30414W        W47261   6.379   1.489  13.121  0.0097  0.0250 -0.3842
30415W        W47262  13.459   7.067   2.952  0.0875 -0.0408 -0.0269
30416W        W47263  16.356   9.267  14.373  0.2376 -0.0630  0.2707
30417W        W47264  17.515   2.806   3.054 -0.2471 -0.0256 -0.2602
30418W        W47265   3.749  14.388   1.813 -0.2258  0.1714  0.2928
30419W        W47266  10.343   2.768  12.498  0.0521  0.0186 -0.1540
30420W        W47267   8.097   5.881   3.317  0.0241  0.3944  0.0150
30421W        W47268   9.102   3.004   2.012 -0.1909 -0.5663 -0.1927
30422W        W47269   2.480   2.877   3.733  0.0704 -0.0236 -0.1328
30423W        W47270   6.878  10.518   0.251 -0.1100  0.2811  0.2554
30424W        W47271   2.980  16.236   4.765 -0.1677  0.0435 -0.2443
30425W        W47272  12.907   4.057   4.136  0.2970 -0.1482  0.0536
30426W        W47273   9.785  17.569  15.745  0.0540  0.0312 -0.1633
30427W        W47274  16.891   2.258   4.898  0.0861  0.0521  0.1281
30428W        W47275   3.479   4.379   4.200 -0.1535 -0.3714 -0.2843
30429W        W47276  15.304   9.417   1.105  0.2747  0.1088  0.3451
30430W        W47277   3.502  11.182  16.597  0.0506 -0.2500 -0.1039
30431W        W47278  14.815  11.203   3.710 -0.0962 -0.0976  0.0484
30432W        W47279  13.082  13.457   3.907 -0.3040  0.0107 -0.2016
30433W        W47280  14.681   9.083  13.100  0.2147  0.1035 -0.3600
30434W        W47281   1.589  14.750  15.012  0.0859 -0.0165  0.3031
30435W        W47282  15.051  18.017   2.979 -0.0173 -0.1594  0.0086
30436W        W47283   5.378   8.561  10.756 -0.1869 -0.1300  0.0942
30437W        W47284   9.989   7.941   3.271  0.0360 -0.1885 -0.3084
30438W        W47285   1.909   8.790   4.875 -0.1886  0.1255 -0.0380
30439W        W47286   5.201   6.459   6.321  0.2665  0.0247 -0.2150
30440W        W47287   9.153  13.596  15.453 -0.0017 -0.0869 -0.1061
30441W        W47288  14.348  10.965  11.442  0.0673  0.1097 -0.2865
30442W        W47289  14.171  12.015  14.174 -0.2212  0.0952  0.0169
30443W        W47290  11.729  10.583   3.245 -0.0491  0.2781 -0.1211
30444W        W47291   9.765   8.020   0.969 -0.3045  0.0076  0.0211
30445W        W47292  14.330   3.854  14.334 -0.1134 -0.2127  0.1222
30446W        W47293  14.729   8.297  11.724 -0.1808 -0.0141 -0.0195
30447W        W47294  17.574   7.269  12.555  0.0879  0.1162 -0.1778
30448W        W47295   8.103   2.084   0.058  0.2818  0.0890 -0.2379
30449W        W47296  13.988   5.931   2.667  0.0266 -0.0594 -0.2440
30450W        W47297  12.962   1.400  14.072 -0.1577  0.1402 -0.2994
30451W        W47298   2.844   1.519  14.758 -0.0414  0.5668  0.0224
30452W        W47299  11.214   1.779  12.433 -0.2546 -0.3530  0.1140
30453W        W47300  11.168  15.374   0.272  0.2737  0.0101 -0.0222
30454W        W47301  10.096  16.959  14.601  0.1323  0.2696  0.0482
30455W        W47302  10.966  11.284   1.164 -0.0993  0.0553 -0.0018
30456W        W47303   1.403  10.447  10.653 -0.2289 -0.1430  0.0130
30457W        W47304  11.366   2.401  11.482  0.1906 -0.1575  0.0764
30458W        W47305   7.352  11.263   2.049 -0.2635 -0.3656  0.0310
30459W        W47306  18.072  16.851  13.418 -0.2566 -0.2314  0.0692
30460W        W47307  10.918   8.822  13.413  0.2838  0.0811 -0.0933
30461W        W47308   9.144   3.976   3.728  0.0242  0.2959 -0.0629
30462W        W47309  12.890   1.997   2.577  0.1466 -0.0994  0.0962
30463W        W47310   5.111   0.801   3.482 -0.0892 -0.1624 -0.2019
30464W        W47311  12.142   7.955  15.144 -0.0510 -0.2206  0.2497
30465W        W47312  16.094   5.998  16.458  0.2500 -0.0330  0.0279
30466W        W47313   7.653  14.255   2.185  0.4495 -0.0870  0.3102
30467W        W47314  16.981  16.051  12.453  0.0168 -0.0132 -0.0879
30468W        W47315   7.060   0.961   2.850 -0.1300 -0.0982 -0.1092
30469W        W47316  11.323  16.685  14.284  0.1012 -0.1019 -0.1528
30470W        W47317  16.942   3.377   0.957  0.0513 -0.0237  0.0719
30471W        W47318  16.403  12.928  14.494  0.1753  0.4034 -0.1898
30472W        W47319   0.850   6.533  14.871 -0.2120 -0.0565  0.0787
30473W        W47320  16.781   6.059   4.182  0.2200  0.0443 -0.0171
30474W        W47321  15.949  13.695  14.062 -0.0856  0.0379  0.0943
30475W        W47322   7.370  16.535   4.284  0.0591 -0.2157  0.0876
30476W        W47323   4.512   6.421   1.824 -0.3880  0.0773 -0.3647
30477W        W47324  12.725  10.014   4.153  0.0575 -0.1315 -0.1864
30478W        W47325   1.335   2.557   0.023 -0.0377 -0.1116 -0.0046
30479W        W47326  13.886   4.372  16.323 -0.3310  0.1580  0.3459
30480W        W47327  11.642   2.442   5.460  0.2836 -0.1524  0.0653
30481W        W47328   1.605   4.442  11.973  0.0622 -0.2469 -0.0014
30482W        W47329  13.065  11.114   4.565  0.1185 -0.2380  0.2782
30483W        W47330   6.845   6.409  15.958 -0.4452  0.0560  0.2860
30484W        W47331  13.926  11.339   1.389  0.3168  0.1966 -0.0470
30485W        W47332  14.650   8.136  14.036  0.0445  0.1204 -0.1213
30486W        W47333  14.408  15.654  13.905 -0.2683 -0.0769  0.1617
30487W        W47334  15.761   5.803  12.468 -0.2171 -0.1432 -0.1289
30488W        W47335   5.952   5.327   0.554 -0.4336 -0.0043 -0.1937
30489W        W47336   9.449   4.908   1.622  0.0589  0.0482  0.0937
30490W        W47337   6.061  17.400  16.503  0.0645 -0.3363 -0.0390
30491W        W47338  12.535   2.106   5.724  0.3136  0.1919 -0.0434
30492W        W47339  12.627   4.050   4.883 -0.1077  0.2536  0.1082
30493W        W47340  17.093   8.314   3.154 -0.0909 -0.1000  0.1941
30494W        W47341  13.565  10.280   3.777  0.0364 -0.1222 -0.2207
30495W        W47342   1.768  15.698   5.049  0.0868 -0.0756 -0.0707
30496W        W47343  10.397  13.332   3.512  0.0419  0.3206  0.2063
30497W        W47344  15.968   0.602   1.671  0.0705  0.2620 -0.1040
30498W        W47345  14.110   3.382  11.483 -0.1384 -0.2334  0.1308
30499W        W47346  11.160   7.522  12.262  0.2682 -0.0418  0.2882
30500W        W47347   0.752   6.658  11.632  0.1112 -0.0260  0.1193
30501W        W47348   5.613   3.797  13.334 -0.0812 -0.0055  0.0118
30502W        W47349   4.071   7.291   3.051 -0.0100 -0.0633 -0.0524
30503W        W47350   0.774   3.652   2.186 -0.0379  0.1918 -0.3215
30504W        W47351  16.715   7.602   2.138 -0.0441  0.3296 -0.0763
30505W        W47352  15.460   7.563   0.120  0.1280 -0.1195 -0.2614
30506W        W47353  16.031  10.206  13.675  0.3113 -0.1811 -0.1210
30507W        W47354  15.837  12.279   5.351  0.2250 -0.1502  0.2055
30508W        W47355  15.566  11.659   5.085  0.2116  0.0387 -0.2527
30509W        W47356   0.323   4.986  16.545  0.1367  0.0902 -0.1039
30510W        W47357  14.329  14.168  16.590 -0.0645  0.3781 -0.0829
30511W        W47358  17.233   1.535   4.966  0.0029  0.1861 -0.1898
30512W        W47359   6.267   1.617   2.970 -0.0494 -0.0262  0.1353
30513W        W47360  14.731   9.438   3.087  0.0675 -0.2625 -0.0571
30514W        W47361   0.969  12.930   3.735 -0.0455  0.0387 -0.0468
30515W        W47362   3.465  14.957  14.767 -0.3020  0.0115 -0.0739
30516W        W47363   3.668   4.502  14.496 -0.0197 -0.0894  0.1128
30517W        W47364  11.669  17.840   2.054  0.1352  0.2649 -0.0323
30518W        W47365   6.310  10.533   0.884  0.1630 -0.3719  0.1213
30519W        W47366  10.538  14.401  13.539 -0.0103  0.0527  0.2550
30520W        W47367  11.942  15.657   1.855 -0.0070  0.0493  0.1206
30521W        W47368   5.587  14.999   2.353  0.0906  0.1216 -0.1036
30522W        W47369   0.013  10.061   6.272 -0.2239 -0.4571 -0.2509
30523W        W47370  12.923   0.148   3.890  0.0847  0.2717  0.0120
30524W        W47371   6.561   7.163  15.632 -0.1189  0.0175 -0.2753
30525W        W47372  17.720  10.974  12.626 -0.3862 -0.2823  0.0979
30526W        W47373  11.916   3.292   3.875  0.3118  0.1674  0.0559
30527W        W47374   1.285  16.142   4.353  0.3111  0.2431 -0.1584
30528W        W47375  12.205   2.568   3.763  0.1240  0.0454  0.2707
30529W        W47376  12.936   6.592  14.614 -0.4046 -0.0039 -0.1101
30530W        W47377   8.175  17.981   5.132 -0.1484 -0.0150  0.3744
30531W        W47378   8.088  15.099  15.878  0.3076  0.0973  0.4515
30532W        W47379   4.376   9.823   3.324 -0.2291  0.3078 -0.0044
30533W        W47380  15.980  16.345   4.043 -0.2474 -0.0548  0.0788
30534W        W47381   5.428  12.783   2.371  0.0899 -0.1226 -0.0139
30535W        W47382   5.538   9.581   4.611  0.1162  0.1386  0.0408
30536W        W47383  15.020   0.951   4.649  0.3154 -0.0043 -0.4384
30537W        W47384   9.737  11.411  12.114 -0.0438  0.1484  0.1771
30538W        W47385   7.186   0.563   2.499  0.1298 -0.0496  0.0955
30539W        W47386   7.424  13.229   0.716 -0.1590  0.2530 -0.0989
30540W        W47387  10.457   7.841   0.438  0.0778  0.2683  0.1136
30541W        W47388  13.853   6.367   4.250 -0.3518 -0.2343  0.1362
30542W        W47389   3.491   2.293  16.629  0.1545  0.0830 -0.1189
30543W        W47390   6.293  17.728  14.646  0.1021 -0.1202  0.0947
30544W        W47391   9.002   3.323   1.562 -0.0436 -0.3519  0.2822
30545W        W47392   5.262   8.744  15.133 -0.1907 -0.0973  0.4612
30546W        W47393  11.658  16.516  10.937 -0.0825  0.0671  0.1149
30547W        W47394   9.125   0.068   5.259  0.1006 -0.0105  0.1202
30548W        W47395   4.563  15.341   1.554  0.1878 -0.0451  0.1775
30549W        W47396  17.306   2.977   5.205 -0.0110 -0.2869  0.1501
30550W        W47397  16.257   1.054   0.639 -0.0523  0.0292  0.0898
30551W        W47398  14.147   3.862  12.043 -0.0749  0.0412 -0.1006
30552W        W47399   7.074   8.282  15.666 -0.3042  0.1858  0.0956
30553W        W47400  12.004   9.468   5.970  0.0367 -0.2765  0.0114
30554W        W47401   8.583   1.929   3.355 -0.1927 -0.1047  0.0001
30555W        W47402   5.631  11.275   6.329  0.1592  0.2143 -0.1685
30556W        W47403   6.534  15.201   3.694 -0.0325  0.1516  0.1670
30557W        W47404  11.420  12.471   4.366 -0.0078 -0.1938  0.3330
30558W        W47405   4.574  15.572   4.785  0.0906  0.0383  0.0597
30559W        W47406  11.678  12.275  13.279 -0.2171  0.1980  0.1556
30560W        W47407  13.379  15.117   5.312  0.2458  0.0661 -0.0791
30561W        W47408   3.223  10.923   2.688  0.2440 -0.0898 -0.0944
30562W        W47409  11.415  12.408  13.720 -0.2107  0.1734  0.0209
30563W        W47410  11.799  17.909   5.024  0.1458 -0.3537 -0.0027
30564W        W47411   9.323   6.320  12.573  0.1340  0.0928 -0.0649
30565W        W47412  13.240   0.520   3.651  0.1141  0.2277 -0.1252
30566W        W47413  18.022  15.944  14.895  0.0256 -0.2345 -0.1790
30567W        W47414   3.657   3.837  12.895 -0.0019  0.1338 -0.0895
30568W        W47415  13.257   8.341   5.030 -0.2054 -0.2504 -0.2283
30569W        W47416  11.057   2.003   1.810  0.0847 -0.0496 -0.1502
30570W        W47417   0.486   6.301  12.618  0.1807 -0.2169  0.1797
30571W        W47418   4.207   5.840   0.330 -0.1391  0.1185  0.2879
30572W        W47419   2.989   3.645  16.264 -0.1048  0.1239 -0.2840
30573W        W47420   0.602   8.957   4.854  0.0534 -0.0420 -0.1325
30574W        W47421   7.170   9.732   5.351 -0.0199 -0.0258 -0.1559
30575W        W47422   8.723   4.986   4.433  0.0558 -0.2709  0.1037
30576W        W47423  10.119   8.957   3.370 -0.1668  0.3480  0.2840
30577W        W47424  13.143   0.775  13.356 -0.2239 -0.0593 -0.0276
30578W        W47425   2.411   5.255   6.142  0.1553 -0.0048  0.0187
30579W        W47426  13.973   6.193   5.186  0.2359 -0.1352 -0.0542
30580W        W47427   7.147   6.546   2.058 -0.1622  0.1829  0.2045
30581W        W47428   8.400   0.818  11.635  0.3257  0.0790 -0.0578
30582W        W47429  13.055  14.571  14.494 -0.0110  0.1751 -0.1753
30583W        W47430  14.322   4.029  14.895 -0.1386  0.0591 -0.1702
30584W        W47431   5.860   5.203   2.123  0.1723  0.0578 -0.0748
30585W        W47432  10.594   9.598   1.966 -0.0834 -0.0788  0.0039
30586W        W47433   7.062  14.170   1.313  0.0555  0.0956 -0.0293
30587W        W47434   4.135  15.472  12.119 -0.2205 -0.0955  0.3413
30588W        W47435   2.525  11.464  15.911 -0.3334  0.2434  0.0718
30589W        W47436  11.947  16.712   1.670  0.1060  0.2004 -0.0388
30590W        W47437  11.202  11.948  14.947 -0.2347  0.0610 -0.0961
30591W        W47438   7.535  14.364  13.755 -0.0917  0.1152  0.3840
30592W        W47439  11.876  17.468  11.311 -0.0735 -0.4482 -0.0578
30593W        W47440   8.398   8.307   1.129  0.2136 -0.1361 -0.2873
30594W        W47441   1.400   9.028  16.047  0.0015 -0.3843  0.0954
30595W        W47442   2.227  16.767   1.269  0.1318 -0.0018  0.0036
30596W        W47443   6.838  10.483   3.318 -0.0069  0.2355 -0.0256
30597W        W47444   4.297  10.774   1.608 -0.1483  0.4019 -0.1445
30598W        W47445   1.081   8.004  11.936  0.1071 -0.0498 -0.0289
30599W        W47446   3.340   8.137   3.267 -0.3062 -0.1355 -0.1301
30600W        W47447  15.161  12.551  13.042  0.3237 -0.0598 -0.0117
30601W        W47448  16.179   8.013   3.486  0.0122 -0.2718  0.0150
30602W        W47449   3.943  10.047   4.466  0.1048 -0.0009  0.0257
30603W        W47450  13.003   5.252  12.261 -0.0571 -0.1109 -0.0032
30604W        W47451  15.305   5.034  12.798  0.0802  0.0375 -0.1186
30605W        W47452  15.436  15.947   5.309  0.0698  0.0534 -0.0925
30606W        W47453   9.655  14.663   1.256 -0.1640 -0.3164  0.1672
30607W        W47454  10.767  13.897   5.853 -0.3477  0.0184  0.0949
30608W        W47455   1.039   4.899   5.513 -0.0561  0.1785 -0.0977
30609W        W47456   2.701   3.646  15.761 -0.0994 -0.1217  0.3733
30610W        W47457   7.571   3.405  14.612 -0.3085 -0.1812 -0.0438
30611W        W47458   7.797   2.913   4.683  0.0615  0.0766 -0.2607
30612W        W47459   9.649   6.131  12.947  0.1858  0.0139  0.0421
30613W        W47460   2.958  15.686   3.349 -0.0952  0.1683  0.0641
30614W        W47461   7.946   6.981   1.119  0.0848 -0.0937  0.0207
30615W        W47462   0.258   9.563   0.081 -0.0060 -0.0530  0.3884
30616W        W47463  16.314   1.254   2.529  0.0565 -0.1501  0.2282
30617W        W47464   7.666   4.343  15.099  0.0115  0.0281 -0.3525
30618W        W47465  17.824  11.635   3.835  0.4962  0.0506 -0.4368
30619W        W47466   9.212  13.969  15.013 -0.1111  0.2361 -0.0775
30620W        W47467   4.986  12.950   2.236 -0.3548  0.2962 -0.2486
30621W        W47468   2.651  13.838   0.999  0.0846 -0.0070 -0.2857
30622W        W47469  17.656   4.346   4.732  0.1548 -0.0446  0.0075
30623W        W47470  15.070  17.010  13.950  0.2013  0.4630  0.2402
30624W        W47471  16.679   9.610  14.087  0.1113  0.1263  0.1290
30625W        W47472   8.170   2.198   3.269 -0.0690  0.0419  0.2009
30626W        W47473  10.376   9.350   5.507  0.1803 -0.0707 -0.2209
30627W        W47474  16.759  16.651   1.813 -0.0174 -0.1714 -0.0490
30628W        W47475  13.385  11.212  12.697 -0.1132 -0.0518 -0.0353
30629W        W47476   8.776   5.877  13.775  0.0219  0.1702  0.0852
30630W        W47477  14.592  12.724  12.010  0.0994 -0.0378 -0.0205
30631W        W47478   4.658   2.342  12.578 -0.0600 -0.1107 -0.1672
30632W        W47479   9.989  14.442   0.888 -0.1671  0.3148 -0.1683
30633W        W47480  16.099   4.972  15.122 -0.0314 -0.1649  0.1747
30634W        W47481   7.731  11.117   0.000 -0.2268 -0.1579  0.1183
30635W        W47482   7.994  13.814   3.635  0.0228 -0.1951  0.1209
30636W        W47483  17.852   6.372  12.038  0.0140 -0.1234  0.0436
30637W        W47484   2.250  10.089  16.193  0.1597 -0.1378  0.1272
30638W        W47485   8.992   4.042   5.442  0.0369 -0.0731  0.1356
30639W        W47486  14.631   7.532  15.193  0.0120 -0.1548  0.2336
30640W        W47487  10.399   5.533   2.486 -0.0970 -0.1727  0.0650
30641W        W47488   4.322   8.719  12.512 -0.1781 -0.1701 -0.1042
30642W        W47489   1.990  12.605   2.984  0.0585 -0.0824 -0.0241
30643W        W47490  12.732  16.942   0.141  0.1412  0.0187 -0.4393
30644W        W47491   9.552   8.527  11.861  0.0907 -0.0386 -0.1633
30645W        W47492   0.721  17.281   4.100 -0.0304  0.4819  0.0191
30646W        W47493   6.165  11.766   1.555 -0.4596  0.4421  0.4353
30647W        W47494   9.664   1.803   2.917 -0.1021  0.4699 -0.2089
30648W        W47495  17.948   4.280  13.226 -0.1511  0.3013  0.0961
30649W        W47496   2.276   3.081   6.560  0.1310 -0.2046  0.0159
30650W        W47497  17.578   0.513   0.189  0.0377  0.0117 -0.0275
30651W        W47498  17.688   4.539  15.060 -0.2311  0.0205  0.0342
30652W        W47499  15.267   8.334  11.615  0.1186  0.0258 -0.0672
30653W        W47500  12.008  14.426   2.639 -0.3470 -0.0451  0.0238
30654W        W47501   3.284   3.500  14.317  0.0964 -0.0977 -0.2763
30655W        W47502   0.111   5.166   2.706  0.1817 -0.2896  0.0427
30656W        W47503   7.727  11.699  14.510  0.1182  0.0848  0.0252
30657W        W47504   3.987  13.151   4.096  0.2642  0.0032 -0.1721
30658W        W47505   9.790  12.250   6.334  0.0474 -0.2777 -0.1849
30659W        W47506   9.010   9.176  13.394  0.1746  0.1229  0.1248
30660W        W47507   0.664  16.025   5.767  0.2670 -0.1570  0.2272
30661W        W47508   4.332   3.589  16.520  0.0680 -0.4362  0.1210
30662W        W47509   8.707   0.020   1.843 -0.1636 -0.2819 -0.0656
30663W        W47510   4.229  17.781   3.612 -0.0655  0.0741 -0.4033
30664W        W47511  16.085  13.186  15.635 -0.0884  0.1557 -0.1438
30665W        W47512   2.769  11.433   3.442 -0.0349 -0.2353  0.1040
30666W        W47513   6.433  13.427   2.203 -0.0194  0.0172 -0.1060
30667W        W47514  12.845  15.397   1.890  0.0914 -0.2276  0.2308
30668W        W47515  14.847  15.472   1.967 -0.0429 -0.0238 -0.0696
30669W        W47516   9.469   2.977  15.806 -0.2925  0.1873  0.0124
30670W        W47517  15.149  15.921  12.193 -0.3609  0.0874  0.0786
30671W        W47518   4.354   8.243  12.655  0.1533 -0.2203  0.2502
30672W        W47519  12.973   4.160  16.587 -0.0138 -0.0401  0.1544
30673W        W47520   2.367  12.421   3.587 -0.1044 -0.0869  0.1412
30674W        W47521   0.384   1.530  14.505 -0.1001 -0.0819  0.1898
30675W        W47522   8.520   9.469   4.221  0.0897 -0.1403  0.1176
30676W        W47523   5.235   5.048   4.799 -0.1050  0.2156 -0.2381
30677W        W47524   9.322   2.715   0.079  0.0774 -0.0874 -0.1654
30678W        W47525   4.548  15.018  15.931  0.1081 -0.0845  0.1382
30679W        W47526   7.690   2.153  14.435  0.1199  0.1570  0.0685
30680W        W47527  17.328  12.523   3.002 -0.0681 -0.0327  0.2047
30681W        W47528  12.386  12.364   3.471  0.0258  0.2094 -0.0775
30682W        W47529   2.719  13.233  14.058  0.0011  0.1308  0.1399
30683W        W47530   6.208   7.737  13.353  0.0669  0.0354  0.0890
30684W        W47531   8.406   1.586   1.067  0.1339  0.0120 -0.1851
30685W        W47532  13.088  12.954  14.293  0.1210  0.0722  0.0047
30686W        W47533   2.821  12.725   4.452  0.1568  0.5219 -0.1275
30687W        W47534   5.831  17.700  11.305 -0.1166  0.1017 -0.1574
30688W        W47535  15.604   7.386  14.329 -0.0034 -0.2839 -0.3540
30689W        W47536   9.170   9.802  13.081  0.0051  0.1189 -0.1930
30690W        W47537  12.406  10.335   3.540  0.0512  0.0643  0.3004
30691W        W47538  11.714   3.539   3.380  0.0405  0.2112  0.0638
30692W        W47539  16.278  11.455  16.563  0.0038 -0.1166 -0.2036
30693W        W47540   3.905  14.848   6.200  0.2197  0.1951  0.1101
30694W        W47541   1.839   4.243   0.587 -0.0113 -0.1646 -0.0039
30695W        W47542   9.932  10.582   5.136 -0.1355 -0.0985 -0.2619
30696W        W47543   7.526  15.934  12.518 -0.2148 -0.2102 -0.1205
30697W        W47544   1.289   2.887  13.083 -0.0840 -0.0317  0.1896
30698W        W47545   6.392   7.492   2.864  0.0149 -0.3489  0.0422
30699W        W47546  11.108  14.226  14.940 -0.0750  0.0725  0.0385
30700W        W47547   7.936  16.833  11.424  0.0275 -0.1729  0.1495
30701W        W47548   3.267  16.976  13.070  0.0248 -0.2218  0.0664
30702W        W47549  16.403  12.145  14.513  0.2033 -0.1162 -0.0003
30703W        W47550   9.927   8.012  14.605  0.2310 -0.1379 -0.1921
30704W        W47551   3.875   7.824  15.031  0.1903 -0.0573  0.2517
30705W        W47552   3.750   3.932   5.388 -0.1352  0.0322  0.0473
30706W        W47553   9.549   6.642   4.737  0.3928 -0.1963 -0.6175
30707W        W47554  13.838   1.907  15.662  0.0079  0.0035  0.1481
30708W        W47555   5.550  17.614   5.851 -0.1272  0.0441 -0.1064
30709W        W47556   7.733  17.850   4.734 -0.0727  0.0054  0.1013
30710W        W47557  13.600  11.004   1.686  0.1015  0.2959 -0.0271
30711W        W47558  14.606   5.846  16.079 -0.1065 -0.0330  0.0973
30712W        W47559   6.044  16.857   5.602 -0.1082  0.0421 -0.1471
30713W        W47560   3.457   2.382   3.758  0.0955 -0.3576 -0.0416
30714W        W47561  11.836  11.565  11.467  0.0076  0.0834  0.2178
30715W        W47562   3.400   3.659   3.173  0.0739  0.0381  0.0010
30716W        W47563   3.058  11.583   3.885 -0.0489 -0.1685 -0.2196
30717W        W47564  16.023   2.189  13.715  0.2723 -0.0131 -0.1401
30718W        W47565   1.356  14.679   1.327  0.0668 -0.0861 -0.2642
30719W        W47566  14.369   2.937   3.500  0.0765 -0.1702 -0.0215
30720W        W47567   0.348  10.734  14.280  0.0765 -0.2089 -0.1532
30721W        W47568   5.879   2.530  11.713 -0.1201 -0.1930 -0.2246
30722W        W47569   3.158   4.738   3.277 -0.0376  0.1451 -0.1781
30723W        W47570  14.645   4.886  12.264 -0.2566  0.0821  0.1216
30724W        W47571   1.087   3.099   0.752  0.0226 -0.0555  0.0143
30725W        W47572  13.866  17.667   1.733  0.2131 -0.0648 -0.0140
30726W        W47573   3.504   4.849   4.421  0.1121  0.2542 -0.2711
30727W        W47574  16.272   0.937  16.518 -0.1454  0.3489 -0.0126
30728W        W47575   6.458   3.094  15.475  0.2481  0.0058 -0.1710
30729W        W47576  13.779   9.070  12.107  0.0111 -0.0185  0.0535
30730W        W47577  17.820   2.250  12.686 -0.2513  0.3497 -0.1183
30731W        W47578   6.657   2.335   0.317  0.1811 -0.2097 -0.0076
30732W        W47579   0.674   4.187   4.227  0.0081  0.1625 -0.1363
30733W        W47580   4.706   1.035   2.642  0.0988  0.0286  0.3054
30734W        W47581   3.451  16.427  12.896  0.2851 -0.1916  0.0062
30735W        W47582  18.011   8.423  12.133 -0.1241  0.0134 -0.0546
30736W        W47583   4.906   6.449  11.804 -0.1769  0.1444 -0.0257
30737W        W47584  13.484   8.167   4.609 -0.0932  0.2277 -0.2869
30738W        W47585  10.210   3.691  12.395 -0.1790  0.0833  0.3982
30739W        W47586   6.725  11.610   0.466 -0.1223 -0.4681  0.1834
30740W        W47587  14.836  15.537   0.353 -0.0728 -0.1274 -0.1449
30741W        W47588   3.869   7.557   4.477  0.3593 -0.0367  0.2173
30742W        W47589  16.393  15.161   4.377  0.6720  0.4007  0.1772
30743W        W47590   5.997   5.572  16.124 -0.1507  0.1433 -0.0450
30744W        W47591   3.478  13.493  15.195  0.1076 -0.1556 -0.2202
30745W        W47592   3.178   9.883   4.553  0.3638  0.1229  0.3194
30746W        W47593   4.280  12.602   5.339 -0.0010  0.2812  0.1869
30747W        W47594   3.936  11.449   4.583 -0.1357  0.4370  0.1221
30748W        W47595  12.507  14.667   4.144 -0.0054  0.0984 -0.0241
30749W        W47596   1.046  13.576  15.725  0.0085 -0.0197  0.0783
30750W        W47597   7.048   6.528  11.712  0.6402 -0.2683 -0.1526
30751W        W47598  11.875   4.773   2.402  0.0562 -0.2915  0.0778
30752W        W47599   4.968   0.313   4.107 -0.2416  0.3005  0.2987
30753W        W47600  16.118   8.124   1.555 -0.0855 -0.1015  0.1344
30754W        W47601  17.489   7.762   1.329  0.1631 -0.1304  0.2029
30755W        W47602   1.546   4.937   0.782 -0.2187  0.1311 -0.2492
30756W        W47603   0.854   5.814  16.004 -0.0802  0.1102 -0.1361
30757W        W47604   5.829   8.494   1.108  0.1870  0.1006  0.3573
30758W        W47605   9.860  15.653  14.642 -0.0019 -0.0325  0.1092
30759W        W47606  17.325   1.075   2.462  0.4154 -0.1706 -0.0108
30760W        W47607  15.567   8.593   4.131 -0.0980 -0.0335  0.0109
30761W        W47608   6.779   4.165  12.913  0.2241 -0.2171  0.1345
30762W        W47609   7.169  12.769   0.968  0.0035  0.0544  0.1687
30763W        W47610   7.777  15.148   5.412  0.0321 -0.0787  0.1378
30764W        W47611  10.779   7.879  13.004 -0.1944 -0.0930 -0.1810
30765W        W47612   1.453  11.356  13.228 -0.1025  0.0255 -0.3769
30766W        W47613   1.950   5.282   5.520  0.0621  0.0915  0.2054
30767W        W47614  15.889  16.271   4.541  0.0291  0.0644  0.1886
30768W        W47615  12.126  17.275   4.536  0.0366  0.2487 -0.6109
30769W        W47616  10.325  14.854   4.795  0.1434  0.0496 -0.2642
30770W        W47617  12.041   0.989   3.794  0.0199 -0.0943 -0.2300
30771W        W47618   9.040   5.311   4.684  0.0815 -0.0977 -0.1311
30772W        W47619   7.125   6.008  14.879  0.0916  0.0679 -0.0925
30773W        W47620  14.086  15.257   1.519 -0.2002 -0.0789  0.0522
30774W        W47621   2.410  16.342   3.584  0.0301  0.1361 -0.2180
30775W        W47622   3.630   6.572   0.866 -0.1505  0.0384  0.1969
30776W        W47623  10.679   9.500   4.007 -0.2110  0.1211  0.0935
30777W        W47624  16.859   7.368   5.432 -0.2201 -0.1557 -0.0549
30778W        W47625   4.486   9.997  16.187 -0.0011 -0.0340 -0.0989
30779W        W47626   8.947   4.826  14.471 -0.1282 -0.2486 -0.0509
30780W        W47627  11.109   7.499  14.867 -0.1168  0.0939 -0.0628
30781W        W47628   9.792   0.879   2.719 -0.2042 -0.1278  0.0974
30782W        W47629   9.270   9.171   4.385  0.0909 -0.1860  0.3074
30783W        W47630  14.574   1.312  15.211  0.0832  0.1093 -0.0948
30784W        W47631  11.889   8.985  15.389 -0.0179  0.2463 -0.1501
30785W        W47632   7.852  17.368  13.947  0.1102  0.2265  0.2385
30786W        W47633  14.223  16.312   3.605  0.2468 -0.0554  0.1294
30787W        W47634  17.242   0.982  15.343  0.0657  0.2061 -0.0770
30788W        W47635  13.475   4.498  12.804  0.1827 -0.1554  0.4153
30789W        W47636   4.604   6.051  14.793  0.3613 -0.0044 -0.0561
30790W        W47637   6.734  17.225   0.915 -0.3146 -0.0708 -0.2502
30791W        W47638   2.718  17.160   1.258 -0.2219  0.2672  0.1529
30792W        W47639   1.256  10.000   0.894  0.0212  0.3780  0.1823
30793W        W47640   6.682   9.900  15.013 -0.3443  0.0997 -0.0992
30794W        W47641  17.325   9.263   2.953  0.0910 -0.0766  0.0316
30795W        W47642   4.228   8.893  15.026 -0.0653  0.1762 -0.0627
30796W        W47643   1.824   8.799  11.784  0.0385 -0.0350 -0.1846
30797W        W47644   5.522  12.242  15.347 -0.0763 -0.1527  0.2898
30798W        W47645   6.731   7.312   0.997  0.0622 -0.0279  0.0938
30799W        W47646   7.677  15.876  11.992  0.1615 -0.0215  0.2269
30800W        W47647   9.133  16.527   4.357 -0.2027  0.0908  0.0655
30801W        W47648   7.479  13.237  15.821 -0.0262 -0.0768 -0.1201
30802W        W47649  12.459   9.370   2.570 -0.1790  0.0508  0.0751
30803W        W47650   1.842   0.405   1.542 -0.3101  0.3313  0.1192
30804W        W47651  10.577   9.981   3.944  0.1133  0.2242  0.1290
30805W        W47652  11.828  17.863   5.628  0.2340 -0.0819 -0.0147
30806W        W47653   9.539  15.924   1.793  0.1439 -0.0143  0.0168
30807W        W47654   5.537  16.688   1.896  0.1043  0.0721 -0.0004
30808W        W47655   0.311   4.053  12.965  0.1692 -0.1143  0.1006
30809W        W47656   5.322   9.385  16.469 -0.1604 -0.1258 -0.0619
30810W        W47657  11.295  17.922  12.449 -0.2369  0.2571  0.1450
30811W        W47658  10.187  15.226   0.878 -0.0414  0.1390 -0.0539
30812W        W47659   9.759   8.496  14.338  0.1860 -0.1053 -0.2652
30813W        W47660   0.420  11.934   1.187  0.0699 -0.0545 -0.0017
30814W        W47661   6.046   7.467   4.846 -0.2441  0.1817 -0.0432
30815W        W47662   0.577   7.700  12.810 -0.3339 -0.0178  0.1992
30816W        W47663   1.527  13.387  16.603  0.2327 -0.2428  0.0054
30817W        W47664  14.619   8.174   2.759 -0.1573 -0.1266  0.0674
30818W        W47665   3.505   8.079   2.770  0.0383  0.1100  0.0790
30819W        W47666  14.794   7.144   3.014  0.0819  0.2136 -0.2548
30820W        W47667  15.174   7.812   1.565 -0.0232 -0.4250  0.0124
30821W        W47668  11.342   7.239  15.281 -0.2279  0.0867 -0.0983
30822W        W47669  10.159   5.345  16.279  0.0591 -0.0667 -0.0665
30823W        W47670   5.824   0.075   3.740  0.1104 -0.0626  0.1314
30824W        W47671   8.729   3.129   3.304  0.0181 -0.1949  0.3156
30825W        W47672  14.502  13.788  12.944  0.0929  0.3152 -0.1708
30826W        W47673  15.012  11.379  14.760 -0.0942 -0.1771  0.0454
30827W        W47674  10.290   5.930   5.817 -0.0528 -0.2570  0.1982
30828W        W47675   5.475   3.865  11.890  0.0432 -0.0142 -0.0260
30829W        W47676   3.160   4.227   2.095 -0.3085 -0.1144  0.0181
30830W        W47677  12.505   0.133   2.122 -0.0249 -0.4069 -0.1385
30831W        W47678   4.493   1.792  13.456 -0.0313  0.1379 -0.3378
30832W        W47679   3.331  12.102   0.191 -0.0791  0.0323 -0.1432
30833W        W47680   5.435  17.409  15.707  0.1605  0.3487 -0.0239
30834W        W47681  16.744  12.866   1.522  0.1476  0.0554 -0.3007
30835W        W47682  17.111   7.999  12.134 -0.0769  0.1743 -0.2181
30836W        W47683  12.622   8.988   1.316 -0.3483  0.0698  0.0095
30837W        W47684  17.606   3.019   4.569 -0.0174 -0.2974 -0.1897
30838W        W47685  16.819   0.201   1.788 -0.0759 -0.2303 -0.0762
30839W        W47686   0.292   5.081   1.417 -0.1525 -0.3401  0.2464
30840W        W47687  10.304  15.320  15.638  0.2194  0.1566  0.3541
30841W        W47688  13.616  10.568  14.349  0.1857 -0.1506 -0.0661
30842W        W47689   5.880   0.706  15.297 -0.2008 -0.0806  0.0467
30843W        W47690   9.986  17.003   0.890  0.0375 -0.1063  0.0011
30844W        W47691  16.721   4.257  12.077 -0.0511  0.1671  0.2382
30845W        W47692   1.529   8.684   0.364 -0.2245  0.0275 -0.1675
30846W        W47693   2.345  14.524   3.480 -0.0774 -0.0767  0.0847
30847W        W47694  13.158   0.757  12.294 -0.1005  0.0976  0.0387
30848W        W47695   4.092  15.593  16.031 -0.2258 -0.1180  0.0399
30849W        W47696  17.554  10.758   2.214 -0.2455  0.0527 -0.0598
30850W        W47697  12.689   8.008   3.804  0.1193  0.2238 -0.0441
30851W        W47698   5.065   9.492   4.396  0.1108  0.4206  0.1754
30852W        W47699  12.148  12.283   2.309  0.2130  0.2461  0.0275
30853W        W47700   1.646   5.112   4.054  0.1887  0.0062 -0.1882
30854W        W47701   0.541  13.178  13.395  0.0643  0.2369  0.0763
30855W        W47702  17.770   4.457   5.275  0.2420 -0.2835 -0.0942
30856W        W47703  10.298   5.460  11.783  0.1558 -0.1371 -0.0163
30857W        W47704   4.014   4.469   3.610 -0.0609 -0.4163  0.1550
30858W        W47705  16.508   6.862   1.725  0.0588 -0.0043 -0.0551
30859W        W47706  17.204   0.717  11.366  0.0073 -0.0893  0.0097
30860W        W47707   8.476   5.073   1.638  0.0673 -0.2215  0.2629
30861W        W47708   3.059   5.846   2.989  0.1958  0.0089 -0.0931
30862W        W47709  13.852   4.862  16.441  0.1947  0.0926  0.1584
30863W        W47710   3.315   3.939   4.503 -0.0430 -0.1201 -0.1460
30864W        W47711   4.872   3.579  16.467  0.0651  0.1261  0.1059
30865W        W47712   2.239  16.267   2.776  0.0044  0.1282  0.0530
30866W        W47713   4.223  11.938   0.015  0.0512 -0.1022 -0.1162
30867W        W47714   9.525   4.554   3.444 -0.2092 -0.2465  0.2099
30868W        W47715   6.614  13.583   0.801  0.1386  0.3894 -0.1533
30869W        W47716   3.364   0.176   5.514  0.1230  0.0279 -0.2591
30870W        W47717   9.543   9.407   2.554 -0.0068  0.3840 -0.0421
30871W        W47718   2.497  13.420   6.346 -0.1525 -0.1653 -0.3687
30872W        W47719   4.526  11.924  13.863 -0.0935 -0.0991 -0.0587
30873W        W47720  13.104  14.148  13.153  0.0736  0.1983  0.1979
30874W        W47721   2.379   1.048   0.975  0.1250 -0.1054 -0.0783
30875W        W47722  11.236  11.172  12.358  0.2704 -0.0905 -0.0456
30876W        W47723  16.766   5.510  12.887  0.0572 -0.2746 -0.0488
30877W        W47724   6.112  13.584   3.181 -0.0698  0.1493  0.0761
30878W        W47725   7.231   0.050   2.665 -0.3664  0.0691 -0.3969
30879W        W47726   6.607  10.545  10.901 -0.0184  0.1193 -0.1787
30880W        W47727   2.871  11.901   2.336  0.3324 -0.0821  0.1845
30881W        W47728  15.705   5.010  14.794 -0.0695 -0.2544 -0.3761
30882W        W47729   0.291  17.393  15.868  0.0463 -0.0234 -0.1598
30883W        W47730   4.062  14.874   3.074  0.1945  0.1499  0.2461
30884W        W47731   3.800   6.447   0.015  0.1953  0.1560 -0.1871
30885W        W47732   3.188  13.388  16.386  0.5145  0.3360  0.1869
30886W        W47733  12.095   0.787  11.870  0.0754 -0.0190  0.0104
30887W        W47734  17.240   8.516  13.727  0.2996  0.1399  0.3376
30888W        W47735  13.759  10.126  11.175  0.0186  0.1339  0.2457
30889W        W47736   7.014  15.725  15.208 -0.0609  0.3218  0.0322
30890W        W47737  14.202   8.694   2.173 -0.2440 -0.1394  0.0247
30891W        W47738  13.664   6.063   1.603 -0.2799 -0.3154  0.1175
30892W        W47739  13.617   1.494  14.686  0.0816  0.1156 -0.2467
30893W        W47740   6.301   7.488   1.288 -0.1318 -0.3066 -0.0937
30894W        W47741   8.543  10.199  15.540 -0.0306  0.0103  0.0481
30895W        W47742  14.828  14.254  16.409  0.0556  0.2148 -0.1333
30896W        W47743   3.080  15.717  13.297 -0.3469 -0.4365  0.0344
30897W        W47744  10.170   0.304   2.269  0.0979 -0.0690 -0.0123
30898W        W47745  10.130   8.360   3.011 -0.0013 -0.0885 -0.1705
30899W        W47746   0.439   8.937   0.805  0.0869  0.3233 -0.1719
30900W        W47747  12.605  10.210  15.972  0.3852  0.1700  0.1015
30901W        W47748  16.059  17.147  12.359 -0.0079 -0.0558  0.3848
30902W        W47749  16.528   0.426   2.179  0.1592  0.0765 -0.1681
30903W        W47750   5.338  13.756  15.873 -0.1712  0.2191  0.1111
30904W        W47751  15.159  13.945  12.216  0.0197 -0.0090 -0.1955
30905W        W47752   7.772  10.983   1.586  0.0731 -0.1995 -0.1681
30906W        W47753   8.313  13.698   4.046 -0.0906 -0.0231 -0.0958
30907W        W47754   1.895  10.359   3.252  0.0516 -0.0357  0.1718
30908W        W47755   8.197  10.959  16.482 -0.1049  0.0259 -0.2698
30909W        W47756   4.340   7.843   5.114 -0.1481 -0.0475 -0.0076
30910W        W47757   9.208   3.835  12.862  0.0394  0.3992 -0.1623
30911W        W47758   1.653  16.196  13.854  0.2878 -0.0179  0.0776
30912W        W47759  13.464   3.903   1.933  0.1154  0.1451  0.2999
30913W        W47760   7.573  11.614   5.780  0.4032  0.0159  0.0843
30914W        W47761  11.804  16.851  14.729 -0.1024 -0.0518  0.1969
30915W        W47762   7.889  16.021  16.062  0.0917 -0.1363 -0.1583
30916W        W47763  12.551   2.598   1.570  0.0634  0.0429 -0.0290
30917W        W47764   8.870  12.012   0.477  0.3558 -0.3137 -0.1030
30918W        W47765   7.380   1.619  11.478 -0.0039 -0.0296  0.0752
30919W        W47766  16.002   1.292   1.131 -0.2146 -0.1351  0.1832
30920W        W47767  14.850   4.330  16.479  0.0757 -0.1248  0.1189
30921W        W47768  16.590  15.255   4.833  0.2412  0.1109  0.2548
30922W        W47769   4.680   9.716  14.068  0.0475  0.0953 -0.0245
30923W        W47770  12.939  15.608  14.713 -0.1499  0.1665 -0.1062
30924W        W47771  15.639  11.895  15.727 -0.1269 -0.0805  0.2398
30925W        W47772  14.209   9.101   5.577 -0.2572  0.2584  0.0768
30926W        W47773   8.558   4.016   4.449 -0.0189  0.0846 -0.1382
30927W        W47774  16.213  18.036  11.973  0.1374  0.1611  0.2291
30928W        W47775  17.808   9.713   4.656 -0.1237 -0.1837 -0.1657
30929W        W47776  12.653   1.397   2.463  0.1962  0.2406 -0.1051
30930W        W47777   3.556  17.436   4.434  0.2127 -0.1899 -0.3455
30931W        W47778   3.622  10.380   0.976 -0.3951 -0.0243 -0.0048
30932W        W47779  16.053  12.639  10.520 -0.2016  0.0732 -0.2764
30933W        W47780  10.368  17.657  11.585  0.2623 -0.0577 -0.0546
30934W        W47781   1.519   0.680   0.117 -0.4020  0.1599  0.1938
30935W        W47782   3.131  14.374  16.252  0.1879 -0.0948  0.1747
30936W        W47783   3.582   5.265  15.059 -0.2355  0.2461  0.1964
30937W        W47784   6.473  14.880   5.928  0.1403 -0.2469  0.2690
30938W        W47785   9.494  16.782  13.854 -0.0258 -0.2722 -0.0544
30939W        W47786  16.853   2.737  16.207 -0.2449  0.0768  0.0304
30940W        W47787   8.018   0.589  12.065 -0.0181 -0.0671  0.1641
30941W        W47788   5.765   6.900   0.047 -0.0110  0.0522 -0.0362
30942W        W47789   8.068   5.333  15.239  0.1577  0.0309  0.3358
30943W        W47790   1.958   1.976  12.184  0.0719 -0.0098  0.0181
30944W        W47791   1.660  17.365   4.211  0.0079  0.0862 -0.1814
30945W        W47792   4.882   1.154   2.006  0.2284  0.0013 -0.0730
30946W        W47793   8.419   7.958   3.368  0.1756 -0.0568  0.0406
30947W        W47794   8.707   6.216  16.340 -0.0579 -0.0328  0.1261
30948W        W47795   5.378  18.046   3.950 -0.1908  0.1433 -0.0308
30949W        W47796  17.197  16.994  16.366 -0.5046 -0.0457  0.1669
30950W        W47797  11.840  15.944   0.956  0.0652  0.1586  0.0277
30951W        W47798  17.316   2.190  13.517 -0.0385 -0.0339 -0.0339
30952W        W47799  10.661  16.683   0.040  0.0211 -0.0854 -0.1941
30953W        W47800  12.017  11.841   2.107  0.2803 -0.1778  0.0056
30954W        W47801  17.973  13.077   3.513  0.1801 -0.1151  0.0916
30955W        W47802  12.317  13.623   5.525 -0.0218  0.5725 -0.0226
30956W        W47803   3.408   3.904  16.383  0.0079  0.1862 -0.3637
30957W        W47804   0.042  12.553   3.416  0.0066 -0.0767  0.0539
30958W        W47805  12.528   4.213   0.066  0.0864  0.1138 -0.0160
30959W        W47806  17.540  17.297   4.520 -0.2108 -0.0810  0.0343
30960W        W47807   6.365   5.772  16.400 -0.1911  0.0686 -0.1902
30961W        W47808  12.338  18.052  12.112  0.1504 -0.1427  0.3186
30962W        W47809   6.581  12.268   3.505  0.0262 -0.2409  0.1885
30963W        W47810  15.860   3.404  13.332 -0.1551 -0.0491  0.1353
30964W        W47811  12.689   4.698   1.319 -0.2143  0.1798 -0.3331
30965W        W47812   9.817  15.012  14.586  0.1729 -0.3695  0.0206
30966W        W47813   9.578  11.344   3.305 -0.2441 -0.1494 -0.1030
30967W        W47814   7.244   9.050   0.728  0.0143  0.1094 -0.2021
30968W        W47815   7.297   6.146   2.242 -0.1132 -0.0256  0.2048
30969W        W47816  11.113   3.026   1.223 -0.1229  0.0702  0.1468
30970W        W47817  10.287  14.507   5.302  0.2014  0.1632 -0.1684
30971W        W47818   8.346  15.661  13.729 -0.0504 -0.1636  0.0272
30972W        W47819   2.274   7.304   3.763  0.0841  0.0042  0.1149
30973W        W47820  17.774   9.366   0.015 -0.0889 -0.0203  0.1760
30974W        W47821  10.073  11.003  16.540 -0.3991  0.0594  0.0054
30975W        W47822  15.911   0.353  12.117 -0.2977  0.1993  0.0887
30976W        W47823   8.397  13.202   4.998  0.0777 -0.0578  0.1504
30977W        W47824   8.545   2.709   2.973  0.3255  0.0327 -0.0417
30978W        W47825   6.041   9.454  14.510 -0.0969 -0.0953 -0.0277
30979W        W47826  16.327  17.028  16.245  0.0304 -0.1723  0.1502
30980W        W47827   1.214  13.556  14.348  0.2347 -0.1395  0.0977
30981W        W47828   9.389  13.518  16.379  0.0490 -0.0912 -0.1219
30982W        W47829   5.124  13.123  13.164  0.0109  0.1920  0.1734
30983W        W47830  14.396   1.433  14.299 -0.3197 -0.0422 -0.3678
30984W        W47831   7.819   4.603   3.219 -0.2097 -0.0205 -0.0490
30985W        W47832   4.953  10.049  15.448  0.0819  0.2225 -0.3379
30986W        W47833  14.726   2.535   2.626 -0.2662 -0.0557 -0.1719
30987W        W47834   3.632   3.365  12.759  0.0555 -0.2440  0.5480
30988W        W47835   7.454   2.473  12.022 -0.1234 -0.0979 -0.1548
30989W        W47836   3.819   4.248   2.285 -0.0684  0.1983  0.2559
30990W        W47837   6.240   8.473  13.030  0.2395 -0.0094 -0.1090
30991W        W47838  11.240  13.753   0.913  0.1691 -0.0094 -0.1073
30992W        W47839  16.964   8.779   3.448 -0.0576 -0.1267  0.0823
30993W        W47840   4.519  16.622   0.860  0.0162  0.1587  0.0618
30994W        W47841  10.709   9.147   1.784 -0.0542  0.0695 -0.1498
30995W        W47842   8.643   4.710   2.535  0.2518 -0.1140 -0.1510
30996W        W47843   6.342   8.219  13.903  0.1154  0.1330  0.0193
30997W        W47844  13.385   7.487   1.311 -0.1324 -0.0601  0.1890
30998W        W47845  10.760   1.705   0.903 -0.0883  0.1368 -0.1171
30999W        W47846   2.156   3.238   5.211 -0.4502 -0.0905 -0.1520
31000W        W47847  13.220  17.599  12.618 -0.0857 -0.0406  0.0387
31001W        W47848  13.614   4.395   4.486 -0.1875  0.1333 -0.0843
31002W        W47849  15.812   4.182  13.786  0.1739 -0.1803  0.0423
31003W        W47850  13.319  13.166   3.017 -0.0919  0.1780  0.0771
31004W        W47851  16.242   3.608  14.757 -0.2361 -0.0869  0.1115
31005W        W47852  11.777   1.287  13.977  0.1621 -0.0457 -0.0019
31006W        W47853   5.871   0.889  13.762 -0.2760  0.1500  0.2078
31007W        W47854  15.628   8.141   0.854  0.1260  0.0537 -0.1968
31008W        W47855  12.073   9.366  11.246 -0.0881  0.3621 -0.5910
31009W        W47856   5.088  10.477   3.096 -0.1205 -0.0111 -0.1831
31010W        W47857  16.348  16.228   5.260 -0.3011 -0.0361  0.4310
31011W        W47858  13.484   2.340   0.072  0.1428  0.0632 -0.1327
31012W        W47859   4.545  14.820   2.171  0.1408 -0.0188  0.1312
31013W        W47860   9.858  17.183   5.212  0.2010  0.0082  0.1551
31014W        W47861   9.507   9.113  16.014  0.0638 -0.0381 -0.0648
31015W        W47862   9.212  17.473  15.127  0.0840  0.1699  0.0967
31016W        W47863  16.647  17.321  11.297  0.5615  0.1234 -0.0392
31017W        W47864  14.490   5.347  11.383 -0.2315  0.0148  0.1435
31018W        W47865   8.546   0.299   5.136  0.0911 -0.0243  0.0069
31019W        W47866   4.572   3.736  11.740  0.1222 -0.0371  0.2182
31020W        W47867   4.285   5.797  11.990  0.0060  0.1109 -0.1840
31021W        W47868   0.555   3.535  12.896 -0.3002 -0.0846 -0.0239
31022W        W47869   3.634   4.677   5.835  0.0912 -0.3632  0.0370
31023W        W47870   5.806  13.825   0.220  0.1293  0.2707 -0.1352
31024W        W47871   0.325   8.223  16.211 -0.0126 -0.0164  0.0734
31025W        W47872  17.780  10.073  12.683  0.0271 -0.2894 -0.0594
31026W        W47873  15.478   8.387   5.083 -0.4431 -0.0004 -0.1503
31027W        W47874   7.548  12.765  12.804 -0.2408 -0.3053 -0.0293
31028W        W47875  14.286   4.943  16.154  0.2651 -0.1903 -0.3054
31029W        W47876  16.929  10.683  11.756 -0.2844  0.1257  0.0982
31030W        W47877  11.069   2.406   2.557 -0.0182  0.0668 -0.0166
31031W        W47878   3.505  10.635   4.194  0.3305 -0.0762  0.2384
31032W        W47879  16.834   3.199   5.166 -0.2126 -0.1134 -0.0074
31033W        W47880  17.057  17.114  13.283  0.2583 -0.3081 -0.3949
31034W        W47881   6.149  12.581  14.553  0.3714  0.2222  0.0563
31035W        W47882   9.269  12.983  16.418  0.3799 -0.0665 -0.0570
31036W        W47883   6.132   2.331  16.618  0.2535 -0.4250  0.4078
31037W        W47884   9.742  16.087   5.116 -0.1499  0.1333 -0.0639
31038W        W47885  10.500  12.700  13.860  0.1114 -0.1228 -0.0515
31039W        W47886   9.331  15.243  15.716 -0.1050 -0.0763 -0.1792
31040W        W47887  15.477   8.279  14.125 -0.1353  0.2151  0.0640
31041W        W47888  10.357   4.211  13.318 -0.1548  0.1577  0.1444
31042W        W47889  14.235   4.347  15.646 -0.2032 -0.0574  0.1188
31043W        W47890  11.430   2.462  13.900 -0.0054  0.0980  0.0999
31044W        W47891   0.431  14.013  16.529 -0.2403 -0.2148  0.0126
31045W        W47892   1.628  10.823  12.010  0.0086  0.1568 -0.0168
31046W        W47893   5.760  14.801  15.029 -0.0233  0.0348  0.0719
31047W        W47894   7.304   2.842   4.522  0.1508 -0.2658  0.1490
31048W        W47895  12.412   8.955   5.166  0.1579  0.0786 -0.2989
31049W        W47896  16.828   0.517  14.835  0.1729 -0.1453  0.0992
31050W        W47897   4.676   4.586   1.392 -0.2278  0.0740  0.0469
31051W        W47898   9.054  15.633  13.200 -0.0019 -0.0706 -0.1464
31052W        W47899   6.836  16.311   4.480 -0.1720 -0.0989  0.3490
31053W        W47900  13.341   1.123   2.502 -0.2312  0.1603 -0.0758
31054W        W47901  10.314  13.301   0.760  0.0835  0.2597  0.1887
31055W        W47902  16.251  15.258   3.148 -0.2066 -0.0929  0.3175
31056W        W47903  14.654   5.482  14.063 -0.1177 -0.0995 -0.0288
31057W        W47904  14.915  16.284  16.366  0.1128 -0.0414 -0.2374
31058W        W47905   4.244  16.994   4.956 -0.0219  0.0157  0.0338
31059W        W47906  15.586   6.824   2.310  0.0754 -0.3753 -0.0731
31060W        W47907  10.383  10.682   4.273  0.3007 -0.1640 -0.3798
31061W        W47908  12.583  12.487   4.982 -0.0892  0.0872  0.0279
31062W        W47909   7.903  14.690   0.203  0.2165  0.0599 -0.2401
31063W        W47910  11.053   5.590   1.992  0.2020 -0.0472  0.2664
31064W        W47911  10.172   1.226   4.511  0.2112  0.0170 -0.0050
31065W        W47912   7.145   9.351   4.887  0.0436 -0.1731 -0.1464
31066W        W47913  17.970   7.640  15.872  0.0103  0.1023  0.3134
31067W        W47914   7.644   3.532   0.754  0.2387  0.2061  0.1838
31068W        W47915  14.045   1.856  12.628  0.2088 -0.1063  0.1752
31069W        W47916   2.170   7.343   0.208 -0.0536 -0.0868 -0.0396
31070W        W47917   1.620   2.725   5.414 -0.1563 -0.3448 -0.0364
31071W        W47918   9.702  16.591  11.465 -0.2553  0.2100  0.1636
31072W        W47919  15.331  12.827  12.595 -0.1170 -0.1328 -0.2058
31073W        W47920  15.592  10.548  12.918  0.1194  0.1604 -0.2027
31074W        W47921  15.482  12.352   5.827 -0.1061  0.2113  0.1846
31075W        W47922  15.179   5.082   3.354  0.2129 -0.1063  0.1837
31076W        W47923   1.350  15.908  15.918 -0.0460  0.0987 -0.1157
31077W        W47924   1.171   6.178  13.712  0.2649  0.0111 -0.0292
31078W        W47925   7.174   7.127   5.344 -0.1984  0.1560  0.1324
31079W        W47926  16.052  12.564  16.620 -0.2650  0.1929 -0.0011
31080W        W47927  18.046  16.669   4.211 -0.0499  0.4634  0.1848
31081W        W47928   9.023  16.718   5.616  0.0441  0.1366 -0.1375
31082W        W47929  15.235   0.972  14.885  0.0695 -0.5035 -0.1729
31083W        W47930  18.068  14.902   0.758 -0.0719  0.0525  0.0242
31084W        W47931   5.031   6.347  14.230 -0.1012  0.0289 -0.0951
31085W        W47932   7.957   7.675   2.342 -0.1241 -0.0173 -0.1696
31086W        W47933   5.623  12.618  14.608 -0.3437  0.0147 -0.3126
31087W        W47934   3.668  12.089   0.872 -0.3476  0.2555 -0.1211
31088W        W47935  13.506  11.442   5.267 -0.0474  0.1538 -0.2885
31089W        W47936  16.360  16.273   3.697 -0.0573 -0.0051 -0.1511
31090W        W47937   9.390   0.127  12.279  0.1505 -0.1716 -0.0211
31091W        W47938   7.248   5.973  15.856  0.0516  0.3157  0.1860
31092W        W47939   0.601   4.674   4.620 -0.0472 -0.1230  0.2827
31093W        W47940  10.979  17.453  16.255  0.2018 -0.0595  0.0465
31094W        W47941   5.103   4.624  15.664 -0.2547 -0.0030  0.1250
31095W        W47942  10.638  11.036   0.019  0.1777  0.2998  0.0724
31096W        W47943  16.452  14.793  12.875 -0.0304  0.1414 -0.0268
31097W        W47944  12.426   9.226  13.553  0.2888 -0.0232 -0.0768
31098W        W47945  14.908   5.720  12.295 -0.2769  0.1303  0.2163
31099W        W47946   5.822   0.423   2.806  0.3394 -0.2160 -0.2584
31100W        W47947  12.093  15.089   2.394  0.0324 -0.0371 -0.0446
31101W        W47948  12.308   7.225   3.282  0.1352 -0.0023 -0.2739
31102W        W47949   6.213  14.880  12.168 -0.1330 -0.0276  0.1049
31103W        W47950   5.255   0.981  11.258 -0.3626  0.3476  0.0554
31104W        W47951  16.639  14.301   2.350  0.0378 -0.0113 -0.0113
31105W        W47952  17.466  15.580   0.933 -0.1518 -0.1499 -0.0073
31106W        W47953  16.434   3.835   3.953  0.2493  0.1780 -0.0361
31107W        W47954   7.809  13.287  16.200  0.0217  0.0409 -0.2048
31108W        W47955  16.470  10.149   1.817 -0.3981 -0.1761 -0.0050
31109W        W47956  11.855   4.129  12.128 -0.0810 -0.0025  0.2043
31110W        W47957   3.748  17.193  13.155  0.2342 -0.0919  0.0439
31111W        W47958   8.156   0.517   0.554 -0.2205 -0.2585 -0.1933
31112W        W47959   0.887  14.670   1.674 -0.1543 -0.2753 -0.1049
31113W        W47960  14.372   3.987   2.044  0.0882  0.1107 -0.0750
31114W        W47961  14.659   8.249   2.298 -0.1333 -0.0808  0.1288
31115W        W47962  10.735  16.054   0.768 -0.0714 -0.4276  0.2783
31116W        W47963   7.944  18.018   2.933  0.0009 -0.3496  0.0506
31117W        W47964   8.895  14.398  14.400 -0.1688 -0.0654  0.2668
31118W        W47965  11.568   2.604  14.365  0.0031  0.2764 -0.1264
31119W        W47966  18.063  12.957   1.214  0.3068 -0.0532  0.0051
31120W        W47967   3.213  10.604  12.419  0.1368 -0.1117 -0.1026
31121W        W47968   0.647  16.846  16.604 -0.0725 -0.0159 -0.1558
31122W        W47969   3.120   2.124   3.296  0.0644  0.2241  0.2274
31123W        W47970  16.596  13.136  13.650 -0.2565  0.0746  0.3087
31124W        W47971  16.250  15.129  12.535  0.1243 -0.2938 -0.0152
31125W        W47972   3.199   5.090   6.004  0.0875 -0.2152  0.0187
31126W        W47973  10.660   0.204  14.682 -0.2183 -0.1433  0.1013
31127W        W47974   4.866  12.317  13.767 -0.0498 -0.0003 -0.0266
31128W        W47975   2.226  10.708  13.325  0.2627 -0.4594 -0.2443
31129W        W47976  15.516   1.059   4.653  0.4084  0.0405 -0.1274
31130W        W47977  11.012   0.263  16.645  0.2472  0.0275 -0.1207
31131W        W47978   1.231  13.088   0.871  0.0894  0.0388 -0.0751
31132W        W47979  12.194  16.409   4.729  0.0239 -0.2870  0.0434
31133W        W47980  11.700  14.002   3.265 -0.0984  0.3096  0.1335
31134W        W47981   2.556   0.297   2.926  0.2225 -0.1805 -0.2508
31135W        W47982   4.631  12.454  16.168  0.1092 -0.3770  0.0248
31136W        W47983  16.609  14.717   5.041  0.0542 -0.1701 -0.2053
31137W        W47984  12.688  16.531  14.543 -0.2547  0.0473  0.0977
31138W        W47985  17.886  15.469  11.704  0.2932  0.1616 -0.1743
31139W        W47986  11.344   5.847   3.520  0.0943  0.2728 -0.0314
31140W        W47987  14.672  13.667   4.292 -0.0993  0.0281  0.1649
31141W        W47988   1.475   6.013  15.386  0.2209 -0.0985 -0.1549
31142W        W47989  17.556  11.053   5.194  0.1841  0.1695  0.1317
31143W        W47990  16.702   3.616  13.494 -0.1417  0.1281 -0.1684
31144W        W47991   2.323   5.671  12.235  0.0876  0.1439  0.0003
31145W        W47992   9.626  17.498   0.909  0.5015 -0.2434  0.0325
31146W        W47993   2.994  10.842   5.595 -0.0919 -0.2874 -0.0490
31147W        W47994   6.745  15.804  11.820 -0.0984 -0.0980  0.1524
31148W        W47995   6.527   4.871   1.302  0.0385 -0.1897 -0.3353
31149W        W47996  16.124  10.695  12.386 -0.0046  0.0528 -0.1990
31150W        W47997  12.942   5.261   3.555  0.1310  0.0187 -0.2047
31151W        W47998   5.500  15.069  13.692 -0.4237 -0.1407  0.2147
31152W        W47999  11.654   5.237   4.677  0.2075  0.1800 -0.2099
31153W        W48000   5.267  14.708   1.113  0.1942  0.0678 -0.0227
31154W        W48001  10.663   2.446  15.056 -0.1887  0.0684 -0.1406
31155W        W48002  16.955   5.499   1.865  0.0204  0.0357 -0.1996
31156W        W48003  16.486  11.625   5.163 -0.0143  0.5083  0.1514
31157W        W48004   5.143  16.963   5.417 -0.2905  0.1015 -0.1509
31158W        W48005   7.835   3.309   5.129  0.1881 -0.0626 -0.0279
31159W        W48006   4.081   8.127   0.446  0.0954 -0.2343 -0.1035
31160W        W48007  15.072   5.537   0.713  0.0481 -0.0082  0.0945
31161W        W48008  14.048  16.530  13.615 -0.2297  0.4078 -0.3228
31162W        W48009   2.939  14.305  13.658 -0.2712  0.1287 -0.0916
31163W        W48010   8.106   5.049  16.252  0.0970  0.0303  0.0366
31164W        W48011   7.380   4.103   0.180 -0.0091 -0.0711 -0.0031
31165W        W48012   5.879   2.796   4.153 -0.3147  0.1303  0.3678
31166W        W48013   1.050   0.071  11.310  0.0052 -0.0440 -0.0703
31167W        W48014   6.577   3.155   2.038  0.1275 -0.2298 -0.2134
31168W        W48015   5.337   3.889  14.960  0.1136  0.1811  0.1317
31169W        W48016   6.227  14.621  13.583 -0.1990 -0.0404  0.1000
31170W        W48017   2.342  17.830  12.619 -0.3189  0.1340  0.3356
31171W        W48018  17.920   4.166  11.370  0.2528 -0.0233  0.1662
31172W        W48019   0.178   1.687  14.922  0.0466  0.1971  0.2403
31173W        W48020  12.073   4.293   2.374  0.0009  0.0342 -0.3135
31174W        W48021   9.546   3.638   1.726 -0.0895  0.1979  0.0307
31175W        W48022  11.331  12.714  13.200 -0.1712 -0.0179  0.3447
31176W        W48023  13.455   6.785   4.822 -0.0872  0.3027 -0.0843
31177W        W48024   9.680   8.134  12.182  0.2281 -0.2478  0.1679
31178W        W48025   4.127   5.250  15.087 -0.1077  0.1900  0.0401
31179W        W48026   8.404  14.204  13.991  0.1121  0.0093 -0.0435
31180W        W48027  12.607  15.100  14.441 -0.1112 -0.2485 -0.0237
31181W        W48028   0.596   4.168   1.883 -0.1109  0.1012  0.2719
31182W        W48029   1.259   4.981  12.776 -0.2042  0.0174 -0.0506
31183W        W48030  12.939  11.315   0.563  0.1731  0.3219  0.0595
31184W        W48031   1.556   8.364   3.488 -0.3426 -0.0164  0.1539
31185W        W48032  17.314   8.613   4.085 -0.0023 -0.1430  0.2677
31186W        W48033  11.398  16.158   3.044  0.0132 -0.3357  0.0161
31187W        W48034  14.343   7.377   5.092 -0.3735  0.1844  0.2255
31188W        W48035   5.446   3.310  11.990  0.0663  0.2012 -0.0587
31189W        W48036  10.824  17.407  15.052 -0.1259 -0.5553 -0.4007
31190W        W48037  10.729   6.203  12.207  0.1417  0.0710  0.1030
31191W        W48038   9.354  13.961  16.614  0.2480  0.0009 -0.1038
31192W        W48039   5.573  15.334   3.318 -0.0778  0.0700 -0.0346
31193W        W48040   1.864   8.919   1.139 -0.0866  0.0019 -0.1663
31194W        W48041   9.687   5.326   3.083  0.0827 -0.2364  0.2416
31195W        W48042   2.774  14.818  12.771 -0.0985 -0.0179 -0.1469
31196W        W48043   2.171   9.848   4.623 -0.1546  0.0124  0.0443
31197W        W48044  11.190   8.057   0.493  0.0677 -0.4238  0.1071
31198W        W48045   5.249  12.569   1.306  0.0322  0.1508 -0.0358
31199W        W48046  13.246  10.224  13.125  0.0690  0.2890 -0.4151
31200W        W48047   5.567  16.067  13.745 -0.2467  0.0765 -0.0682
31201W        W48048  11.918   1.611   5.278  0.1627 -0.1033  0.1106
31202W        W48049   9.785   3.398  15.784  0.0495 -0.0986 -0.1022
31203W        W48050   9.320  16.013   2.603  0.0451 -0.0126 -0.0204
31204W        W48051  10.541   7.158  15.068 -0.1832 -0.1999  0.4801
31205W        W48052   1.918   8.473  16.651 -0.1540 -0.1551 -0.0116
31206W        W48053  10.500  15.800  15.601 -0.0274 -0.1720  0.0175
31207W        W48054   0.752   9.246   4.483 -0.0076 -0.1052 -0.1984
31208W        W48055   3.948  13.642   3.625  0.2758 -0.1110  0.2323
31209W        W48056   9.577  16.769   0.721 -0.1043 -0.2264  0.2691
31210W        W48057   1.657  11.837   0.093  0.1759  0.1761  0.2204
31211W        W48058  12.547  12.621   0.624 -0.2730 -0.0830 -0.0565
31212W        W48059   5.824   4.140   2.751 -0.1909 -0.0370  0.0014
31213W        W48060   5.947  12.332  12.687 -0.2869  0.2505  0.0196
31214W        W48061   0.657  14.083   1.737  0.0602 -0.0641  0.0990
31215W        W48062   8.586   9.248   3.135  0.0839 -0.1578  0.0071
31216W        W48063   6.893   5.233  11.627  0.3095  0.2914 -0.1812
31217W        W48064   7.384   3.814   3.643  0.1523  0.0103  0.0528
31218W        W48065   1.201   4.955   1.635  0.1440  0.2215  0.2411
31219W        W48066   9.178   5.074  12.457  0.0942  0.3023  0.3353
31220W        W48067   3.079  14.179   4.067 -0.2288  0.0690 -0.0430
31221W        W48068   1.369   6.839   3.631  0.0072  0.0649  0.2094
31222W        W48069  16.061  17.779  12.968  0.1352 -0.2109 -0.3186
31223W        W48070   0.422  16.827  14.598  0.0239  0.0820  0.0130
31224W        W48071   9.473   5.680  13.046  0.2087  0.2893 -0.1110
31225W        W48072  14.158  11.902   3.850 -0.0120 -0.0147 -0.1852
31226W        W48073   5.061  12.367   4.409 -0.0871 -0.2138  0.0212
31227W        W48074   9.317   6.835   1.444 -0.0816  0.1672  0.0314
31228W        W48075  17.231   2.017   3.506  0.0777 -0.0553 -0.2993
31229W        W48076   5.289   3.297   5.423  0.0908 -0.0472 -0.0618
31230W        W48077   2.768   0.675   0.643  0.0633 -0.2722 -0.2404
31231W        W48078  14.275   9.585   0.854 -0.1225  0.2957  0.1314
31232W        W48079  16.324   4.297   4.648  0.0981  0.1199  0.0361
31233W        W48080  16.392  13.876   1.198  0.4437  0.2014 -0.0536
31234W        W48081  12.271   9.323  15.688  0.0278  0.3704  0.0034
31235W        W48082  10.260   0.528  16.405 -0.1326 -0.1317 -0.0511
31236W        W48083  14.014  14.387  13.733  0.0101  0.0891  0.3053
31237W        W48084  15.063   3.600   5.933 -0.0508  0.0335  0.0076
31238W        W48085   4.435   1.394  11.788 -0.4240 -0.1676  0.1578
31239W        W48086  11.318  14.898   4.439  0.0030 -0.0438 -0.0012
31240W        W48087  17.977  15.187   3.808  0.1151  0.0428 -0.0387
31241W        W48088  16.217   2.813  11.453 -0.0334 -0.2592  0.1094
31242W        W48089   5.992   6.818   2.643 -0.0409 -0.0707 -0.0811
31243W        W48090   5.038  11.060   1.808 -0.2002  0.0198 -0.1250
31244W        W48091  11.016  12.300  15.217 -0.3526 -0.0744 -0.0794
31245W        W48092   3.178  16.310  11.696 -0.0993  0.0868  0.0948
31246W        W48093  11.058   0.758  12.648  0.0694 -0.0611  0.0738
31247W        W48094   3.081   3.440   4.394 -0.4331 -0.0123  0.1072
31248W        W48095  11.135   2.981  15.618 -0.1703 -0.2248 -0.4168
31249W        W48096   3.982   8.982  13.008  0.1974  0.3233  0.2672
31250W        W48097   3.887   9.263   1.737  0.3185 -0.1402  0.0527
31251W        W48098  11.142   8.932   0.314 -0.3410 -0.1655  0.0402
31252W        W48099   9.936   0.058   3.628 -0.1565 -0.1404 -0.0475
31253W        W48100   1.219   6.511   5.031 -0.0680 -0.0931  0.2620
31254W        W48101   8.426  11.630   3.660 -0.1289 -0.0003  0.0804
31255W        W48102   0.118   6.948  13.304  0.2325 -0.3025 -0.0984
31256W        W48103   5.198   6.139   0.593 -0.3538 -0.1150  0.0583
31257W        W48104  17.399   3.685   2.551 -0.2061 -0.1670 -0.1176
31258W        W48105   8.045  15.352   1.534 -0.2711 -0.1211 -0.1232
31259W        W48106  14.110  12.687   0.963  0.4578  0.1058 -0.1792
31260W        W48107  12.503  14.016   1.655  0.0978  0.0455  0.2687
31261W        W48108   1.117   7.800   1.989  0.0585 -0.0732  0.1332
31262W        W48109   7.409  10.564   1.662 -0.1681  0.0483 -0.1403
31263W        W48110  17.382   7.045   3.404  0.2937 -0.1468 -0.1232
31264W        W48111   6.792  11.507  14.949  0.1570 -0.2179 -0.2505
31265W        W48112   0.879   0.323   0.480  0.0700  0.3273 -0.0473
31266W        W48113   3.336   1.205   0.140  0.3347  0.1036 -0.1703
31267W        W48114   1.036  15.397  15.898  0.2137 -0.2001 -0.1009
31268W        W48115   1.887  12.030   3.955  0.2800  0.0911 -0.1494
31269W        W48116   1.933   0.955   0.033  0.2219 -0.1239 -0.2833
31270W        W48117  17.645  10.356  14.278  0.0254 -0.0998  0.0091
31271W        W48118   9.010  15.807   2.997 -0.2649 -0.1467 -0.0130
31272W        W48119  11.927  11.044   3.026  0.0283  0.2486  0.1041
31273W        W48120  17.702  16.877   0.884  0.1618  0.3222 -0.0348
31274W        W48121  12.541  11.701   3.787 -0.1197 -0.0837  0.4830
31275W        W48122   7.265   9.220   3.226 -0.2927 -0.0682 -0.0277
31276W        W48123   0.566   6.663   2.926 -0.4559 -0.1421 -0.1397
31277W        W48124  11.823  14.554  15.533  0.0189  0.1832  0.0656
31278W        W48125  16.511  11.349   2.864 -0.4777 -0.1280 -0.2345
31279W        W48126   0.756   7.313   1.301 -0.1770 -0.2096 -0.3154
31280W        W48127   7.113   8.188   0.469  0.0551  0.3471  0.0276
31281W        W48128   8.290  17.387  11.615  0.0290  0.0116 -0.0555
31282W        W48129  17.071   5.795  13.164  0.2809  0.1007  0.0541
31283W        W48130  13.722  15.910  11.453 -0.1773  0.3989 -0.1303
31284W        W48131   9.335  14.675  11.719 -0.0243  0.4070  0.2497
31285W        W48132   9.967   5.105  14.420  0.0757 -0.2071  0.0574
31286W        W48133   7.328  15.502  13.944  0.0828 -0.0536 -0.1876
31287W        W48134   3.374  12.691  15.518  0.0343  0.4490  0.1787
31288W        W48135   2.603   5.460  13.087  0.0610 -0.1878  0.0784
31289W        W48136   2.697   8.456   3.333  0.0347 -0.0259 -0.2804
31290W        W48137  15.470   3.954  12.865 -0.3014 -0.3384  0.1207
31291W        W48138  16.159   5.329   1.250  0.0231 -0.1405  0.0150
31292W        W48139   6.756  12.581   5.208 -0.0359 -0.3169  0.2952
31293W        W48140   9.722   7.907  13.717  0.2109  0.2596  0.1874
31294W        W48141  13.935   5.870  13.164  0.1343  0.0249  0.1295
31295W        W48142   6.064  10.189   0.544 -0.1331  0.2140 -0.1978
31296W        W48143   6.049   2.696  15.242  0.1002 -0.1517 -0.2034
31297W        W48144  10.921   0.725  11.389 -0.1906  0.1469  0.1232
31298W        W48145   2.198   5.435  15.725  0.2757  0.0909 -0.1432
31299W        W48146   3.297   3.503   0.908 -0.0873  0.0361 -0.1873
31300W        W48147  13.798   4.411  13.267  0.0956 -0.1894  0.0723
31301W        W48148  16.887   7.461  13.663 -0.0408 -0.2009  0.3181
31302W        W48149  17.469  17.383   0.979  0.3014  0.0681 -0.2832
31303W        W48150  14.785   9.415   0.803  0.2069 -0.0347  0.4996
31304W        W48151  14.591  17.875  13.965 -0.0649  0.0579 -0.1784
31305W        W48152   0.183   1.002  13.782  0.3449 -0.1553 -0.2620
31306W        W48153  11.389   2.828   0.411  0.1910 -0.2994 -0.1132
31307W        W48154  11.596   3.655   3.874  0.2649  0.3332 -0.1282
31308W        W48155  16.973   9.926   0.632 -0.2080 -0.0919 -0.3704
31309W        W48156  17.102   8.011   1.215  0.0585  0.0871 -0.0901
31310W        W48157   1.447   1.437  12.772 -0.4346  0.0107  0.0664
31311W        W48158  12.370   4.764  12.669 -0.0734 -0.0538 -0.2664
31312W        W48159  13.239  15.507   2.122  0.2028  0.1002 -0.1047
31313W        W48160  10.920  15.144   1.987  0.2016  0.1576  0.2882
31314W        W48161  15.718   4.852  13.142 -0.3076 -0.1375 -0.0251
31315W        W48162   7.940  17.496   2.857  0.1912 -0.1640 -0.2572
31316W        W48163   3.690   7.859   5.697 -0.0679  0.2018 -0.0308
31317W        W48164  13.822   4.946   3.758 -0.0038 -0.0929 -0.1806
31318W        W48165  15.511   0.183   1.810 -0.2299 -0.2436 -0.1098
31319W        W48166  16.597  10.603   4.534 -0.1774  0.1458  0.2318
31320W        W48167   5.842   3.453  13.689  0.0885  0.1458 -0.0354
31321W        W48168   1.978   8.824  12.872  0.1732 -0.0394 -0.0646
31322W        W48169  10.264  16.607  14.996 -0.2018 -0.2126 -0.1879
31323W        W48170   8.592   6.924  12.160  0.1763  0.0672  0.0746
31324W        W48171   1.102  11.320   3.997  0.1420  0.1433 -0.2067
31325W        W48172   1.665  12.229   3.091  0.0649  0.2923 -0.0933
31326W        W48173   9.400   2.247  12.165  0.1236 -0.0755  0.0925
31327W        W48174  14.266  10.188   2.928 -0.1239  0.2218 -0.0086
31328W        W48175  11.621   0.220   5.301  0.1218 -0.1005  0.0058
31329W        W48176   2.363   8.649  16.431 -0.0347  0.1011 -0.2628
31330W        W48177   1.659   0.254  16.484 -0.0711  0.0005  0.0357
31331W        W48178   3.696   4.107   3.370 -0.0841  0.0132 -0.2752
31332W        W48179   8.197  10.359   4.711 -0.0265 -0.3191  0.1265
31333W        W48180  12.988  16.960   3.200 -0.0589  0.1140 -0.2161
31334W        W48181   2.383  12.270   3.071  0.1881  0.0446 -0.1018
31335W        W48182   7.077  12.884   1.948  0.1813 -0.2297  0.0712
31336W        W48183  14.827  17.213  13.614  0.2601  0.0170  0.2958
31337W        W48184   1.569   0.980   2.370 -0.0069 -0.1021  0.1621
31338W        W48185  13.083   4.266   4.565 -0.2162  0.0494  0.0110
31339W        W48186   9.717  14.512  13.264  0.0388  0.0911  0.0097
31340W        W48187  14.737   8.059   4.754 -0.2447 -0.0365  0.2277
31341W        W48188  11.276   8.538   2.473  0.1907  0.1101  0.1075
31342W        W48189  14.885   4.792  15.382 -0.0086 -0.0282 -0.1318
31343W        W48190   5.451  10.179   1.341 -0.2085 -0.0332  0.4584
31344W        W48191  12.957  11.464   1.072 -0.1119 -0.0894 -0.0257
31345W        W48192  11.681  10.518   0.984  0.0426 -0.0911 -0.0109
31346W        W48193   5.586  11.791   0.582  0.2810  0.0434 -0.0078
31347W        W48194  15.992  11.902  12.921  0.0619 -0.1052  0.1456
31348W        W48195   2.186   2.501   4.566 -0.1152 -0.0507  0.0471
31349W        W48196   7.475  15.000  14.506 -0.0125 -0.0374  0.0369
31350W        W48197   4.126   5.541   3.637  0.1016 -0.0146  0.2574
31351W        W48198  14.559  10.919   2.244 -0.0657 -0.1243 -0.3109
31352W        W48199  17.223  16.953  11.694  0.0460 -0.2085 -0.1655
31353W        W48200  10.765  10.663   3.361  0.2592  0.2120 -0.1579
31354W        W48201  11.894  10.790  12.711  0.0604 -0.2886  0.0479
31355W        W48202   6.779  11.055  12.634 -0.0634  0.3093  0.1033
31356W        W48203   7.546  14.294  15.022  0.3089  0.2383 -0.0205
31357W        W48204  15.458   6.699   4.169  0.2168  0.2769 -0.1547
31358W        W48205  17.903  14.478   0.560  0.0927 -0.1895 -0.0713
31359W        W48206   1.029  16.476   3.344  0.0214 -0.1839  0.0047
31360W        W48207   6.054   6.374  16.657  0.0693 -0.0967 -0.0839
31361W        W48208   6.421  16.665  14.768  0.1836  0.1423 -0.2077
31362W        W48209   2.978  17.889   0.110  0.0596  0.1774 -0.0940
31363W        W48210  17.898  11.766  15.711  0.0320 -0.0312  0.0136
31364W        W48211   7.339   4.375   1.424 -0.0798 -0.0983  0.0456
31365W        W48212   8.827   6.594   5.037  0.0038 -0.2528  0.1121
31366W        W48213   6.750  16.331  11.974 -0.0405  0.1552 -0.0591
31367W        W48214  12.913   1.428   3.540 -0.1291 -0.1029 -0.0210
31368W        W48215  10.995  11.888   1.700 -0.2071 -0.0375  0.0609
31369W        W48216   1.952   2.336  13.949  0.0224  0.3806  0.1420
31370W        W48217  10.231  15.600   3.505  0.3008 -0.1963 -0.0390
31371W        W48218   5.018  13.413   1.590 -0.0745 -0.0735 -0.0307
31372W        W48219  16.489   6.952  16.027  0.0241 -0.1501 -0.0818
31373W        W48220   5.262  12.437  15.992  0.1809 -0.1859 -0.0190
31374W        W48221  13.482   5.185  15.490  0.1453  0.1990  0.0685
31375W        W48222  12.880   1.812   4.453 -0.2708  0.0128  0.0215
31376W        W48223  10.940   3.779   2.057 -0.0720  0.1287 -0.1265
31377W        W48224   1.222   2.109  14.417  0.0615  0.4772  0.1906
31378W        W48225   9.863  17.415  13.543 -0.1870  0.1481  0.2765
31379W        W48226  14.672  15.505   0.851  0.1844  0.1068  0.3670
31380W        W48227  11.739  16.642   3.416  0.1100  0.2538  0.1733
31381W        W48228  10.599  12.954  14.831  0.1401  0.2071  0.2863
31382W        W48229   4.267   5.958   2.345 -0.1159 -0.0888 -0.3422
31383W        W48230  14.494   2.274  14.962  0.1319 -0.4410 -0.0570
31384W        W48231   3.504  16.094  12.049 -0.1056 -0.0594  0.1723
31385W        W48232   1.372  15.040  14.012  0.0573  0.3137 -0.1036
31386W        W48233  12.388   6.382   3.492 -0.1616 -0.2677 -0.0828
31387W        W48234   9.030  12.293  15.757  0.0718  0.3108 -0.0069
31388W        W48235  13.430   7.672   3.488  0.2143  0.1977 -0.1769
31389W        W48236   8.578  10.639   1.964  0.0938  0.1104  0.1547
31390W        W48237   7.211  14.936  12.827  0.4374 -0.1612  0.0780
31391W        W48238   3.640   5.657   4.914  0.3715  0.2258 -0.1396
31392W        W48239   1.681   8.621  14.232  0.0710 -0.3623  0.3698
31393W        W48240   9.829  10.178  15.963 -0.2847 -0.2181  0.3778
31394W        W48241  12.230   8.475   5.186 -0.0304  0.2342  0.2006
31395W        W48242  14.091   1.315  15.457 -0.2668 -0.2799  0.1172
31396W        W48243  16.570   8.805  14.286 -0.0325  0.1683 -0.0599
31397W        W48244   6.075   3.667   3.513 -0.1709  0.3609 -0.1460
31398W        W48245  13.720  17.745  14.987 -0.1505  0.1205  0.1074
31399W        W48246   8.587  12.615  14.168  0.0277 -0.1394  0.1541
31400W        W48247  14.048   7.103   4.036  0.0417 -0.2059 -0.1514
31401W        W48248   1.282  13.887   2.126  0.1764 -0.1719  0.2578
31402W        W48249   5.089  10.345  16.186  0.0401  0.1681  0.1144
31403W        W48250   3.844  15.562   3.607 -0.1862  0.0712 -0.0847
31404W        W48251  16.154   8.844  14.006 -0.1905  0.2094 -0.1182
31405W        W48252   3.514  10.224   6.236 -0.1856 -0.0329 -0.1822
31406W        W48253  12.168   1.317   2.819 -0.1182  0.2888  0.1155
31407W        W48254   5.530  13.367  13.326  0.0561  0.2198  0.0093
31408W        W48255   1.771   5.455  16.591 -0.3410  0.2843  0.1045
31409W        W48256   8.127   1.613   2.491  0.0961 -0.1997  0.0198
31410W        W48257   0.855  17.913  14.824  0.1660  0.1365 -0.2094
31411W        W48258   1.021  10.924  15.901 -0.0815 -0.1211  0.5667
31412W        W48259  10.031   9.927  11.562 -0.0162  0.1329 -0.1665
31413W        W48260   0.048  18.071  13.085 -0.0934  0.3940 -0.1934
31414W        W48261  13.322   4.862   2.206 -0.0351 -0.1449  0.0394
31415W        W48262   7.262   3.142  11.539 -0.2383  0.0825 -0.0944
31416W        W48263  13.874   7.889  12.146 -0.2655  0.1313 -0.0182
31417W        W48264  11.030   2.032  11.584  0.0101  0.3216 -0.4055
31418W        W48265   2.453  11.219   3.126  0.3057  0.2334 -0.0170
31419W        W48266  17.197  12.793  14.296  0.1529 -0.2747  0.0645
31420W        W48267   1.956  18.039  16.098  0.1599 -0.0209  0.1393
31421W        W48268   2.478   4.608  12.090 -0.1575  0.1359  0.0135
31422W        W48269  17.276  16.897   3.000 -0.0734  0.1214  0.2315
31423W        W48270  12.101   4.914   4.658  0.0629 -0.2477 -0.2161
31424W        W48271   1.471   0.226   2.361  0.3666  0.0238 -0.2715
31425W        W48272  10.087   9.826   0.471  0.0252 -0.3337 -0.4035
31426W        W48273   5.602   5.633  16.467  0.1213 -0.0389  0.2030
31427W        W48274   1.566  11.928  13.040 -0.0701  0.1919 -0.1539
31428W        W48275   8.329   8.930  15.335 -0.0643  0.0061 -0.1741
31429W        W48276  14.879   1.593  14.271 -0.3579  0.0444  0.0352
31430W        W48277  13.885  15.206   0.620  0.2074 -0.0133 -0.3299
31431W        W48278   2.557   4.423   5.933  0.0178 -0.0110  0.1945
31432W        W48279  13.146   3.297   4.871 -0.2212  0.2261  0.0819
31433W        W48280  15.707  16.823   3.920  0.0415 -0.1165  0.0752
31434W        W48281   3.702   4.536  12.438  0.0771 -0.0266  0.0027
31435W        W48282  12.194   6.871   0.771  0.3642  0.1445  0.2058
31436W        W48283   8.680   7.300  13.236  0.2194  0.1088  0.2659
31437W        W48284   3.083   3.963   2.871  0.0001 -0.1301  0.0713
31438W        W48285  13.338   6.546  11.996 -0.0109 -0.0231 -0.3240
31439W        W48286   7.263   5.681  16.321 -0.0829  0.2494  0.2270
31440W        W48287   2.196   9.823   0.999  0.2107 -0.3564  0.4267
31441W        W48288   0.549   5.417  16.288 -0.0026  0.1099 -0.1564
31442W        W48289   6.141   2.263   0.415  0.0246 -0.1370  0.4312
31443W        W48290   8.333  12.465   1.798 -0.2312 -0.0680  0.0604
31444W        W48291  17.178   0.967   3.830  0.2404  0.0344  0.0821
31445W        W48292   8.146  11.386   1.634  0.1470  0.2517  0.0745
31446W        W48293   6.641  14.239   2.380 -0.3685  0.0707  0.0794
31447W        W48294  11.353   2.256  12.396  0.0481  0.3257  0.1834
31448W        W48295   2.062   3.687  15.919 -0.1235  0.3719  0.2283
31449W        W48296  11.039   6.472  14.568  0.0019 -0.1198 -0.1294
31450W        W48297  13.762  14.142   0.457  0.2372  0.0813  0.0543
31451W        W48298  14.346  11.669   3.096  0.0359 -0.1245 -0.2104
31452W        W48299  13.326  12.535  16.279 -0.1893  0.1783  0.1276
31453W        W48300   4.833   6.038   3.457  0.3836 -0.1142  0.1962
31454W        W48301  14.577   1.978   0.771  0.0351  0.1890  0.1093
31455W        W48302   8.692   4.457   4.268 -0.1133 -0.0049  0.0157
31456W        W48303   5.963  12.586  13.687  0.2229  0.0069 -0.0908
31457W        W48304  13.947  11.451   3.838  0.2876  0.0535  0.0480
31458W        W48305  14.430   9.351  14.326 -0.1379 -0.1909 -0.0675
31459W        W48306   0.598  10.218  15.478 -0.0346  0.1577  0.1000
31460W        W48307  15.701  13.259   0.894  0.2074  0.0798 -0.0318
31461W        W48308   1.950   0.110  12.791  0.0793 -0.1635  0.2685
31462W        W48309  17.163   8.176   0.042  0.3540  0.2912  0.1024
31463W        W48310   8.525  11.568  15.039  0.0452  0.2105 -0.2115
31464W        W48311   5.043  12.304   2.439 -0.0320  0.4680  0.2885
31465W        W48312   0.172   7.932   1.620 -0.0799  0.0071 -0.0003
31466W        W48313   7.176   7.399   4.881 -0.3538 -0.0781 -0.0291
31467W        W48314   5.125  15.060   3.139 -0.0295 -0.0047  0.1278
31468W        W48315   5.029   7.555  15.931 -0.1716  0.0837  0.1502
31469W        W48316   4.579   2.070   5.006 -0.0911  0.1121  0.3275
31470W        W48317   9.526  15.091   5.058 -0.1364 -0.0573 -0.1880
31471W        W48318  14.071   4.625   0.872  0.1884 -0.0638 -0.0501
31472W        W48319   7.925   9.626   1.055  0.3060  0.2723 -0.2544
31473W        W48320  14.093   0.329   1.108 -0.0200  0.1755  0.2209
31474W        W48321  11.398  10.487   1.381  0.4267  0.0833 -0.0261
31475W        W48322  11.560   9.702   1.135  0.1061  0.0647  0.1825
31476W        W48323   3.334   7.132  14.613  0.2852  0.1505  0.0323
31477W        W48324   5.566   9.453   3.370 -0.0300  0.0216 -0.1158
31478W        W48325   8.518  17.236  15.212 -0.0863  0.0336 -0.0089
31479W        W48326  16.063   0.327  14.738 -0.3584 -0.1758 -0.4727
31480W        W48327   1.253   5.687  12.392 -0.1386  0.0427 -0.1873
31481W        W48328  11.027  16.435   2.763  0.1076  0.1561  0.1611
31482W        W48329  10.112   9.686   4.548 -0.2200  0.1506 -0.1852
31483W        W48330  12.537   1.010   0.512  0.1397  0.0210  0.1055
31484W        W48331  15.231   1.495   0.723  0.3955  0.3180  0.0160
31485W        W48332  11.265  12.889  16.620  0.0244 -0.1866 -0.3212
31486W        W48333  16.290  16.694  13.540  0.0630 -0.0350  0.1104
31487W        W48334   2.802   2.981  16.374  0.1709  0.2993 -0.0960
31488W        W48335   9.004  10.445   3.015 -0.0306 -0.0713  0.1847
31489W        W48336  14.656   0.089  12.736  0.1228 -0.2043  0.0237
31490W        W48337  14.844  17.785  13.538 -0.0978 -0.0265  0.0632
31491W        W48338   2.712  10.321   6.854  0.2892 -0.2163 -0.1218
31492W        W48339   3.934  10.665   3.861 -0.2633 -0.1998  0.1006
31493W        W48340  11.462   5.682  12.383 -0.1359  0.0384 -0.2359
31494W        W48341   9.609  15.631   1.402 -0.3185  0.1331 -0.1276
31495W        W48342  13.363  11.855  13.916 -0.3450  0.0755  0.0196
31496W        W48343   5.467   7.625  12.155 -0.1996  0.0322 -0.2189
31497W        W48344   5.801   6.788   1.623  0.1805  0.0950 -0.0061
31498W        W48345   9.249  15.717  11.197  0.0389  0.1923 -0.1184
31499W        W48346   1.018  12.476   6.044 -0.0014 -0.1340 -0.2253
31500W        W48347   0.419   8.415   2.402  0.0214  0.3605  0.0307
31501W        W48348  16.597  17.494  13.920 -0.2713  0.1149 -0.1650
31502W        W48349  12.793   9.780   5.396 -0.0409 -0.2836 -0.3359
31503W        W48350   7.700  15.237  13.617 -0.3518 -0.1799 -0.4989
31504W        W48351   9.381   0.087  14.645 -0.1602 -0.1732  0.2279
31505W        W48352  12.456   0.677  15.987  0.0722 -0.0505  0.0670
31506W        W48353  15.035  17.316   0.704 -0.2144  0.1898 -0.1051
31507W        W48354   3.431   5.020  16.134 -0.0123  0.0093 -0.0869
31508W        W48355   5.074  12.590  13.290  0.0390 -0.1050 -0.2402
31509W        W48356  10.408   9.757   3.503 -0.1915 -0.1495 -0.2235
31510W        W48357   3.177   4.836   1.801 -0.0947 -0.2588  0.2408
31511W        W48358   5.021  15.157   2.226  0.1127  0.0064 -0.0335
31512W        W48359   4.023   4.903  14.286  0.2695  0.0818  0.1891
31513W        W48360   4.915   6.519   1.458  0.1067  0.0174 -0.2038
31514W        W48361   9.528   8.616  15.184 -0.0578 -0.0929  0.1115
31515W        W48362  12.941   5.493  10.819 -0.0057 -0.0891  0.0602
31516W        W48363   2.639  15.363   4.078 -0.0393  0.0816 -0.1560
31517W        W48364   2.981   6.277  14.268  0.1980 -0.2370 -0.0962
31518W        W48365   2.133   6.169   5.077  0.2305 -0.0177  0.1075
31519W        W48366  12.247  18.040  15.288 -0.1350 -0.2047 -0.1238
31520W        W48367   7.930   6.243   0.908  0.3265 -0.0360  0.2606
31521W        W48368   1.433   4.665   3.369 -0.1342 -0.2815 -0.2000
31522W        W48369  10.372  11.034  12.980  0.0100  0.0305 -0.1770
31523W        W48370   6.715  15.704   5.219 -0.3264  0.0434  0.2800
31524W        W48371  10.032   7.137  15.279  0.2701  0.1448 -0.0850
31525W        W48372   9.198   0.645  15.901 -0.0294  0.2370  0.2296
31526W        W48373   5.381   2.083  15.318 -0.1236  0.0533  0.0277
31527W        W48374  13.383  13.614   4.932  0.3018  0.0876 -0.1192
31528W        W48375   1.082  10.770  15.398 -0.3822 -0.2774  0.0371
31529W        W48376   2.529  14.345  11.467 -0.0196  0.1469  0.1207
31530W        W48377   1.580   8.488   1.800 -0.1467 -0.1948 -0.2898
31531W        W48378  13.546   5.732   0.018 -0.3017  0.1960  0.1698
31532W        W48379   2.202  14.583   2.277 -0.0319  0.1822 -0.0850
31533W        W48380   5.708  16.367  13.324 -0.0577 -0.1909 -0.1696
31534W        W48381   1.381  11.944   1.457  0.0207  0.3029  0.1099
31535W        W48382   5.754  13.263   5.421  0.0171  0.2497  0.2217
31536W        W48383  13.830   3.959  14.925  0.1064  0.1297 -0.1945
31537W        W48384   5.017   3.924  13.568  0.3584 -0.4285 -0.1598
31538W        W48385   9.731   4.419   5.338 -0.0047  0.1124  0.0271
31539W        W48386  10.702  17.255   3.234 -0.2965  0.0448  0.2918
31540W        W48387  15.291   8.764  15.089  0.3757 -0.2254  0.0758
31541W        W48388   4.895   4.304   1.824 -0.0502  0.0021 -0.0829
31542W        W48389   8.901   6.564  12.735 -0.0845  0.1918  0.1512
31543W        W48390  11.937  15.297   1.511 -0.0880  0.0901 -0.3122
31544W        W48391   6.765  17.835   5.552 -0.0005  0.2587 -0.0432
31545W        W48392   6.681   1.642   1.248  0.3425  0.0023 -0.2114
31546W        W48393   4.578   2.471   5.829 -0.0854 -0.2437 -0.0396
31547W        W48394   1.589   8.022  16.225  0.0997 -0.1829 -0.1992
31548W        W48395   7.793   1.905  15.994  0.2460  0.1934 -0.0589
31549W        W48396   3.013   2.524  14.854  0.0370 -0.2777 -0.1690
31550W        W48397   1.059  11.378  15.400  0.0785 -0.0736 -0.1313
31551W        W48398   5.735   4.616   4.764 -0.0766  0.1865 -0.1342
31552W        W48399   8.378  12.657  15.097  0.1308  0.4160 -0.1382
31553W        W48400   6.642   0.203  16.236  0.5175  0.1901 -0.0819
31554W        W48401   2.078  12.212   5.703 -0.0768  0.1614 -0.1150
31555W        W48402  15.995  16.730   4.346 -0.2388  0.0811  0.1800
31556W        W48403   5.457   8.695  13.599  0.0129 -0.0480 -0.0085
31557W        W48404  12.277  11.675   5.517 -0.2043  0.1981 -0.1591
31558W        W48405   4.162   9.335   1.328 -0.0269 -0.0459  0.2711
31559W        W48406   9.304  16.358  16.634  0.0734 -0.4149 -0.3767
31560W        W48407   0.904   0.740   0.169 -0.0432  0.1482  0.3342
31561W        W48408  12.279  16.960   2.547 -0.0897 -0.2879 -0.5347
31562W        W48409  14.112  10.626  13.285 -0.1525 -0.0347  0.1633
31563W        W48410  11.293   8.404  14.061  0.3238 -0.4616  0.1690
31564W        W48411   6.826  17.565  14.958 -0.2002 -0.0140 -0.1448
31565W        W48412  14.935   0.843   2.175 -0.3093  0.1099 -0.2041
31566W        W48413  17.444  16.138   3.037 -0.1613  0.1382 -0.0681
31567W        W48414   4.678  14.863  14.726  0.1156 -0.0371  0.3099
31568W        W48415  17.312  13.473   2.660 -0.2280  0.1810 -0.1245
31569W        W48416   0.303  10.693   1.889  0.1144 -0.0855  0.2350
31570W        W48417  10.104  16.780  16.582 -0.0642  0.1204  0.4237
31571W        W48418   5.546  15.240   0.120 -0.1076 -0.0315 -0.0974
31572W        W48419   3.891   9.849   3.174  0.0242 -0.1177 -0.1638
31573W        W48420  16.087   9.572   5.422  0.0116 -0.1113 -0.0547
31574W        W48421  14.754   7.022   1.487 -0.1881  0.3273  0.1461
31575W        W48422   3.689  11.603   0.716  0.0314  0.0286 -0.0552
31576W        W48423   6.618   4.267  12.365 -0.0012 -0.1711  0.1936
31577W        W48424  10.254  13.718  14.918 -0.2323 -0.0339 -0.0606
31578W        W48425  14.270  11.001  14.196 -0.4059 -0.0300  0.1366
31579W        W48426  14.136  13.284   4.535  0.1054  0.0458  0.1337
31580W        W48427   7.178   1.270   0.467  0.0595  0.2093  0.0213
31581W        W48428  13.887  16.473  15.202 -0.1221 -0.3349  0.0156
31582W        W48429   6.534   8.434   0.499  0.1652 -0.0117  0.2958
31583W        W48430  11.876  17.953  14.302 -0.0064  0.0202  0.0013
31584W        W48431   6.114  17.178   0.243 -0.3790 -0.1199 -0.1408
31585W        W48432  17.066  16.656   3.984 -0.0793 -0.1718  0.1966
31586W        W48433   9.272   4.622  12.470  0.2632  0.2384 -0.0872
31587W        W48434   9.761  13.566   5.327 -0.0642 -0.4483  0.1121
31588W        W48435   6.366   2.824   3.533  0.2050  0.0745  0.1563
31589W        W48436   5.771   2.831   3.603 -0.1419  0.0566 -0.2497
31590W        W48437   2.696  15.709  11.698 -0.2850  0.3204  0.3046
31591W        W48438  14.129   1.125  13.342 -0.0874  0.1545  0.2200
31592W        W48439   3.992   9.171   2.488 -0.3703 -0.3389  0.2215
31593W        W48440   7.118  13.261  12.057  0.1564  0.2607 -0.1132
31594W        W48441   2.366   9.901  14.725  0.0423  0.1251 -0.1129
31595W        W48442   8.049   1.843   4.406 -0.1743 -0.4146  0.0599
31596W        W48443   6.775   3.920   1.676 -0.3243 -0.0804 -0.0077
31597W        W48444  11.635   3.405   1.761 -0.1499 -0.1489  0.2461
31598W        W48445   8.751  16.560  13.348 -0.0874  0.0515  0.0186
31599W        W48446  12.098   1.346   4.160 -0.1066  0.0672 -0.1609
31600W        W48447  16.112   2.729  10.527 -0.0962 -0.0749 -0.1195
31601W        W48448   5.970   3.558   4.049  0.0581  0.0095 -0.0598
31602W        W48449  17.814  12.561  12.134 -0.1368  0.0953 -0.1295
31603W        W48450   8.699  13.619   5.754 -0.0607 -0.2079  0.0140
31604W        W48451  13.137   6.541  16.529  0.1847 -0.0167 -0.1892
31605W        W48452   9.556  12.726  11.643 -0.1656 -0.2970  0.1482
31606W        W48453   0.901  14.652   5.100  0.0889 -0.1601 -0.0495
31607W        W48454  12.917  16.102  14.523 -0.0789 -0.0338  0.0958
31608W        W48455   3.165  16.206   1.745 -0.0731  0.0162  0.3114
31609W        W48456  13.127   1.928   2.134 -0.1857 -0.1819 -0.0086
31610W        W48457   8.081  13.294  15.781 -0.0460 -0.0820 -0.1020
31611W        W48458   7.250  15.114  16.265  0.1349 -0.0939  0.2585
31612W        W48459   2.586   2.474   1.546 -0.1109  0.1182 -0.0040
31613W        W48460   4.868  13.420  14.002 -0.1031 -0.0913  0.2764
31614W        W48461  11.397   8.327  12.279 -0.3096  0.0490  0.1766
31615W        W48462   9.937  15.604  15.690 -0.0127 -0.0564  0.1937
31616W        W48463  10.900   3.639   5.487 -0.1329 -0.2021  0.0578
31617W        W48464  17.692  12.503   4.228 -0.1955  0.1234 -0.2543
31618W        W48465   7.295  15.965   4.399 -0.2634 -0.0162 -0.2033
31619W        W48466   8.010   3.775   2.334 -0.0982  0.3705  0.2037
31620W        W48467   1.893  10.047   3.643 -0.0486 -0.0136 -0.0751
31621W        W48468  16.563  14.866   2.417 -0.0087  0.0724 -0.0030
31622W        W48469  11.398  17.876   1.577 -0.2392  0.0673  0.1843
31623W        W48470  16.244  17.843  13.698 -0.1517  0.1735 -0.3616
31624W        W48471  16.126   8.098   2.122  0.1561  0.0662 -0.1213
31625W        W48472   1.965  11.118  13.244  0.0566 -0.5123 -0.2040
31626W        W48473   1.547   2.605   3.078 -0.0683 -0.2295  0.3046
31627W        W48474  10.109   7.011   3.574 -0.1356 -0.1426  0.4284
31628W        W48475  14.980  12.133   4.191  0.2188 -0.2034 -0.2499
31629W        W48476   7.004   3.193   5.338  0.1266  0.2647 -0.0044
31630W        W48477   7.391  11.746   3.247  0.2911  0.2015 -0.0398
31631W        W48478  12.900   7.722  15.298  0.0507 -0.0546 -0.3725
31632W        W48479   8.660   4.794   1.149 -0.0736  0.0262  0.0384
31633W        W48480  15.748  13.313   1.880 -0.1591 -0.1327  0.0354
31634W        W48481   3.667   6.890   2.891 -0.0992 -0.1350  0.0493
31635W        W48482   5.837  11.731   2.821  0.0626  0.1885 -0.0528
31636W        W48483   1.549  11.600  15.455  0.1330  0.3908  0.1814
31637W        W48484  13.358  11.110   0.855 -0.2157 -0.1040  0.0425
31638W        W48485   1.877  12.525  14.756 -0.1858 -0.1478  0.1336
31639W        W48486  17.124   5.560  16.165 -0.2096  0.1090  0.0710
31640W        W48487   9.517   9.975   5.937 -0.2002  0.2216  0.0066
31641W        W48488  10.412   9.347   0.485 -0.2283  0.0847  0.0297
31642W        W48489   8.438  16.351   4.049 -0.1941  0.1367 -0.1456
31643W        W48490   3.225  16.366   3.114 -0.1867 -0.2359  0.1788
31644W        W48491  10.671  10.086   4.967 -0.1294  0.3186 -0.0653
31645W        W48492  18.012   7.981   0.634  0.1838  0.1604  0.3375
31646W        W48493  11.145   1.133   3.411  0.2079 -0.0303  0.0105
31647W        W48494  15.914   4.986  11.673 -0.0141 -0.0024 -0.0426
31648W        W48495  11.391   4.527  11.858 -0.1419  0.2257 -0.0681
31649W        W48496  16.140   1.571   0.363 -0.1047 -0.0623 -0.0845
31650W        W48497   0.177  14.966  14.998 -0.1038  0.3884 -0.1310
31651W        W48498   0.530  14.687   1.997 -0.0226  0.0981  0.2827
31652W        W48499   1.126   4.660  16.655 -0.2633  0.0331  0.0680
31653W        W48500  15.884   7.688  16.562 -0.0505  0.0759  0.0208
31654W        W48501   9.075   9.956   3.018 -0.1316 -0.1228  0.2476
31655W        W48502   7.152   0.822   5.224 -0.2707  0.0728  0.0825
31656W        W48503  14.545  13.033   1.621 -0.2419 -0.3816 -0.2847
31657W        W48504   1.490  17.902   0.057  0.1994 -0.0681  0.3778
31658W        W48505  17.547   7.180   1.949  0.0760 -0.0674  0.2283
31659W        W48506   7.983   5.376   2.292  0.2839 -0.1090  0.2517
31660W        W48507  13.700   5.274  14.657  0.0292 -0.2746  0.0107
31661W        W48508  14.189   2.659   2.741  0.0181 -0.0587 -0.2183
31662W        W48509  12.161  10.015   2.137  0.3180  0.0894 -0.2959
31663W        W48510  16.950   2.772  12.409  0.0797 -0.1151  0.2827
31664W        W48511  13.808   4.763  14.614  0.1142 -0.0642 -0.3603
31665W        W48512   1.755  17.618   1.440 -0.0029 -0.2545  0.1834
31666W        W48513   6.048   0.824  15.917  0.0468 -0.1531 -0.0385
31667W        W48514   1.207  15.130   3.000 -0.0698 -0.2783  0.0862
31668W        W48515   4.200   8.038  13.590  0.0279 -0.0188 -0.0686
31669W        W48516  12.689  12.426   4.475  0.1720 -0.2270  0.0393
31670W        W48517   5.776   0.597   4.941 -0.0163  0.1290  0.0849
31671W        W48518  15.111   2.079  12.367  0.1731  0.1120 -0.0560
31672W        W48519  11.642   9.537  11.932  0.2595 -0.1607 -0.1647
31673W        W48520   6.337   2.495   1.236  0.1249  0.1382  0.1273
31674W        W48521   4.310  15.675   3.401 -0.1384 -0.0827  0.1114
31675W        W48522  12.505  14.363  14.431  0.0636  0.0695  0.1905
31676W        W48523   5.116   5.282   5.306 -0.3058  0.3137  0.0818
31677W        W48524   8.265   5.608  12.819  0.1593  0.1002  0.0667
31678W        W48525   1.544   4.343  15.084  0.4083 -0.1212  0.1751
31679W        W48526  10.903  10.129   3.589 -0.3460 -0.2014 -0.0272
31680W        W48527  15.769   4.503  12.214 -0.0495  0.2859  0.0278
31681W        W48528   9.374   9.722   5.116 -0.0750 -0.1957 -0.2931
31682W        W48529   0.790   4.364   5.395 -0.0699  0.3178 -0.1651
31683W        W48530  12.252  14.319   1.272  0.1415  0.0972  0.1551
31684W        W48531   3.232  13.664   1.616  0.2823  0.3436  0.1950
31685W        W48532  13.765   2.323  12.684  0.0473 -0.1031 -0.0594
31686W        W48533  17.159  16.841  13.689  0.1785  0.0501  0.1199
31687W        W48534  17.340  10.945   2.616 -0.3065 -0.0976 -0.1933
31688W        W48535   3.090  11.360  14.097  0.1208 -0.0393 -0.2887
31689W        W48536   8.306  16.510  14.102  0.1250  0.1176 -0.2439
31690W        W48537   1.653   9.252   2.434  0.1191 -0.0816  0.1532
31691W        W48538   8.386   4.717   3.345 -0.0180 -0.0184 -0.1541
31692W        W48539  15.094   2.572   4.694 -0.1149  0.2147 -0.0544
31693W        W48540   0.974   3.649  12.201 -0.0270  0.2347  0.2852
31694W        W48541  10.283  11.298   3.496 -0.0289 -0.4066 -0.0838
31695W        W48542  10.548   8.653   3.318 -0.0667  0.1925 -0.0382
31696W        W48543  10.646  11.379  14.747 -0.0209  0.2349 -0.0409
31697W        W48544  13.340   5.271  14.963 -0.2154  0.0369  0.1674
31698W        W48545  13.347  10.402  15.675 -0.0885 -0.3026  0.1430
31699W        W48546   4.614   2.539   5.191  0.0912  0.2233 -0.2584
31700W        W48547   9.081  12.952  15.802 -0.0978 -0.0937 -0.2591
31701W        W48548  15.425  12.025  11.252 -0.1206 -0.1993 -0.0322
31702W        W48549  11.511   5.056   1.270  0.2261 -0.0004 -0.0670
31703W        W48550  15.121  12.827  13.467  0.3275 -0.2830  0.0498
31704W        W48551   5.636  17.677  16.425  0.3509 -0.0743  0.1446
31705W        W48552  13.619   3.115  12.140  0.1140  0.0857  0.1743
31706W        W48553   8.273   3.586  11.811  0.1523  0.1108  0.1047
31707W        W48554  13.869   6.484  12.732 -0.0343 -0.0163 -0.3309
31708W        W48555   0.297  10.433  14.782 -0.3166 -0.0911  0.1399
31709W        W48556  11.664   4.308   3.159  0.1513 -0.1398  0.0600
31710W        W48557   4.082   6.479  12.674  0.2250 -0.0946 -0.2323
31711W        W48558  13.627  10.403  16.109 -0.1030  0.2277  0.0687
31712W        W48559  13.144  15.896   3.989 -0.3650 -0.2436 -0.2057
31713W        W48560   3.966   1.231  11.777 -0.0122 -0.1131  0.0059
31714W        W48561   5.986   5.611   0.129  0.0096  0.1041 -0.1270
31715W        W48562   7.866  12.822  15.307  0.2038  0.1204 -0.4120
31716W        W48563   0.292   2.594   1.330 -0.2050  0.0682  0.2732
31717W        W48564  12.981   8.328  12.956  0.3753 -0.1354  0.1164
31718W        W48565  15.859   6.353   4.092  0.1225 -0.0702 -0.0833
31719W        W48566  10.384   3.493   2.582  0.0606 -0.0465  0.0892
31720W        W48567  14.294  17.743  15.409  0.2469  0.1210 -0.0426
31721W        W48568   9.366   7.841  12.912 -0.0040  0.1948  0.0008
31722W        W48569   0.490   7.742   1.293  0.0737  0.3291  0.1264
31723W        W48570   7.066  10.324   2.036  0.0484 -0.1089 -0.3258
31724W        W48571   8.855   3.759   1.291 -0.0192 -0.2351 -0.2269
31725W        W48572  16.239  17.924  16.154 -0.0710 -0.3202 -0.2668
31726W        W48573  13.711  12.166  14.196  0.0553  0.0217 -0.0193
31727W        W48574   0.461   3.262  15.803 -0.2328  0.4331 -0.0250
31728W        W48575   8.348  17.768   0.767  0.1954  0.2117  0.0845
31729W        W48576  16.830   0.453   5.290  0.3088  0.0073  0.0824
31730W        W48577   0.511  13.115   4.061  0.2015  0.0048 -0.1552
31731W        W48578  15.128  10.294   2.834  0.1918 -0.1136 -0.1881
31732W        W48579   6.504   6.901   1.178 -0.1362 -0.1019 -0.0902
31733W        W48580   4.674  16.236   5.798 -0.1491  0.3893 -0.0530
31734W        W48581  16.868   2.245  14.363  0.1905 -0.0086  0.1175
31735W        W48582   6.720   1.059  11.843 -0.0196 -0.0003 -0.4689
31736W        W48583   8.562  17.207   1.523  0.3438 -0.1543  0.1527
31737W        W48584  17.253   8.878  12.670  0.0587  0.2241  0.0036
31738W        W48585  16.602   0.983  12.105  0.1367 -0.1480 -0.0381
31739W        W48586   9.826   3.945  12.637  0.0583 -0.1660  0.1388
31740W        W48587   6.194  15.287   4.623  0.0567 -0.1706 -0.1435
31741W        W48588   3.573   0.890  11.857  0.2808  0.2483  0.4557
31742W        W48589  11.986   0.226  11.880  0.2440 -0.1805  0.1074
31743W        W48590  10.296  16.049   5.794 -0.1298 -0.0106  0.0984
31744W        W48591   4.365  14.969   0.670  0.1672 -0.1730 -0.4051
31745W        W48592   6.008   7.372  14.510  0.1082  0.0486  0.1043
31746W        W48593   4.560   8.455  15.160  0.1976 -0.0675  0.0187
31747W        W48594   3.979  13.208   5.277  0.0474 -0.0962 -0.5561
31748W        W48595   5.823   8.313  14.707  0.0979 -0.0375  0.0211
31749W        W48596  16.942  10.668   2.676  0.1409  0.1882 -0.2655
31750W        W48597   6.775   0.480   0.806 -0.0262  0.0388 -0.1905
31751W        W48598   9.699   3.348  16.633  0.1078 -0.2341 -0.0312
31752W        W48599  12.883   8.200  14.037  0.0304 -0.0372 -0.0419
31753W        W48600  16.472   2.539  15.854  0.0865 -0.3817  0.2000
31754W        W48601  11.832  16.235   4.388 -0.1877 -0.0109 -0.3916
31755W        W48602   8.339   1.767   5.054 -0.1007  0.2152  0.0722
31756W        W48603  14.597  10.628   4.680  0.2906  0.2177 -0.1194
31757W        W48604   0.440   6.075  16.061 -0.2204  0.0669  0.1150
31758W        W48605   9.660  11.671   1.186 -0.1469  0.0100  0.1960
31759W        W48606   0.978   9.630  13.955  0.2162  0.0267  0.1168
31760W        W48607  13.975   3.427   6.259  0.2630  0.1855  0.0294
31761W        W48608  15.494  16.839   3.454 -0.1453  0.2357 -0.1566
31762W        W48609   1.801  12.007  12.657  0.0259 -0.1154 -0.1706
31763W        W48610  12.749   8.609   5.175  0.0977 -0.3789 -0.4571
31764W        W48611  17.029  13.690   1.784 -0.1909 -0.0139  0.1455
31765W        W48612   4.178  16.334   4.051 -0.4398 -0.0002  0.2818
31766W        W48613   0.615  11.453   4.074 -0.2556  0.2173  0.1207
31767W        W48614   5.075   4.402   1.006 -0.2485  0.0360  0.0724
31768W        W48615   1.211  17.641   0.856  0.1900 -0.1771 -0.0382
31769W        W48616  12.833   5.364   2.831 -0.1229  0.1532 -0.2667
31770W        W48617   9.111  12.825   1.165  0.1642  0.3065 -0.0429
31771W        W48618   1.656  16.083   2.804 -0.3846 -0.2015 -0.2946
31772W        W48619  15.204   5.214   1.283  0.1493  0.0024  0.1103
31773W        W48620   4.946   0.026   3.716 -0.1474 -0.0424 -0.0625
31774W        W48621  15.528  12.644   5.148 -0.2428 -0.1898  0.0607
31775W        W48622  16.131  16.717   3.587 -0.2413 -0.0200 -0.2812
31776W        W48623   9.468   3.721   2.361 -0.2114  0.0347 -0.0263
31777W        W48624  14.480  16.913  12.647  0.0618 -0.1138 -0.0662
31778W        W48625  11.430  17.372  15.951  0.0858  0.2531  0.1945
31779W        W48626  15.787   3.406   2.982 -0.0325  0.0883  0.1544
31780W        W48627  14.626   2.746   1.430 -0.2276 -0.0220  0.0159
31781W        W48628  16.910  17.132   1.022  0.0790  0.0715 -0.4168
31782W        W48629   1.409   3.181  14.264 -0.1688 -0.1769 -0.4446
31783W        W48630  18.067   1.498   3.332  0.2774 -0.3934 -0.1004
31784W        W48631  11.522  16.316   2.555  0.2683 -0.0775 -0.0891
31785W        W48632  17.593  11.883  12.302  0.1031 -0.0535 -0.1417
31786W        W48633  17.608  15.525   0.446  0.0576 -0.0504  0.2032
31787W        W48634   4.759  16.264  14.988  0.0920  0.0168  0.0039
31788W        W48635   8.396   4.209  14.430  0.2331  0.1686 -0.6232
31789W        W48636   8.776  16.177   0.493 -0.0221  0.3574 -0.2141
31790W        W48637  16.492  10.145  12.496  0.1098  0.0759  0.1840
31791W        W48638   1.624  16.659   2.918 -0.1588  0.0128 -0.1480
31792W        W48639   3.347  13.471   4.799  0.4196  0.0349 -0.0647
31793W        W48640   8.785   2.844   0.028  0.0506 -0.0619 -0.0367
31794W        W48641   9.327   2.522  13.198  0.1771  0.3368 -0.1127
31795W        W48642   2.182  14.859  16.194  0.0543 -0.3380  0.0631
31796W        W48643   1.613   9.395  14.290 -0.0286 -0.1868  0.1310
31797W        W48644   7.020  10.490  12.657  0.0983  0.0766  0.0701
31798W        W48645   1.338  15.039   0.071  0.1905  0.2397 -0.1393
31799W        W48646  17.769  12.788   3.034 -0.2871  0.0531  0.1061
31800W        W48647   7.954   3.267   5.719  0.1443  0.0412  0.2714
31801W        W48648   2.567   4.313  14.786 -0.0481 -0.0496  0.0190
31802W        W48649  15.888   6.538   3.131 -0.0510 -0.1726  0.0332
31803W        W48650  16.242  17.940   3.670 -0.0724 -0.0460  0.0552
31804W        W48651   3.856   5.295  14.630  0.1086  0.1628  0.2407
31805W        W48652  17.483   3.016   0.230 -0.3489 -0.1917 -0.2542
31806W        W48653   2.294   5.406   4.400 -0.0736  0.0961 -0.2205
31807W        W48654  10.354  13.726   3.820  0.1098 -0.0285  0.0981
31808W        W48655  16.263   9.724   4.461 -0.3562  0.1383 -0.6249
31809W        W48656  15.372   1.776  15.799  0.0231  0.2350  0.1590
31810W        W48657   5.130  16.917  15.024  0.0142 -0.1537 -0.2359
31811W        W48658   0.093   2.193  13.115 -0.0967 -0.2155 -0.0213
31812W        W48659   5.876   0.315   2.335 -0.1678  0.0126 -0.1171
31813W        W48660   1.866   3.701   0.896 -0.1685 -0.3386 -0.0139
31814W        W48661  15.091   0.655   3.630  0.1058  0.1294  0.1450
31815W        W48662  11.593  15.715  13.329  0.1306 -0.1748 -0.0557
31816W        W48663  10.957  17.098  15.867  0.2733 -0.1230 -0.0707
31817W        W48664  14.877   3.421   1.815  0.3919  0.1608  0.1262
31818W        W48665  13.304   2.876  13.047 -0.1363 -0.3286  0.0228
31819W        W48666   3.730  14.207  13.123  0.0538 -0.1040 -0.1843
31820W        W48667  14.798  14.581  10.314 -0.0007 -0.0432  0.1993
31821W        W48668  10.670   0.472   6.103 -0.1568 -0.1679  0.0659
31822W        W48669   7.641  15.900  14.376  0.2105 -0.1777 -0.0562
31823W        W48670   8.412  10.225  15.028 -0.1157  0.0727 -0.1477
31824W        W48671  10.725   9.230   5.140  0.2929  0.1209  0.2596
31825W        W48672  17.340   0.232   2.678 -0.0015  0.0383  0.1491
31826W        W48673  17.387  16.030  13.325  0.0207 -0.2663  0.0080
31827W        W48674  14.350  17.031   4.998 -0.0892 -0.2082 -0.4565
31828W        W48675   2.125   0.957  15.318 -0.0739 -0.1427 -0.2290
31829W        W48676   0.629   4.834   5.121 -0.1855  0.1398  0.3787
31830W        W48677  16.443   1.999   2.999  0.0246  0.1047  0.2340
31831W        W48678   0.995   0.742  14.792  0.0050 -0.1055  0.2699
31832W        W48679   8.931   7.005  12.491  0.2190  0.3134 -0.1535
31833W        W48680   4.812   3.582   1.369  0.0002 -0.0343 -0.1572
31834W        W48681   8.993  16.387   2.920 -0.4475  0.3019 -0.3588
31835W        W48682  14.604  16.376   4.661 -0.2166  0.0263  0.3916
31836W        W48683   1.482  14.136  13.098 -0.0440 -0.1976  0.1308
31837W        W48684   0.033   2.114  14.154  0.1352 -0.1470 -0.3215
31838W        W48685  13.001   0.104  15.422  0.1477  0.0380  0.0372
31839W        W48686  16.053   6.742   2.078 -0.1889 -0.0030  0.2410
31840W        W48687  16.173   9.662  13.418 -0.1461 -0.2204  0.3764
31841W        W48688  12.050  11.167  15.718 -0.0364  0.1091 -0.1098
31842W        W48689   3.953   8.359   2.099  0.1865  0.0567  0.0380
31843W        W48690   7.522   5.264  12.477 -0.1388 -0.0344 -0.1156
31844W        W48691   1.185   7.154   2.008 -0.1643 -0.1129 -0.2340
31845W        W48692  11.220   4.964   4.594  0.1895  0.3176  0.0149
31846W        W48693  14.545  15.136   1.809  0.1631  0.0705  0.1117
31847W        W48694   7.990   8.260  13.623 -0.1240  0.2123  0.2798
31848W        W48695   1.934   1.197   3.963 -0.2308 -0.0573 -0.2874
31849W        W48696  11.712   4.652  12.301  0.4508  0.1181 -0.0125
31850W        W48697   6.079   9.816  13.827  0.2230  0.0308  0.1237
31851W        W48698   9.438  13.916  11.552  0.1212 -0.0732  0.4197
31852W        W48699  17.433  17.703  14.646  0.1042 -0.2337  0.0100
31853W        W48700  16.207   7.327  16.363 -0.0316  0.1528  0.0240
31854W        W48701   2.296   7.267   4.373  0.0235 -0.1376 -0.0139
31855W        W48702   1.036  11.123   3.518 -0.1197  0.1887  0.1613
31856W        W48703  14.230  11.486  13.396 -0.1001  0.0163 -0.0961
31857W        W48704   3.121   8.962   4.005  0.0129 -0.2117 -0.0443
31858W        W48705   0.662  15.347  12.372 -0.2196 -0.0473 -0.0868
31859W        W48706  10.172   1.749  12.295 -0.1818 -0.2980 -0.0821
31860W        W48707  17.476   9.319  13.393  0.1372  0.1491 -0.0276
31861W        W48708  10.778   2.860  11.858 -0.3537 -0.2990 -0.1646
31862W        W48709   3.788   8.266  16.216 -0.0761 -0.0526 -0.2277
31863W        W48710   5.298   1.353   1.941  0.2119 -0.0811  0.0746
31864W        W48711  10.233   0.679   3.745 -0.1100  0.0123  0.1816
31865W        W48712   3.759   4.368   1.806 -0.0452 -0.0971  0.2258
31866W        W48713  14.791   3.803  16.584 -0.1118 -0.0134 -0.4204
31867W        W48714   1.401   2.814  16.118 -0.0310  0.3201 -0.5868
31868W        W48715  16.923   4.358  14.184  0.1296 -0.3210  0.2528
31869W        W48716   3.725  10.828   2.784 -0.3115 -0.0685  0.0021
31870W        W48717  15.029   8.204   1.224 -0.3140  0.2525  0.1565
31871W        W48718   7.470  16.095   2.974 -0.0006  0.3237 -0.2029
31872W        W48719  15.752   8.512  14.552 -0.0532  0.3846 -0.1811
31873W        W48720  17.337   8.865   4.526 -0.2907  0.1815 -0.0921
31874W        W48721   4.968   8.929  13.820  0.2330  0.2057 -0.2011
31875W        W48722   7.362   6.506  12.279  0.2931 -0.1192 -0.1582
31876W        W48723   5.453  11.290   0.446 -0.0543  0.0649 -0.0907
31877W        W48724   0.182   7.322   5.290  0.0326  0.2262  0.2198
31878W        W48725  10.474  16.806  16.178  0.0839  0.0696 -0.3327
31879W        W48726  14.995   4.126  11.777  0.0061  0.1697  0.2158
31880W        W48727   5.314   3.222   4.729 -0.1252 -0.3840  0.0830
31881W        W48728   1.463  10.790   1.522  0.0020  0.0851 -0.0853
31882W        W48729   2.619   1.348  13.972 -0.2889  0.1003  0.0652
31883W        W48730   9.572  16.299  13.959  0.1799  0.2873 -0.0332
31884W        W48731  13.106  13.106  12.793 -0.1420 -0.0420  0.1754
31885W        W48732   6.882   3.972  15.650  0.0685 -0.2347 -0.1492
31886W        W48733   2.343   7.735   3.443  0.1413  0.3199 -0.1855
31887W        W48734   8.824   2.485   2.086 -0.0593  0.5918 -0.2439
31888W        W48735   2.553   9.419  15.028  0.2935  0.0494  0.2681
31889W        W48736   1.786  12.710   1.197  0.2040 -0.2747 -0.2975
31890W        W48737  13.580  11.191  12.207 -0.0827 -0.1793 -0.0055
31891W        W48738   5.866   9.847   6.308 -0.1896 -0.2165 -0.1037
31892W        W48739  15.745  15.446  13.565 -0.2048  0.0362 -0.0450
31893W        W48740  12.993   8.382  12.434 -0.1291  0.0772 -0.0853
31894W        W48741   6.820   4.361   0.499  0.3184 -0.1000 -0.2330
31895W        W48742  13.244  12.975   5.158 -0.3870 -0.1719 -0.0651
31896W        W48743   1.607  17.350  16.626  0.2107  0.2410  0.2339
31897W        W48744   5.286   0.804  12.619 -0.0728 -0.1375 -0.1851
31898W        W48745   7.566   8.699   1.094  0.0665 -0.0148 -0.3567
31899W        W48746  15.914   8.723   4.563 -0.1222  0.1361  0.1875
31900W        W48747  17.568   2.015  11.811  0.2025 -0.2276 -0.0596
31901W        W48748  17.414  13.305  15.014  0.2691 -0.0930 -0.1283
31902W        W48749  10.853   3.397  11.934  0.1785  0.0362 -0.1778
31903W        W48750   9.681  17.392  15.288  0.2352 -0.2139  0.2149
31904W        W48751   0.549   8.981  15.080  0.0440 -0.2757 -0.1341
31905W        W48752   3.236   5.991  12.439  0.0904  0.0409 -0.0401
31906W        W48753  14.319   0.765   4.310 -0.1970 -0.2050  0.0477
31907W        W48754  13.317   1.787   4.822 -0.2066 -0.2544  0.0071
31908W        W48755  12.116   6.583   0.002  0.2192 -0.0601  0.1095
31909W        W48756  17.611   0.892  14.000 -0.1890  0.0346  0.3589
31910W        W48757  12.806  16.997  11.772  0.1475  0.1137  0.0655
31911W        W48758  13.595   2.701   3.753  0.2557  0.0482  0.0104
31912W        W48759   6.459  13.469  12.494 -0.2461 -0.0898  0.3073
31913W        W48760  15.480   7.275  15.463 -0.1195  0.0588 -0.2005
31914W        W48761  10.123   5.991   2.351 -0.1517  0.0575  0.2976
31915W        W48762   1.687  10.343   1.556  0.0200  0.2119 -0.3102
31916W        W48763   6.199  10.340  16.600  0.0946  0.0823  0.0480
31917W        W48764  14.750   1.335  12.518  0.0379 -0.0911 -0.2234
31918W        W48765  14.607   2.463   4.841  0.2517 -0.0148 -0.0294
31919W        W48766   7.775   0.606   5.752  0.0190 -0.0663  0.2377
31920W        W48767   8.566  16.215  13.780  0.1237  0.0858 -0.1245
31921W        W48768  14.795   4.781   4.957  0.0467 -0.0476 -0.3093
31922W        W48769   5.140  14.167  16.115  0.1940  0.1743  0.0283
31923W        W48770   7.122   2.836  12.913  0.0680  0.0638  0.2684
31924W        W48771  11.309   5.652   1.526  0.3142 -0.1538 -0.2255
31925W        W48772   8.361   7.473   4.726 -0.1164  0.1277  0.0819
31926W        W48773   4.651   3.923   2.858  0.2091 -0.0337 -0.1534
31927W        W48774  17.454  14.522   4.950 -0.0901 -0.1312  0.0661
31928W        W48775  16.906  12.235  14.281  0.2282 -0.0857 -0.4226
31929W        W48776  17.997  15.821   5.339 -0.0571 -0.0283 -0.0850
31930W        W48777   9.269   2.525  15.696 -0.4018  0.1147  0.0101
31931W        W48778  14.607  16.026  13.075 -0.0305  0.3693  0.2996
31932W        W48779  10.456   4.330   4.210  0.3569  0.1969  0.0650
31933W        W48780   7.933  15.696  13.369 -0.3054 -0.0066 -0.1321
31934W        W48781   1.151  17.492   4.280  0.0953 -0.0585  0.0464
31935W        W48782  17.588   9.654   1.296 -0.1608  0.0285  0.0757
31936W        W48783   5.754   9.484  13.622 -0.0382 -0.0488 -0.0844
31937W        W48784  14.174  16.805  15.552 -0.2491 -0.1938 -0.1560
31938W        W48785   5.818   2.342   3.251 -0.4624  0.0533 -0.3836
31939W        W48786   0.806   4.436  16.167 -0.1411  0.2386  0.1076
31940W        W48787  16.969   8.968  15.530  0.2017 -0.0955  0.2890
31941W        W48788  13.693   1.459  12.830 -0.2692  0.0939 -0.1897
31942W        W48789  16.039   3.878   4.783  0.1432 -0.2465  0.0920
31943W        W48790  13.351  13.870   4.067 -0.1925  0.1647 -0.0832
31944W        W48791  14.876   5.210   2.597  0.1951  0.0217  0.0880
31945W        W48792   0.501   6.670  13.464  0.0833  0.0634 -0.1469
31946W        W48793  12.624  13.164   4.088  0.1967  0.0874 -0.0604
31947W        W48794   2.162  17.409  15.360  0.1449 -0.1004  0.1411
31948W        W48795   5.804   5.655   4.116 -0.1728  0.3675 -0.1551
31949W        W48796  17.190  12.163   4.332 -0.0295 -0.0937 -0.0365
31950W        W48797   1.835   8.736   5.731  0.4314  0.1032 -0.2382
31951W        W48798  14.787   1.994  11.545 -0.0957 -0.0876  0.2234
31952W        W48799  11.712  10.030  11.985  0.0191  0.0561  0.5006
31953W        W48800  12.233  10.148  14.365 -0.2099  0.0992 -0.1922
31954W        W48801  15.101   3.947   4.384 -0.2434  0.1845  0.0524
31955W        W48802   9.860  14.292  15.611 -0.0218 -0.0809 -0.1491
31956W        W48803  14.511  15.026   0.704  0.0261 -0.0310 -0.1642
31957W        W48804  16.702  14.865   1.477 -0.1188  0.1733  0.3227
31958W        W48805   8.226   3.188  15.992 -0.1725  0.0736 -0.1452
31959W        W48806  11.215  13.468   2.540  0.0038  0.2471 -0.0869
31960W        W48807   4.396   6.568   4.280  0.0566  0.3530  0.2039
31961W        W48808   9.470   6.447  12.109 -0.0284 -0.2960 -0.0227
31962W        W48809   9.540   3.002  13.433 -0.2708 -0.1532  0.0208
31963W        W48810  17.485   4.054  13.423 -0.3226  0.0342 -0.0652
31964W        W48811  14.886   1.196   2.562 -0.3614 -0.0644  0.0962
31965W        W48812  13.043   4.973   0.960 -0.2150  0.0042  0.1510
31966W        W48813  12.193   6.609  14.950 -0.0859 -0.0753  0.1791
31967W        W48814  12.982  14.053  14.479 -0.0734  0.0390 -0.4957
31968W        W48815  16.757  12.136   2.818  0.0716 -0.1044  0.1510
31969W        W48816   8.033   2.506  14.194 -0.1379  0.0223 -0.1317
31970W        W48817  11.523   8.926  10.444  0.4016 -0.4420 -0.2074
31971W        W48818   6.298  14.573  15.927  0.1114 -0.2604 -0.2751
31972W        W48819   2.561   9.248   2.633  0.0610 -0.2503 -0.1204
31973W        W48820   9.512  16.797   5.675 -0.0352 -0.1169 -0.0835
31974W        W48821   2.523   5.960  13.822 -0.1292  0.1154  0.0962
31975W        W48822   3.045   3.429   0.440 -0.1468 -0.1261  0.0031
31976W        W48823  12.668  12.465   2.556 -0.2766 -0.1960 -0.0660
31977W        W48824   5.086   0.266  15.619 -0.0448 -0.2188  0.0879
31978W        W48825   2.070   4.198  16.024 -0.0213  0.1109 -0.2346
31979W        W48826   0.579   7.507   2.828  0.0877  0.0699  0.0988
31980W        W48827   7.764   6.013  11.580  0.0212  0.1959 -0.0142
31981W        W48828   6.939  11.663   5.373 -0.0231 -0.0557  0.3041
31982W        W48829  17.826   8.735   1.855  0.3853 -0.0090 -0.1268
31983W        W48830  11.827   7.056  13.165 -0.0338 -0.3197  0.0567
31984W        W48831  10.623   6.276   2.155 -0.1062 -0.1588 -0.1054
31985W        W48832   4.479   7.052  12.337  0.3263  0.1428 -0.2180
31986W        W48833  11.929   2.979   1.954 -0.1733  0.0542  0.2516
31987W        W48834   7.114   1.954   1.418 -0.3082  0.0328  0.0082
31988W        W48835   7.035  11.354   6.310 -0.1309  0.0754 -0.3369
31989W        W48836   9.368  15.351   6.305  0.0757 -0.1381 -0.1998
31990W        W48837   4.392  16.895  11.737 -0.1805  0.0889 -0.3940
31991W        W48838  16.110  13.461  14.544  0.0792 -0.0968 -0.1377
31992W        W48839   2.691   7.561   5.874  0.2624 -0.1417 -0.3508
31993W        W48840   1.146  14.543  15.243  0.0025 -0.3943 -0.1301
31994W        W48841   8.429  16.256   5.105 -0.1864 -0.4089 -0.2098
31995W        W48842  17.944   8.445   0.908  0.0869  0.0088 -0.1313
31996W        W48843   8.366  17.342  13.854 -0.2034 -0.1466 -0.0617
31997W        W48844  15.783   2.130  15.321  0.1394 -0.2520 -0.0780
31998W        W48845  10.872   9.460   3.292  0.0455  0.0983 -0.0028
31999W        W48846   7.225   2.913  13.865  0.2768  0.1168  0.1103
32000W        W48847  17.932   0.596  16.252 -0.1132 -0.0633 -0.2508
32001W        W48848   0.806  15.037   3.430  0.1822  0.0962  0.1143
32002W        W48849   7.946   7.747  15.822 -0.3120 -0.3632 -0.0111
32003W        W48850   2.248   3.976  11.466 -0.4005  0.0279  0.2203
32004W        W48851   1.960   4.235  11.102  0.0043  0.2172  0.2928
32005W        W48852  11.461  12.408  14.765  0.0028  0.1102 -0.2022
32006W        W48853  11.764  10.548  11.842  0.1595  0.1649  0.1218
32007W        W48854   6.056  16.902  14.529  0.2535  0.0209  0.0663
32008W        W48855   8.725   2.505  15.294  0.1084  0.1498 -0.2927
32009W        W48856   7.372   0.297   3.920  0.0564  0.0136 -0.0678
32010W        W48857   2.274   8.018   4.297 -0.0215 -0.0987 -0.1114
32011W        W48858  14.588   7.064   0.171 -0.3875  0.0658 -0.1222
32012W        W48859   6.862   9.881   2.223 -0.0270 -0.0616  0.0592
32013W        W48860  16.499   9.415  15.407 -0.0582  0.0559 -0.0892
32014W        W48861   1.908   1.336   2.181  0.0176  0.2019  0.0134
32015W        W48862   4.034   9.891  16.059  0.1835  0.0770 -0.0761
32016W        W48863  13.753   3.080  13.175  0.1402  0.3420  0.0472
32017W        W48864   6.824  15.077  13.932 -0.1364  0.0165 -0.0546
32018W        W48865   6.428   8.049  12.435  0.1262  0.0594 -0.1425
32019W        W48866   6.753   4.490   1.031 -0.1093 -0.0912  0.1640
32020W        W48867  12.764   7.599   0.922  0.1283  0.1719  0.2501
32021W        W48868   9.808   5.528  16.561 -0.0761  0.1218 -0.0027
32022W        W48869  14.387  13.208  15.595  0.1310 -0.0304  0.0405
32023W        W48870  15.589  17.754  15.428  0.1222  0.1753  0.0210
32024W        W48871  14.375  14.451   5.952 -0.3541 -0.1161  0.1595
32025W        W48872  15.452   2.239  16.017 -0.1121  0.0752 -0.2354
32026W        W48873   7.071  16.885   0.710 -0.0287  0.0623  0.3660
32027W        W48874  10.548   6.495  12.584 -0.0207 -0.0062  0.0883
32028W        W48875  12.365  12.205   2.961 -0.2732 -0.0510 -0.0531
32029W        W48876   9.742  15.182  15.489  0.0668  0.1154  0.1120
32030W        W48877   0.313  13.846   3.072  0.0888 -0.1407  0.1936
32031W        W48878  10.911   2.622   0.380 -0.0645 -0.1017  0.0767
32032W        W48879   5.662  12.248  13.807  0.0868  0.1897 -0.1582
32033W        W48880   1.785  13.752  15.333  0.0359  0.1633  0.2047
32034W        W48881  14.631   0.336  14.351  0.1013 -0.0076 -0.1706
32035W        W48882   0.924  11.827   2.765 -0.0104  0.0653  0.2569
32036W        W48883  14.181  12.840  12.985  0.2043 -0.2880 -0.0331
32037W        W48884  16.882   6.493   4.421 -0.0448 -0.0400 -0.0350
32038W        W48885  12.351  13.235  16.009  0.1481 -0.0895 -0.2935
32039W        W48886   6.451  17.446   4.842  0.2122 -0.0801 -0.0374
32040W        W48887  17.734  14.228   2.270 -0.2627  0.0087  0.1185
32041W        W48888   1.890   1.403  15.023  0.0265  0.1936 -0.1086
32042W        W48889   7.227   4.263  14.109 -0.0752 -0.2706  0.2293
32043W        W48890   1.531   5.628   5.607 -0.2794  0.1361  0.0248
32044W        W48891  16.430   0.332   3.694 -0.2140 -0.2387 -0.2612
32045W        W48892   3.827  17.823   4.661 -0.1071 -0.0357 -0.1300
32046W        W48893  16.674  14.386   1.299  0.3379 -0.0545 -0.0111
32047W        W48894   9.636  10.021  13.283  0.1360  0.1035  0.3705
32048W        W48895  15.297   1.208   5.768  0.1743  0.0998 -0.2082
32049W        W48896   1.383   0.242  16.043  0.1735 -0.0366  0.2065
32050W        W48897   9.428  14.735   4.723  0.1124 -0.2339  0.2415
32051W        W48898  15.641  14.448   0.048 -0.2227 -0.2147 -0.1003
32052W        W48899   3.147   6.277   4.341  0.0268  0.1619 -0.0098
32053W        W48900   0.343   1.452  16.527 -0.0905 -0.1151  0.2307
32054W        W48901   3.030   8.196  13.066 -0.0902 -0.0315  0.2734
32055W        W48902  11.889  14.730  16.385 -0.1543  0.0743 -0.1025
32056W        W48903   0.695   6.543  15.386  0.3000  0.0786 -0.0105
32057W        W48904   0.936  13.846   2.608 -0.2489 -0.0652 -0.0702
32058W        W48905  11.110  15.642  11.873  0.0478 -0.0401  0.2639
32059W        W48906   0.680  17.319  11.238 -0.2299  0.0594  0.0189
32060W        W48907   1.159   1.935   3.770 -0.1246  0.0018  0.0200
32061W        W48908  13.212   2.621  13.524  0.2248  0.0261 -0.0875
32062W        W48909   5.186  10.066   0.268  0.3592  0.0518 -0.2199
32063W        W48910  10.394  16.095   1.857  0.2604  0.1014 -0.6075
32064W        W48911   9.530  13.841  12.461 -0.2224 -0.1000  0.0081
32065W        W48912  10.276   7.759  12.465 -0.0216  0.1268  0.3428
32066W        W48913   4.344   7.125  16.270 -0.1296  0.1714  0.0432
32067W        W48914   5.056   8.810   3.150  0.0566 -0.0929  0.1704
32068W        W48915   2.073   4.929   4.563 -0.1851 -0.0228  0.1541
32069W        W48916  17.515   5.838   1.093  0.0179 -0.0583  0.1147
32070W        W48917  14.981  10.518  13.104 -0.2288  0.1215 -0.1263
32071W        W48918  16.605  11.634  14.949  0.0391 -0.1342  0.3474
32072W        W48919   3.619   4.744   2.074 -0.0183 -0.0479 -0.1418
32073W        W48920   5.881  15.759  12.047  0.1225 -0.3080 -0.1209
32074W        W48921  13.638   3.011  15.454  0.1086 -0.0599  0.2304
32075W        W48922   3.206   5.253   4.068  0.0781 -0.0911  0.2022
32076W        W48923   2.605   5.018  13.437 -0.1088 -0.1899  0.1166
32077W        W48924   1.642  11.322   2.771  0.0924  0.1230  0.0271
32078W        W48925   0.876  13.850   1.187 -0.2050  0.1957  0.0014
32079W        W48926   1.499  11.072  14.591  0.0230  0.0790 -0.2495
32080W        W48927  12.866  12.809  16.560 -0.1567  0.4108  0.0191
32081W        W48928   2.465   9.618   0.465  0.1043 -0.0435 -0.0958
32082W        W48929  12.986   4.092  12.777 -0.3508  0.3497 -0.1178
32083W        W48930  15.275  11.950   0.859 -0.0207  0.0929  0.0760
32084W        W48931  17.616   4.602   3.870  0.2219  0.1934 -0.3089
32085W        W48932   4.889   4.408   0.487  0.0566  0.1257  0.1490
32086W        W48933  17.194  15.315  14.621 -0.1799 -0.1395 -0.1785
32087W        W48934  11.393  12.757   4.756 -0.1716  0.1243  0.0757
32088W        W48935  14.368  15.650   1.805 -0.3683 -0.0294 -0.1845
32089W        W48936  16.194   2.555  14.413 -0.0256  0.3100  0.1006
32090W        W48937   8.408  12.955  11.769 -0.3065  0.2870 -0.2919
32091W        W48938  11.415   7.692  15.258  0.0237  0.0085  0.0500
32092W        W48939   3.876   8.521  12.704 -0.2043 -0.2922  0.2234
32093W        W48940   1.934  17.114  12.957  0.0465  0.2596  0.0573
32094W        W48941   9.627   6.527  13.851 -0.1571 -0.0204  0.2312
32095W        W48942  11.166   6.503  13.371  0.0368  0.0697  0.3304
32096W        W48943   9.502   3.329  15.283  0.1897 -0.2741  0.3071
32097W        W48944  11.365  14.867  13.692 -0.3212  0.1808 -0.1860
32098W        W48945  17.529  18.007   2.328  0.0934  0.0248  0.1940
32099W        W48946  11.403   5.944  14.064  0.4157  0.0494  0.1257
32100W        W48947  11.445   2.932   1.805 -0.2603  0.2208 -0.0097
32101W        W48948   2.653   2.369  13.396  0.2656  0.1252 -0.2958
32102W        W48949  16.812   8.330   4.253  0.0551 -0.4689 -0.3455
32103W        W48950  10.036  10.359  15.155 -0.0963  0.2592  0.1958
32104W        W48951   3.723  12.251   3.695  0.1142 -0.1924  0.1579
32105W        W48952   5.332   2.172  11.988  0.2981 -0.0344  0.0009
32106W        W48953   9.415  11.941  16.276  0.0759  0.1688 -0.0348
32107W        W48954   8.044  11.176  13.260 -0.1028 -0.1661 -0.1061
32108W        W48955   0.667  14.254   0.237  0.0218 -0.0960 -0.5141
32109W        W48956   5.657  13.476   2.988 -0.1280 -0.2839 -0.0129
32110W        W48957   7.147   8.433  14.050 -0.3280 -0.0965 -0.4015
32111W        W48958  10.045  10.560  12.093 -0.1755  0.0048  0.2142
32112W        W48959  14.019  12.951  14.157 -0.1678 -0.0277  0.1756
32113W        W48960  14.442   8.637  12.461 -0.1295 -0.1872  0.0804
32114W        W48961  14.268  17.238   4.564 -0.0403 -0.0482 -0.2156
32115W        W48962   9.159   6.204   1.057  0.1863 -0.0051  0.0661
32116W        W48963   3.159   7.689   3.011  0.1977 -0.0279 -0.5211
32117W        W48964   8.901   5.303  11.541 -0.1538  0.1683  0.1782
32118W        W48965   2.096   5.056  12.495 -0.2741  0.0152 -0.2269
32119W        W48966   7.380  14.526   3.440  0.1336  0.0556  0.3708
32120W        W48967   1.530  12.798  16.216  0.0880 -0.1930  0.2855
32121W        W48968   5.605   7.300  12.625 -0.1502  0.3528 -0.0256
32122W        W48969   9.232   9.426  12.166 -0.1713  0.1252  0.3862
32123W        W48970  11.186  11.238   5.743  0.0275  0.0561 -0.2532
32124W        W48971  17.086  13.974   2.878  0.0738  0.1725  0.0406
32125W        W48972   7.015   9.638   0.745 -0.0836 -0.1730 -0.2751
32126W        W48973  13.306  13.101  16.306 -0.3522  0.0564  0.1824
32127W        W48974   3.847  10.409  11.518 -0.4135  0.2993  0.1285
32128W        W48975   1.731   3.342  11.808  0.1465 -0.0060  0.2191
32129W        W48976  15.359   5.832   4.709 -0.2324  0.0140  0.0410
32130W        W48977  17.059   5.350  11.830  0.3295  0.0111 -0.4151
32131W        W48978   3.895   8.290  15.735 -0.2680  0.0799  0.1087
32132W        W48979   1.963  10.262   2.471 -0.1765 -0.1562  0.1419
32133W        W48980   0.938   6.307   2.555  0.0229  0.1479  0.1534
32134W        W48981  16.824  12.629   3.002 -0.1346 -0.1627 -0.1671
32135W        W48982  13.925  15.620   0.323 -0.1227  0.1467 -0.0983
32136W        W48983   0.523   1.250  14.051  0.0898 -0.0802  0.4178
32137W        W48984  15.899  10.220  14.203 -0.1134 -0.1853  0.0621
32138W        W48985  13.358  18.026  13.027 -0.2076 -0.4240  0.1207
32139W        W48986  14.875  16.761  11.628 -0.1294  0.1540 -0.1549
32140W        W48987  16.597  10.722  12.676  0.3866  0.3267  0.0398
32141W        W48988   8.140  14.065  12.367 -0.0811 -0.0139 -0.0267
32142W        W48989  15.051   2.292   5.118 -0.2880 -0.2469 -0.3433
32143W        W48990   1.066   0.364   2.040 -0.2475  0.0591  0.2080
32144W        W48991  10.700   1.511  13.235  0.3257 -0.3575  0.3230
32145W        W48992  15.578   6.796  15.581 -0.3259  0.0577  0.0633
32146W        W48993  16.418  10.420  16.477  0.2038  0.0728 -0.3395
32147W        W48994  15.023  12.416   5.484 -0.2936  0.0069  0.0596
32148W        W48995  14.087   3.922  13.066 -0.0239  0.0341 -0.0479
32149W        W48996   0.211  15.603   3.027  0.2653  0.0559  0.3810
32150W        W48997   3.675   0.908   3.686  0.1128 -0.0805  0.0581
32151W        W48998  17.191  10.882  13.824 -0.0669  0.2367  0.1168
32152W        W48999   2.580   1.190   3.653  0.0470 -0.0441 -0.0330
32153W        W49000  10.163  13.208  14.963 -0.1900  0.1617 -0.1286
32154W        W49001  15.764   8.421   2.293 -0.2698  0.2370 -0.1589
32155W        W49002  10.653   4.903  12.959  0.1014 -0.1701 -0.0578
32156W        W49003   3.151  12.203  15.880  0.3855 -0.1492 -0.1262
32157W        W49004   5.198   5.799   5.339 -0.0967 -0.0924  0.1280
32158W        W49005   6.688  16.808  13.610  0.2493  0.2919 -0.1569
32159W        W49006   1.041   8.718   5.098  0.1092  0.0124 -0.0897
32160W        W49007   3.067  14.699   3.032 -0.0321 -0.0738  0.0384
32161W        W49008  12.826  13.274  13.187  0.3486 -0.0395  0.0131
32162W        W49009   0.254  15.194   3.325 -0.2860  0.0091 -0.0123
32163W        W49010  16.153  14.503  14.994 -0.1977  0.2044 -0.0326
32164W        W49011   5.252  17.877  15.452 -0.2358 -0.0887  0.3144
32165W        W49012  15.173   8.898  15.996 -0.0765  0.1152 -0.1629
32166W        W49013  16.683   0.148  15.204 -0.0007  0.2786  0.0973
32167W        W49014  15.785   7.925   3.058  0.0130  0.0286 -0.3052
32168W        W49015   1.458  16.672  16.607  0.0234  0.1061 -0.1763
32169W        W49016   9.216   6.034   2.363  0.1412 -0.2166 -0.1036
32170W        W49017   1.816  13.054  16.486  0.0670  0.1716  0.1386
32171W        W49018  15.193  14.564  12.095  0.1745  0.1241  0.0515
32172W        W49019  17.440   1.989   2.857  0.0880  0.0373 -0.3660
32173W        W49020   3.188   1.556   2.563 -0.4441  0.3278 -0.3674
32174W        W49021  13.870   6.094  15.677 -0.2345 -0.4900  0.0261
32175W        W49022   1.011   7.093   4.246  0.3695 -0.1344 -0.1677
32176W        W49023  14.701  15.196   3.329  0.3191 -0.1125  0.0929
32177W        W49024  10.738  17.321   4.740 -0.1820  0.2502  0.1002
32178W        W49025  17.591   2.253   4.328  0.4001 -0.2907 -0.3594
32179W        W49026  14.027   6.445  15.354 -0.1850  0.0423 -0.4831
32180W        W49027   4.556   7.205  14.748 -0.0220  0.1702 -0.0271
32181W        W49028  15.387   0.432  16.572  0.2290 -0.0847  0.1736
32182W        W49029   1.917   3.732  15.356  0.2101 -0.0017  0.0183
32183W        W49030   8.723  11.056  16.399 -0.2210  0.0663 -0.2079
32184W        W49031  11.467  15.719   0.626 -0.1035 -0.1472 -0.0716
32185W        W49032   0.031   0.437  13.265  0.1649 -0.1790  0.3633
32186W        W49033   0.442   2.824   5.813  0.3600  0.1363 -0.2249
32187W        W49034  14.538   4.319   5.343  0.0949  0.1966  0.0971
32188ION     NA49035   7.404   5.812  10.743 -0.2443  0.0143  0.1433
32189ION     NA49036   6.869   1.461  10.585 -0.1486  0.0649 -0.0960
32190ION     NA49037   2.254  18.070  13.625 -0.1719 -0.2991  0.2904
32191ION     NA49038  14.286   8.276  10.806 -0.0609 -0.2473  0.0215
32192ION     NA49039  11.779   8.516  10.803 -0.1411 -0.0210 -0.2412
32193ION     NA49040   7.266  10.473  11.402  0.1089 -0.0679  0.1133
32194ION     NA49041  15.482  11.767  14.805 -0.1494  0.0820  0.0450
32195ION     NA49042   1.569   4.043  10.752 -0.1777  0.0207  0.0775
32196ION     NA49043  13.989  14.792   3.843  0.3850 -0.1652 -0.2941
32197ION     NA49044  12.417  16.435   9.910 -0.2027 -0.2112 -0.0590
32198ION     NA49045  11.328   0.617  10.685 -0.1496 -0.1696  0.2323
32199ION     NA49046  16.149  13.480  10.825  0.0633 -0.2217 -0.2492
32200ION     NA49047   0.098   7.780  14.301 -0.2503  0.0755 -0.1294
32201ION     NA49048  13.823   3.605  10.580  0.1048 -0.1758  0.0743
32202ION     NA49049  17.386  13.822   1.371  0.0433  0.0367  0.2131
32203ION     NA49050  10.928   3.238  10.632 -0.1667 -0.1110  0.2751
32204ION     NA49051   5.339  13.172  10.773  0.1969 -0.2969  0.0469
32205ION     NA49052  13.705   2.152  10.227 -0.5091 -0.1111  0.1009
32206ION     NA49053   0.628   9.171   5.683 -0.0558 -0.1033  0.1743
32207ION     NA49054  15.270   8.210  15.288 -0.1859  0.0486  0.1900
32208ION     NA49055   5.885  10.654  14.655  0.1981 -0.0944 -0.0896
32209ION     NA49056   0.609  13.368  10.918 -0.1744  0.2752 -0.2206
32210ION     NA49057  17.750   1.124  10.721 -0.1936  0.2700  0.3190
32211ION     NA49058   8.363   3.574   6.237  0.3576 -0.0156 -0.0189
32212ION     NA49059   1.788   2.770  16.587  0.3527 -0.1939  0.2124
32213ION     NA49060  11.591   1.493  10.532 -0.1360  0.0034  0.0236
32214ION     NA49061   3.822  17.293   2.227  0.0552  0.1371  0.0348
32215ION     NA49062   1.072  16.631  11.709  0.0001 -0.1646 -0.1104
32216ION     NA49063  15.960  11.260  10.929  0.2424  0.3321  0.2026
32217ION     NA49064   8.842   9.598   3.397 -0.0351 -0.0638  0.3589
32218ION     NA49065   1.299  11.423   3.211 -0.0700 -0.0182  0.0076
32219ION     NA49066   5.046  10.858  16.333 -0.0752 -0.0027 -0.0434
32220ION     NA49067   9.845  16.197  10.534  0.3942  0.2358 -0.2470
32221ION     NA49068   3.134  14.955  10.907  0.0392  0.1142  0.1516
32222ION     NA49069   9.021  10.022   6.008  0.1780 -0.0613 -0.2877
32223ION     NA49070  10.433  14.200   1.698 -0.1003  0.2477 -0.1368
32224ION     NA49071  15.227  15.200   2.378 -0.0538  0.1262 -0.4729
32225ION     NA49072  15.938  16.941  13.302  0.1058 -0.0598 -0.1041
32226ION     NA49073   2.070   0.322   2.936  0.1990 -0.1301 -0.1097
32227ION     NA49074   7.429   3.956  10.755  0.0310 -0.0139 -0.0023
32228ION     NA49075  17.900  14.458  10.666 -0.1280 -0.0020  0.2075
32229ION     NA49076  12.263  17.822   2.965 -0.0555 -0.2105  0.0737
32230ION     NA49077  10.970  12.809  15.175 -0.0507  0.0018  0.0121
32231ION     NA49078   9.105  15.652  10.749 -0.0511  0.1003  0.3454
32232ION     NA49079   8.024   5.431  10.780  0.0560 -0.0611  0.0123
32233ION     NA49080  14.526   5.056  10.499 -0.1038  0.2043 -0.1158
32234ION     NA49081  15.601  12.750  10.668 -0.0526 -0.1116  0.2703
32235ION     NA49082   9.240  16.509   1.081  0.1129 -0.0692  0.0358
32236ION     NA49083   3.139  10.388  16.156  0.1689 -0.0137 -0.1738
32237ION     NA49084  10.963   4.453  11.094  0.0788 -0.0677 -0.3010
32238ION     NA49085   5.361  10.046   6.232 -0.1335  0.1633 -0.2402
32239ION     NA49086   6.304  13.864  11.337 -0.0257 -0.0507 -0.3214
32240ION     NA49087   6.223   8.341   5.339  0.3255 -0.1098 -0.1726
32241ION     NA49088   4.693  16.105  11.540  0.1377 -0.0859  0.2013
32242ION     NA49089   3.061  12.344  11.157 -0.0039  0.1208 -0.2939
32243ION     NA49090   1.540   1.491  10.536 -0.3263  0.1968 -0.1207
32244ION     NA49091   8.640  15.412   5.785 -0.1935 -0.2179  0.0449
32245ION     NA49092  12.612  16.190   5.863 -0.1257  0.0908 -0.0356
32246ION     NA49093   5.983  15.802  10.609  0.0800  0.3198  0.0144
32247ION     NA49094   8.225   4.534  10.827  0.0415 -0.1182  0.0064
32248ION     NA49095   4.890  13.228   6.074 -0.3005 -0.0180  0.1641
32249ION     NA49096   1.482   6.709   6.133  0.0074 -0.2815 -0.0600
32250ION     NA49097   4.733   2.563  10.131  0.0614 -0.0965  0.1392
32251ION     NA49098   2.962   0.441  10.600 -0.1107 -0.3131 -0.0047
32252ION     NA49099   9.745   5.815  10.934 -0.1474  0.1097 -0.3064
32253ION     NA49100  10.528   1.012  15.141  0.0950  0.2538  0.0970
32254ION     NA49101   6.100   0.957  10.557  0.1564  0.2393  0.0583
32255ION     NA49102  10.543   8.030  10.755  0.1140 -0.2584  0.1265
32256ION     NA49103   1.950   9.275   6.156 -0.1772  0.1658 -0.0560
32257ION     NA49104   0.912   5.077   4.527  0.1351  0.2307  0.3592
32258ION     NA49105  17.475  12.694  10.852  0.1263  0.1062 -0.3573
32259ION     NA49106   0.017   3.386  15.938 -0.0138  0.2069 -0.3298
32260ION     NA49107   1.707  16.243   6.026 -0.0716 -0.1098  0.2025
32261ION     NA49108   2.050   9.939  10.642 -0.0212 -0.1025 -0.1452
32262ION     NA49109   4.615  14.315  14.841  0.0841 -0.1231 -0.0520
32263ION     NA49110  17.007   1.900  11.863 -0.1902  0.2047 -0.2002
32264ION     NA49111   4.927   6.385   5.800 -0.1457 -0.0690 -0.1904
32265ION     NA49112   6.639   0.120  10.614  0.2261  0.0340  0.2908
32266ION     NA49113  17.564   4.545  10.931 -0.3659 -0.2271  0.0455
32267ION     NA49114  14.974  14.903   3.787  0.0724  0.0689 -0.0136
32268ION     NA49115   0.387   3.035  10.768  0.1443  0.2209 -0.2049
32269ION     NA49116   1.558   7.979  10.956  0.1068  0.3283 -0.0493
32270ION     NA49117   6.043   9.671   5.779  0.2478 -0.0830  0.0725
32271ION     NA49118   4.257   7.762  11.052 -0.0333  0.0773 -0.4862
32272ION     NA49119  11.102  13.412  10.775  0.0132 -0.0658 -0.0966
32273ION     NA49120   5.978   8.108  15.747 -0.3116  0.0494 -0.0279
32274ION     NA49121   0.853   4.696  10.502 -0.2294  0.1556 -0.0654
32275ION     NA49122  13.191   0.322   1.024 -0.1142 -0.1096  0.0043
32276ION     NA49123  15.077  10.924  15.041 -0.0939  0.0850 -0.3169
32277ION     NA49124   5.744  11.710  11.131 -0.1073 -0.0690  0.0851
32278ION     NA49125   3.571  10.029  10.943  0.0816  0.0054  0.0771
32279ION     NA49126   2.269  12.653  10.909  0.2933 -0.1098 -0.0772
32280ION     NA49127   9.630  12.203   1.146  0.3385 -0.1399  0.0022
32281ION     NA49128   1.496   1.006  10.693  0.0630  0.1629  0.0426
32282ION     NA49129  15.174  11.182  10.947  0.1064 -0.2659  0.0641
32283ION     NA49130   6.900  15.757  10.611  0.0381  0.3351 -0.0751
32284ION     NA49131  16.159  17.861  10.536  0.2280  0.0245  0.0821
32285ION     NA49132   6.592  14.155   1.573 -0.2472  0.1951 -0.1916
32286ION     NA49133  12.404   5.587  10.832  0.0886 -0.0157  0.1522
32287ION     NA49134   9.731   4.940  10.685  0.1731  0.2522  0.3086
32288ION     NA49135   9.097  11.477  10.776  0.2214 -0.0694  0.0593
32289ION     NA49136  12.610   0.109  10.023  0.2026  0.0639  0.0839
32290ION     NA49137  11.953   8.015   6.165 -0.1600 -0.0433  0.0060
32291ION     NA49138  12.349  11.304   0.567  0.1220 -0.0662 -0.2116
32292ION     NA49139   3.701   3.566   5.722  0.0998 -0.1057 -0.0033
32293ION     NA49140  16.730  11.801   5.662 -0.0309  0.1770  0.1191
32294ION     NA49141  10.875   0.989  10.397 -0.0440  0.1289 -0.3486
32295ION     NA49142  12.377   8.429   2.543 -0.1036  0.2543 -0.1938
32296ION     NA49143  11.963  17.669  10.077 -0.1347  0.1144  0.2169
32297ION     NA49144  16.511   4.715   2.197 -0.1155 -0.1195 -0.3086
32298ION     NA49145   8.973  14.970   5.037  0.1148 -0.0395  0.2434
32299ION     NA49146   2.354  14.751   1.402  0.0289 -0.1901  0.1237
32300ION     NA49147  11.339  12.234  10.983  0.0158 -0.1760  0.0076
32301ION     NA49148  13.905  13.688  10.530 -0.1255 -0.0581  0.3614
32302ION     NA49149  12.890  15.296  15.480 -0.0552 -0.0579 -0.0926
32303ION     NA49150   0.615  15.378  15.500 -0.0299  0.0886  0.1189
32304ION     NA49151   0.383  16.608   5.779  0.1228  0.0495  0.3121
32305ION     NA49152  17.832   7.856  13.430  0.1336  0.2162  0.3301
32306ION     NA49153   8.967  11.752   2.467  0.1177  0.0204 -0.3577
32307ION     NA49154  10.401  17.464   2.929  0.2830 -0.1102 -0.0510
32308ION     NA49155  12.247   7.875  16.253  0.1734  0.1282 -0.0760
32309ION     NA49156  10.496  15.314  11.152 -0.1233  0.0673  0.0860
32310ION     NA49157  14.176   0.017  10.227  0.0451 -0.2394 -0.1777
32311ION     NA49158  10.002  13.027  13.153  0.0051 -0.0002  0.0233
32312ION     NA49159  10.688  11.433   5.859 -0.0437 -0.1104 -0.1897
32313ION     NA49160   0.533   1.854  10.656 -0.1224  0.1268  0.4720
32314ION     NA49161  15.181   0.063  10.314  0.0865  0.1259 -0.0621
32315ION     NA49162  16.732   3.179  13.673 -0.3191 -0.2758 -0.0411
32316ION     NA49163  14.099   8.784   2.844  0.0255 -0.0942  0.2897
32317ION     NA49164   9.609   7.802  10.768  0.1164  0.1967  0.0882
32318ION     NA49165  12.969  11.636  10.640  0.0805 -0.1496 -0.0438
32319ION     NA49166  17.242   7.514   2.212  0.1603  0.3342 -0.1107
32320ION     NA49167  12.045   8.231  14.236 -0.0850  0.1806  0.3429
32321ION     NA49168  17.828  13.733   5.794  0.2884  0.0385 -0.2417
32322ION     NA49169   8.171   6.986  10.804 -0.1964 -0.0677 -0.3127
32323ION     NA49170  14.397   9.624  10.831  0.1520  0.1564  0.1116
32324ION     NA49171  11.038   4.162  10.696 -0.0424  0.1183  0.0851
32325ION     NA49172   3.862   2.163  10.277 -0.1695 -0.0905 -0.1584
32326ION     NA49173  13.190   3.608   5.348  0.2493 -0.0872  0.1116
32327ION     NA49174   1.940   4.502  12.392  0.0290 -0.3353  0.3398
32328ION     NA49175  12.644  16.165  13.423 -0.2720 -0.1742 -0.3471
32329ION     NA49176   3.867  13.509  11.086  0.0983  0.2199  0.1363
32330ION     NA49177   0.610   0.846  10.526  0.0829 -0.0603  0.0102
32331ION     NA49178   9.012   9.174  10.811  0.0723  0.1712  0.2917
32332ION     NA49179   2.079   0.271  10.746  0.1150  0.1243 -0.0597
32333ION     NA49180  12.864   2.705  11.721 -0.1323  0.3365  0.0444
32334ION     NA49181   9.215  15.154   1.994  0.1413  0.0036  0.2201
32335ION     NA49182  12.623   6.473  10.758 -0.1515 -0.1146 -0.1684
32336ION     NA49183   8.080  13.725  10.884 -0.0056  0.0490 -0.1374
32337ION     NA49184  17.914  16.762  15.260 -0.1713  0.1228 -0.1354
32338ION     NA49185   5.342   4.608   3.425  0.0894  0.2991 -0.1291
32339ION     NA49186  17.798   3.647  10.590  0.2678 -0.1118  0.0789
32340ION     NA49187  10.365   3.075  11.631  0.0392 -0.0861  0.2549
32341ION     NA49188  11.547  10.479   5.881 -0.1416  0.0424  0.4377
32342ION     NA49189  13.517   6.183  10.581  0.3694  0.1644 -0.0845
32343ION     NA49190   7.707   1.136   3.082 -0.0824  0.0818 -0.2680
32344ION     NA49191   9.958   1.244  10.688  0.2001  0.2978 -0.2111
32345ION     NA49192   6.843   0.627  10.500 -0.2345  0.3858  0.0155
32346ION     NA49193   9.479   2.645   0.714  0.1630  0.2511 -0.1009
32347ION     NA49194   6.362  11.237   4.710 -0.0509 -0.0335 -0.0701
32348ION     NA49195   9.960   7.718   0.620 -0.0901  0.3624  0.2220
32349ION     NA49196   0.539  11.820  10.910  0.3067  0.1570  0.0506
32350ION     NA49197   1.632  12.138  11.125 -0.0237 -0.0284  0.2771
32351ION     NA49198   5.475  12.587  10.872 -0.3455 -0.1287 -0.3024
32352ION     NA49199   8.650   8.779   6.097  0.1302  0.0285 -0.0979
32353ION     NA49200   2.084  13.555  10.980 -0.2135 -0.2218  0.0556
32354ION     NA49201   5.507  14.644   5.712 -0.5387  0.1318 -0.3691
32355ION     NA49202   2.115   2.260  10.317  0.0519 -0.1875 -0.0235
32356ION     NA49203   8.455   6.036  10.590  0.0221 -0.0384  0.1341
32357ION     NA49204  10.141   1.663   2.827 -0.2544 -0.0856  0.3280
32358ION     NA49205   8.991  14.114  10.775  0.0678  0.0456 -0.0508
32359ION     NA49206   8.646  16.518  10.642  0.2959 -0.0122  0.1116
32360ION     NA49207  17.897  17.386  10.632 -0.0804  0.2249  0.0391
32361ION     NA49208  13.823  11.445  10.825 -0.0735  0.0496 -0.0569
32362ION     NA49209   1.672  11.160  10.966  0.2048  0.1375  0.0167
32363ION     NA49210   5.445  14.477  10.736  0.1941 -0.0319  0.1109
32364ION     NA49211   6.691   4.302  10.717  0.0009 -0.0693  0.0316
32365ION     NA49212  11.366  14.634  16.344  0.1509 -0.0986 -0.1621
32366ION     NA49213   3.389  11.034  11.097 -0.1108 -0.0470 -0.1481
32367ION     NA49214  16.926  13.886   2.426  0.0713 -0.0125  0.1163
32368ION     NA49215  11.080   9.678   1.051  0.0731 -0.1125 -0.3204
32369ION     NA49216   1.438  16.781  10.826  0.2882  0.0247 -0.0739
32370ION     NA49217   7.691   4.348  14.547  0.2643  0.0628  0.0484
32371ION     NA49218   2.559   8.717  13.586  0.4488  0.1363  0.1882
32372ION     NA49219  16.032   3.588   5.955 -0.1783  0.3567 -0.0162
32373ION     NA49220   6.299  14.459  10.760 -0.0702 -0.2329 -0.0974
32374ION     NA49221   1.287   3.344  10.523 -0.2191 -0.3269 -0.0569
32375ION     NA49222   3.750   4.727  10.663  0.1837 -0.0192 -0.3203
32376ION     NA49223  13.058  14.053  10.522  0.0174 -0.0032  0.2507
32377ION     NA49224   1.358  14.043  10.919  0.2619  0.1980  0.0640
32378ION     NA49225   0.021   0.629   6.211 -0.1227 -0.0510  0.1671
32379ION     NA49226  10.573  17.574   6.162  0.3246 -0.1040 -0.3461
32380ION     NA49227  12.968  10.147  10.796  0.0242 -0.0465  0.0027
32381ION     NA49228   9.944   3.028  10.793  0.0932  0.0890 -0.1210
32382ION     NA49229  11.709  12.067   0.042  0.0135  0.0754 -0.1091
32383ION     NA49230   7.303  16.971   3.995 -0.0383  0.0438 -0.1292
32384ION     NA49231  14.716  16.247  12.087 -0.0498  0.1271 -0.2265
32385ION     NA49232   5.857   0.437  10.538 -0.2577 -0.1940  0.2788
32386ION     NA49233   5.540   2.420  10.521 -0.0491 -0.1266 -0.0239
32387ION     NA49234  13.125   1.991  10.425 -0.3643 -0.2338 -0.1338
32388ION     NA49235   0.613   6.279  11.977 -0.1138 -0.2003  0.1954
32389ION     NA49236   0.417  11.239  16.102 -0.0274 -0.0446 -0.2097
32390ION     NA49237   4.705   1.788  10.289 -0.2043 -0.0470  0.1680
32391ION     NA49238  13.777  18.035   2.066  0.1110 -0.0840  0.0278
32392ION     NA49239  15.369   8.125  10.774  0.0668  0.0339  0.0125
32393ION     NA49240   3.854  14.336  10.933 -0.0390 -0.0530  0.3023
32394ION     NA49241  16.044   7.574  10.795  0.5166 -0.1457  0.0579
32395ION     NA49242  10.683  14.874  10.700  0.1081  0.3224  0.1458
32396ION     NA49243   2.306  14.121   4.361 -0.0914  0.0578 -0.0392
32397ION     NA49244  16.819   8.059  10.731  0.0901 -0.0498  0.2274
32398ION     NA49245  16.711   8.857  10.628 -0.0616  0.1429  0.2060
32399ION     NA49246   2.853   0.037  13.100 -0.1511 -0.0376 -0.0517
32400ION     NA49247  12.362   1.354   5.076  0.1576 -0.0006  0.0856
32401ION     NA49248   0.507  15.672  11.963  0.1019 -0.1800 -0.1141
32402ION     NA49249   9.600   4.321  11.431 -0.1244  0.0168  0.1703
32403ION     NA49250  16.120  15.304  13.249  0.2734  0.0456  0.0035
32404ION     NA49251   6.290   7.308  10.940 -0.3714  0.0230 -0.1013
32405ION     NA49252  15.974   5.360   2.483 -0.1916  0.0279 -0.0432
32406ION     NA49253   4.648  14.836  10.623 -0.0788  0.1535  0.0216
32407ION     NA49254   4.446  13.991   5.967  0.1426  0.0388  0.0193
32408ION     NA49255  13.108  15.378   5.685  0.3572 -0.3633 -0.0807
32409ION     NA49256  15.778   4.130  10.533  0.0199  0.1418 -0.0796
32410ION     NA49257  16.627  13.001   6.021  0.3626 -0.1992 -0.0064
32411ION     NA49258  15.918   9.754   6.013  0.0042  0.1408  0.0239
32412ION     NA49259   2.601   2.159   5.849  0.0679 -0.0617  0.0717
32413ION     NA49260  10.491   3.818   5.746  0.2662 -0.0858 -0.0958
32414ION     NA49261   8.170  10.059  13.951  0.1054 -0.2486 -0.1357
32415ION     NA49262  18.062  16.846  11.208  0.0755  0.3430  0.0410
32416ION     NA49263   9.092   1.716   3.396 -0.0640  0.0349  0.1396
32417ION     NA49264  12.134  15.963   1.392 -0.0858  0.0952  0.0409
32418ION     NA49265  10.982   9.694  10.585 -0.1762 -0.0768 -0.0621
32419ION     NA49266   6.897   7.994   5.882 -0.1505 -0.1010  0.0919
32420ION     NA49267   3.731  16.393  10.683  0.0654 -0.1204  0.2268
32421ION     NA49268  14.319   3.978   1.545  0.0134  0.0848  0.2161
32422ION     NA49269   9.451   9.161   5.798 -0.1397  0.2917  0.2071
32423ION     NA49270   6.694   4.211  14.151 -0.0258 -0.1017  0.0357
32424ION     NA49271   1.667  17.946   5.466  0.0825 -0.0378 -0.1733
32425ION     NA49272   2.357   8.062   6.218  0.1858 -0.0008  0.0490
32426ION     NA49273   3.253  15.590  10.554  0.1118 -0.1740 -0.3315
32427ION     NA49274   7.798  12.877  11.004 -0.2458 -0.3209 -0.0421
32428ION     NA49275  16.516  10.572  10.951  0.1595  0.1094 -0.1297
32429ION     NA49276   0.131   1.975   6.030 -0.0152 -0.1398 -0.0578
32430ION     NA49277   7.687  17.720   5.737  0.0975 -0.0579  0.0244
32431ION     NA49278  11.224  14.256  10.587  0.0248  0.1544 -0.4420
32432ION     NA49279   8.522   6.106  11.455  0.0206  0.0352 -0.0116
32433ION     NA49280  13.552   7.888  10.813  0.1643  0.2094 -0.1519
32434ION     NA49281  10.480   5.275  10.848 -0.1415 -0.2788 -0.0093
32435ION     NA49282  13.828  14.542  10.308 -0.2384 -0.1548  0.0871
32436ION     NA49283   2.245   6.433   5.619  0.0886  0.0296 -0.0473
32437ION     NA49284   7.179  10.714   4.375 -0.0407 -0.2804 -0.0195
32438ION     NA49285   5.108  16.147  10.768 -0.1407  0.1046  0.1223
32439ION     NA49286   3.689   6.116  10.893 -0.0070  0.0258  0.0726
32440ION     NA49287  16.026  14.876   2.440  0.0768  0.0458 -0.0032
32441ION     NA49288  10.740  12.999  10.724  0.1893  0.1237  0.0160
32442ION     NA49289  15.156   5.799  10.549 -0.0096 -0.2351  0.1417
32443ION     NA49290   7.694   1.100  10.510 -0.1334  0.0834 -0.1882
32444ION     NA49291   3.230   4.175  10.386 -0.0464 -0.0093 -0.0165
32445ION     NA49292  11.288  16.988  10.250  0.1996  0.5525  0.1361
32446ION     NA49293  14.372  17.671   5.498 -0.0970  0.0433  0.1831
32447ION     NA49294   5.946   4.002  10.610  0.0199  0.1875 -0.0221
32448ION     NA49295  11.116   2.345  10.619  0.0226  0.0191  0.1538
32449ION     NA49296  16.828  11.044   1.214 -0.0755  0.2692 -0.1175
32450ION     NA49297  15.961  10.745   6.065 -0.0791 -0.0777 -0.1520
32451ION     NA49298  13.374   8.730  10.744 -0.3085  0.0991  0.2659
32452ION     NA49299   7.505   5.393   5.675  0.4394  0.0279  0.0606
32453ION     NA49300  17.613   0.849  11.659  0.0450 -0.0463 -0.3233
32454ION     NA49301   2.182   9.034  11.010 -0.1884 -0.2249  0.0997
32455ION     NA49302   8.971  13.179   5.730 -0.1674 -0.1912  0.0867
32456ION     NA49303   4.348   0.362  10.623  0.1193  0.0851 -0.0915
32457ION     NA49304   7.601  11.858  11.729  0.2568  0.0471 -0.1033
32458ION     NA49305   9.953   0.502  10.611  0.0730  0.0251  0.0535
32459ION     NA49306   1.385   4.318  15.537  0.3821  0.2936 -0.0065
32460ION     NA49307   8.756  13.112  10.897 -0.1354  0.3044  0.0248
32461ION     NA49308   4.416  13.189  11.545  0.1522  0.3100  0.1771
32462ION     NA49309  14.535   1.776   4.529 -0.0507 -0.0523  0.1845
32463ION     NA49310  15.250   3.534  10.817 -0.1973 -0.0009  0.1063
32464ION     NA49311   3.109   0.439   0.928  0.2227 -0.2296 -0.1864
32465ION     NA49312   2.959  11.871  16.547  0.1375 -0.2241 -0.0323
32466ION     NA49313   9.530  10.574  10.837  0.0947  0.0798 -0.0710
32467ION     NA49314  10.728  12.622   5.989  0.2258  0.2862 -0.0315
32468ION     NA49315  15.621   4.237   6.148 -0.0156 -0.0561  0.0973
32469ION     NA49316   5.332   5.460   5.711 -0.1808 -0.1296 -0.2876
32470ION     NA49317  16.474  12.194   5.946  0.1243  0.0757 -0.1171
32471ION     NA49318   0.705  17.358  10.735  0.0774 -0.0935  0.1798
32472ION     NA49319  10.267   9.099  10.931  0.0090  0.3742 -0.0092
32473ION     NA49320   5.641  10.795  10.962 -0.1247 -0.0788 -0.1526
32474ION     NA49321   5.496   6.124  14.122  0.1144 -0.0340 -0.1520
32475ION     NA49322   7.632  17.488  10.897 -0.0947  0.1824 -0.3382
32476ION     NA49323   2.417  11.038  15.605  0.0733 -0.2304  0.0556
32477ION     NA49324   7.858  12.474   3.252  0.0801 -0.2850  0.1795
32478ION     NA49325   9.410  17.253  10.576 -0.2063 -0.0321 -0.2576
32479ION     NA49326   6.746  17.590  10.962  0.0336 -0.1944  0.0596
32480ION     NA49327  15.693  14.317  10.467 -0.0747  0.2434  0.4181
32481ION     NA49328   6.056   6.501  10.750 -0.1007 -0.0590  0.1348
32482ION     NA49329   6.408  17.886   5.904  0.0588 -0.0546 -0.0490
32483ION     NA49330  16.924   3.504  10.640 -0.1307  0.0570 -0.0571
32484ION     NA49331   1.723   1.860   6.040 -0.0781  0.0873  0.0956
32485ION     NA49332   4.637  15.013   5.786  0.0647  0.1528 -0.0528
32486ION     NA49333   5.317  14.991   1.522 -0.0635  0.1716 -0.2626
32487ION     NA49334  12.164   3.653  11.308  0.2501  0.0110 -0.2201
32488ION     NA49335   9.850  15.297  10.668  0.1853 -0.3991  0.1730
32489ION     NA49336  16.245  14.497   1.600 -0.0314 -0.5041 -0.0938
32490ION     NA49337  15.866  17.768   5.687 -0.3998 -0.1738  0.1333
32491ION     NA49338  16.265  14.361  10.569  0.1923  0.0607 -0.2075
32492ION     NA49339   4.876   6.172   2.962  0.4022 -0.0576  0.0225
32493ION     NA49340   7.028  12.342  11.083  0.1285 -0.1446  0.1821
32494ION     NA49341   4.286   0.804   3.782  0.1480  0.0216 -0.0045
32495ION     NA49342   6.180   5.666  10.682  0.1259 -0.0605  0.0007
32496ION     NA49343  10.582   0.384   0.499  0.0131 -0.0815 -0.0733
32497ION     NA49344   4.662   9.196   1.245 -0.1048 -0.1860 -0.0536
32498ION     NA49345  10.203  12.062  16.264  0.1651  0.0404 -0.1516
32499ION     NA49346   8.019  10.134   5.869 -0.0800 -0.1035 -0.0995
32500ION     NA49347  12.654   1.117  10.323  0.0870  0.0611  0.0750
32501ION     NA49348  15.312   0.201   0.981 -0.0477  0.0464 -0.0798
32502ION     NA49349   8.232   1.777  10.676  0.0780 -0.0016  0.0734
32503ION     NA49350  15.707   5.512   5.685 -0.1971  0.2312 -0.1102
32504ION     NA49351   3.034  17.751   1.856  0.1422  0.4122 -0.0868
32505ION     NA49352   8.299   8.913   4.639  0.0891  0.0999 -0.1432
32506ION     NA49353   6.745  17.214  10.527  0.0338 -0.0030 -0.1508
32507ION     NA49354   2.338  11.731  11.002 -0.1395 -0.0278  0.2314
32508ION     NA49355   3.839   8.499  10.887  0.2582 -0.0074 -0.0947
32509ION     NA49356   5.374   0.954   5.701 -0.1457  0.2154  0.2139
32510ION     NA49357   1.231   9.559  10.845 -0.1982 -0.1751  0.0072
32511ION     NA49358   4.234   1.558   0.126 -0.2717  0.0584 -0.4313
32512ION     NA49359   9.535   3.602   3.662 -0.1049 -0.0969  0.0574
32513ION     NA49360   3.482   6.294   4.739  0.2870  0.1387  0.0113
32514ION     NA49361  14.588  14.210  10.611 -0.2478  0.1337 -0.0287
32515ION     NA49362  17.097   9.820  10.699  0.1187  0.1148  0.2318
32516ION     NA49363   8.141  15.314  10.740 -0.1814 -0.0620 -0.2260
32517ION     NA49364  16.785  17.232  10.643  0.0671  0.1184  0.0044
32518ION     NA49365  15.491   0.537  13.610  0.2095  0.0534  0.0042
32519ION     NA49366  12.002   1.878  10.516  0.0251 -0.0542  0.0985
32520ION     NA49367  15.447  10.609   5.340 -0.0302  0.0784  0.0962
32521ION     NA49368  10.301   0.863   5.702 -0.0168 -0.0305  0.2762
32522ION     NA49369  13.253  12.253  10.588  0.1497 -0.1732  0.0676
32523ION     NA49370   8.537  13.293  14.920 -0.2660  0.0288  0.1906
32524ION     NA49371   5.009   9.401  11.036 -0.0428  0.0877  0.2098
32525ION     NA49372  10.361  17.096  10.474 -0.1631 -0.0434 -0.0518
32526ION     NA49373  11.084   8.874  10.675 -0.0038 -0.0788 -0.1819
32527ION     NA49374   4.672   4.697   5.928 -0.0423 -0.1192 -0.0031
32528ION     NA49375  12.584  10.249   6.235 -0.4232 -0.0931  0.0402
32529ION     NA49376   0.755  13.662   6.112  0.1699 -0.0315 -0.0832
32530ION     NA49377  10.898   6.059   3.218 -0.0774 -0.1823 -0.1487
32531ION     NA49378  12.501  12.640  10.623  0.3450  0.0320 -0.2089
32532ION     NA49379   4.647   6.306  10.949 -0.0904 -0.0602  0.0481
32533ION     NA49380  15.857   7.605   0.477  0.2912 -0.0919 -0.0632
32534ION     NA49381   5.116  14.146  10.743  0.3600 -0.0711 -0.1145
32535ION     NA49382   2.604   8.290   2.558 -0.0976  0.3136  0.1145
32536ION     NA49383   1.051   8.222   6.052  0.0313  0.2620 -0.2461
32537ION     NA49384   6.227  12.736  10.843  0.2221  0.2581 -0.0384
32538ION     NA49385   0.630  12.594   2.377  0.2117  0.0280 -0.0977
32539ION     NA49386   0.152   5.162  10.595  0.0106  0.0585 -0.0227
32540ION     NA49387   5.022  12.237  11.109 -0.2680  0.1251  0.1642
32541ION     NA49388   2.832  17.596  10.650  0.1053 -0.2584 -0.0175
32542ION     NA49389   3.650  17.990  10.596  0.0353  0.3158  0.0558
32543ION     NA49390  12.967   3.566  10.516  0.0162 -0.0592 -0.2394
32544ION     NA49391   3.582   0.800  10.690 -0.0603  0.0274  0.1375
32545ION     NA49392  13.590   3.439  16.190 -0.0253 -0.0549 -0.2022
32546ION     NA49393   0.707   9.700  10.896 -0.1783 -0.0204 -0.2164
32547ION     NA49394   5.155   0.924  10.593  0.0135  0.0296  0.1499
32548ION     NA49395  15.450   4.988  10.645  0.6248  0.0309  0.0151
32549ION     NA49396  16.429   0.572  15.685  0.4216 -0.2397 -0.2099
32550ION     NA49397  13.360   0.439  10.181 -0.0989 -0.0191  0.0484
32551ION     NA49398  11.539  12.589  10.647  0.0559 -0.5424  0.4424
32552ION     NA49399  13.243   9.679  13.158  0.1243  0.0128 -0.0180
32553ION     NA49400   5.130   3.212  10.438 -0.1689 -0.0474  0.2721
32554ION     NA49401   2.035   4.507   5.949 -0.1846 -0.0265 -0.1554
32555ION     NA49402  13.229  16.330  10.341 -0.0967 -0.3983  0.0690
32556ION     NA49403   7.374  16.482  10.676 -0.2362  0.1032 -0.3558
32557ION     NA49404   6.990  14.644  11.963  0.1187  0.3168  0.3117
32558ION     NA49405  14.080  17.185  10.123 -0.0160  0.1057 -0.1217
32559ION     NA49406   2.730   5.140   1.966 -0.1604 -0.3054 -0.1712
32560ION     NA49407   9.536   9.848  11.327  0.2590  0.0124  0.0153
32561ION     NA49408   5.786  17.836  12.256  0.0549  0.1552 -0.1906
32562ION     NA49409   5.276   7.757   6.133  0.0644  0.1590 -0.2380
32563ION     NA49410  10.097  13.423  10.740  0.0160 -0.1909 -0.2405
32564ION     NA49411   2.637   3.507  10.097  0.1068  0.0644  0.0091
32565ION     NA49412  16.082  17.993   5.109  0.1374  0.1858 -0.2693
32566ION     NA49413  15.523   1.041  10.295  0.0080  0.0211  0.2494
32567ION     NA49414   2.921   5.773  10.753  0.2276  0.0229  0.1686
32568ION     NA49415  14.206   1.760  10.411  0.0751 -0.1909  0.0859
32569ION     NA49416  11.220   3.429  11.048  0.1818  0.1670  0.0462
32570ION     NA49417  14.727  18.020   2.185  0.0739 -0.2180 -0.0499
32571ION     NA49418  10.567   7.535  14.745  0.1063 -0.0220  0.0093
32572ION     NA49419   3.264   7.995  10.841 -0.4137  0.1629 -0.2571
32573ION     NA49420   3.152   8.215  15.339 -0.1834  0.1239  0.0575
32574ION     NA49421  11.452   7.708  10.645  0.3451  0.0214  0.0862
32575ION     NA49422  12.582   9.252  11.060 -0.2885  0.3872  0.0967
32576ION     NA49423   9.525   9.943  14.390 -0.2615 -0.1766  0.0238
32577ION     NA49424   1.763  14.808   6.035  0.1883  0.1337  0.0392
32578ION     NA49425   0.406  14.559  10.903  0.1221  0.2658 -0.1623
32579ION     NA49426   1.348  13.783   0.937 -0.2296 -0.0830 -0.0510
32580ION     NA49427   7.590  14.575  10.753 -0.0446  0.1492 -0.3437
32581ION     NA49428   2.324  15.370  10.779 -0.1053  0.2858 -0.3155
32582ION     NA49429   3.528   4.078   5.850 -0.0571 -0.0201  0.2165
32583ION     NA49430  16.968  10.312  12.680  0.0075  0.0729  0.0093
32584ION     NA49431   2.895   9.531  10.814  0.0457 -0.0920  0.0410
32585ION     NA49432   1.118   4.489   5.752  0.6522 -0.2684  0.0266
32586ION     NA49433   9.732  15.563  11.295 -0.2321 -0.1617 -0.1469
32587ION     NA49434   3.013   8.811  11.354 -0.1194  0.1405  0.2426
32588ION     NA49435   9.001   6.615  10.711  0.0327  0.0862 -0.0457
32589ION     NA49436  11.382  14.726   5.851 -0.0806  0.0052  0.1820
32590ION     NA49437  16.977  13.948  10.814  0.1810  0.2638 -0.0696
32591ION     NA49438   2.549  15.106   6.022 -0.2345  0.2869  0.0460
32592ION     NA49439  11.359   5.500  10.970 -0.4556 -0.0340  0.0978
32593ION     NA49440   8.251  14.540  10.765  0.0159 -0.1041  0.1876
32594ION     NA49441   1.071   2.907   3.565 -0.1749  0.0193 -0.2273
32595ION     NA49442   0.753   9.110  12.804 -0.0487  0.1865  0.1069
32596ION     NA49443  11.062  10.981   0.761 -0.0846 -0.0677 -0.3012
32597ION     NA49444   7.156  10.450  10.878 -0.1017  0.2261  0.1917
32598ION     NA49445   6.615   7.960   4.544 -0.4903  0.0408  0.0225
32599ION     NA49446   9.322   7.445  10.957  0.3708  0.0585 -0.0703
32600ION     NA49447  13.407  16.194   5.771 -0.1015  0.1302  0.0103
32601ION     NA49448  10.816   0.527   1.628  0.2117 -0.1589  0.0431
32602ION     NA49449   6.162  11.284  13.868 -0.0292  0.0321  0.1182
32603ION     NA49450  10.370   5.473   6.165 -0.1026 -0.1902 -0.3502
32604ION     NA49451  10.687  16.899   0.530 -0.0457 -0.0711 -0.2940
32605ION     NA49452  13.346  16.729  10.086 -0.1042  0.0122 -0.1789
32606ION     NA49453  13.967  12.711  10.513  0.1853 -0.1808 -0.3275
32607ION     NA49454  12.484  16.637   5.596  0.3107 -0.2064  0.0103
32608ION     NA49455   2.115   6.257  10.652 -0.0247 -0.3553 -0.2612
32609ION     NA49456   4.159  11.293  10.940  0.4009 -0.0894 -0.0927
32610ION     NA49457  13.040   4.233   2.758  0.0044  0.0237  0.3868
32611ION     NA49458   8.381   6.411  13.081 -0.2959  0.0553  0.1077
32612ION     NA49459  16.641  16.318  13.877  0.0647  0.0957 -0.0512
32613ION     NA49460   5.324  15.992   1.187 -0.1641 -0.0596  0.2637
32614ION     NA49461   5.189   7.044   0.843  0.1408  0.2870 -0.0571
32615ION     NA49462  16.371  15.277  10.637 -0.0368 -0.4045  0.2264
32616ION     NA49463  13.224  13.070   4.165  0.0904 -0.1729  0.1430
32617ION     NA49464   4.246   3.185  10.230 -0.0429 -0.4118  0.1065
32618ION     NA49465   8.110   7.733  11.199  0.1308 -0.1599 -0.1102
32619ION     NA49466  13.494   2.858  10.193 -0.1841  0.0242 -0.0781
32620ION     NA49467   6.135  10.668   6.261  0.0373 -0.1885 -0.0123
32621ION     NA49468   0.662   3.224   0.265  0.0340  0.0105 -0.1289
32622ION     NA49469   5.566   6.551  10.735  0.0492 -0.0296 -0.3414
32623ION     NA49470   7.188   4.542  16.068 -0.2078  0.2541 -0.1013
32624ION     NA49471  11.158   5.223   5.925  0.0552 -0.0522  0.4104
32625ION     NA49472   2.515   4.942  10.676  0.1512  0.2499 -0.2564
32626ION     NA49473  10.619  15.861  10.358 -0.0903  0.0825  0.0527
32627ION     NA49474   6.393  15.433   5.618 -0.3331 -0.0394  0.1493
32628ION     NA49475   8.951   8.329  10.747 -0.0631 -0.0300  0.0174
32629ION     NA49476   8.311  15.440   3.664  0.0962  0.2164  0.0596
32630ION     NA49477  17.542   6.089  10.640 -0.3819  0.3207 -0.2663
32631ION     NA49478   1.229   7.010   0.588 -0.4627  0.0897  0.0015
32632ION     NA49479   1.153   0.179  10.835  0.1261 -0.1828 -0.0563
32633ION     NA49480  16.926   0.615  10.811 -0.0457 -0.0321  0.0711
32634ION     NA49481   6.301  11.177  12.388 -0.0278  0.1775 -0.0342
32635ION     NA49482   4.818  10.633   5.899  0.1981  0.0217 -0.2089
32636ION     NA49483  14.890  14.864  16.391 -0.1223  0.0213  0.2083
32637ION     NA49484  12.006  11.755  10.458  0.0837 -0.2548 -0.0608
32638ION     NA49485  13.306   4.293  10.550  0.1147 -0.0390 -0.0607
32639ION     NA49486   1.275  12.666  10.937  0.0544  0.1489 -0.2411
32640ION     NA49487  13.822   2.337  15.927 -0.1488 -0.2020  0.0684
32641ION     NA49488   6.960  11.987   3.094 -0.1054 -0.0309 -0.0859
32642ION     NA49489  11.866   1.262   5.716  0.0525  0.0599 -0.2648
32643ION     NA49490  12.810  15.258  11.324 -0.1484  0.3617  0.1866
32644ION     NA49491  10.713   8.660  12.869  0.2985 -0.0322 -0.1367
32645ION     NA49492  17.575   7.771  10.883 -0.4087 -0.1092  0.0091
32646ION     NA49493  14.074   2.444   5.517 -0.2797 -0.0076 -0.0210
32647ION     NA49494   5.120  14.558   3.658 -0.0734 -0.0077  0.3120
32648ION     NA49495  10.135   2.055  10.917  0.1184  0.0439  0.0308
32649ION     NA49496  16.658   6.228  10.726 -0.3028 -0.0921  0.0610
32650ION     NA49497   9.415  16.801   0.214  0.0018  0.1406 -0.1071
32651ION     NA49498   9.797   7.467  13.401 -0.1618  0.0864 -0.1024
32652ION     NA49499  11.611  10.108  10.844  0.0758 -0.0932  0.0064
32653ION     NA49500  17.071  14.753  10.654  0.0589 -0.0900 -0.0953
32654ION     NA49501   4.117  15.602  10.749  0.1396  0.0349  0.1675
32655ION     NA49502  10.221  16.561   4.243 -0.1673  0.0269 -0.0896
32656ION     NA49503   5.872  15.951   0.320  0.0301 -0.1093  0.0422
32657ION     NA49504   7.447   4.908  10.722  0.0885  0.2017  0.3358
32658ION     NA49505  14.819   6.807   5.432  0.1454  0.0717  0.1624
32659ION     NA49506   6.967   0.088   4.209 -0.0845  0.1341 -0.2061
32660ION     NA49507  16.779  12.918  11.020 -0.1027  0.2541 -0.2260
32661ION     NA49508  11.781   3.790  10.603  0.0145  0.2083  0.1238
32662ION     NA49509   4.281   7.122  15.391  0.1280  0.1470 -0.0934
32663ION     NA49510   4.767  16.784  10.472  0.2254  0.0849 -0.4636
32664ION     NA49511   9.335   0.221  15.668  0.0710 -0.1307  0.0447
32665ION     NA49512  12.256   9.523  10.816  0.0082 -0.1982  0.2921
32666ION     NA49513  15.187  14.345   2.853  0.0063 -0.1709  0.0133
32667ION     NA49514   9.446  17.117   6.078  0.2537  0.0142 -0.0454
32668ION     NA49515   0.438   6.408  10.732 -0.2151 -0.2011  0.0807
32669ION     NA49516   9.371   5.735  16.676  0.3019  0.1209  0.2012
32670ION     NA49517  13.364   3.836  15.088 -0.0321  0.0538  0.2083
32671ION     NA49518   5.560  16.369  10.766  0.1307 -0.3069  0.1454
32672ION     NA49519   5.835   7.499  10.857 -0.0339 -0.0088 -0.2830
32673ION     NA49520  17.276   3.044  16.085  0.1411 -0.2080  0.2280
32674ION     NA49521   6.576  11.958  16.403  0.0387 -0.1704 -0.0681
32675ION     NA49522   7.019  13.153  10.852 -0.1861  0.0722  0.0172
32676ION     NA49523   5.173  18.047  10.574 -0.1930  0.2375  0.0183
32677ION     NA49524   4.185   5.541  10.824 -0.2825 -0.2133 -0.0093
32678ION     NA49525   2.779  14.482  14.635  0.1645  0.1222  0.1183
32679ION     NA49526   8.310  17.696  12.954  0.0530  0.0144 -0.1410
32680ION     NA49527   6.521   1.867   2.576 -0.1183 -0.1895 -0.3139
32681ION     NA49528  17.752   6.526  10.455  0.2929 -0.2253  0.4101
32682ION     NA49529   9.631   2.125  11.686 -0.0050  0.0856  0.1174
32683ION     NA49530  15.368   2.665  10.609  0.0648 -0.0569 -0.0508
32684ION     NA49531   6.185   1.793  10.425  0.1658 -0.0780  0.1825
32685ION     NA49532  10.252  17.842  10.572 -0.0865 -0.1067  0.1357
32686ION     NA49533   0.912   7.336  10.684 -0.1100  0.1015  0.0772
32687ION     NA49534   7.843  17.683   0.665 -0.5672 -0.0850  0.1366
32688ION     NA49535  10.712  13.520   2.625 -0.1979 -0.1875 -0.1048
32689ION     NA49536   7.903  10.126  11.043 -0.2049  0.0044  0.0501
32690ION     NA49537   7.128   6.803  10.833 -0.2320  0.1007 -0.2614
32691ION     NA49538  13.726  15.478  10.171  0.2463 -0.3344 -0.0142
32692ION     NA49539   3.311  12.985   5.196  0.0589 -0.0654 -0.1066
32693ION     NA49540   4.457  12.969  11.020  0.0279  0.0497 -0.2208
32694ION     NA49541   9.924   8.416   4.191  0.1700 -0.3235 -0.1143
32695ION     NA49542  13.083   7.318   5.974  0.0075 -0.1181 -0.0840
32696ION     NA49543  18.038   5.127   5.772  0.2349  0.2253  0.0127
32697ION     NA49544   0.762  11.038   6.315 -0.0449 -0.2429  0.0163
32698ION     NA49545   1.783   7.126  10.853 -0.0142  0.0197 -0.2571
32699ION     NA49546   7.839  15.278   5.887  0.0819 -0.0603  0.0057
32700ION     NA49547  16.655  14.062   0.836 -0.1920  0.2444 -0.2554
32701ION     NA49548  13.682   5.280  10.672 -0.1339 -0.0067 -0.2179
32702ION     NA49549  17.356   1.988  10.717  0.3919 -0.2791  0.0769
32703ION     NA49550  13.580  14.670   5.612  0.1708 -0.1280  0.2820
32704ION     NA49551   9.238   5.809  10.820  0.4838 -0.0068  0.1672
32705ION     NA49552   8.043  12.057  13.565 -0.2538 -0.1407  0.1559
32706ION     NA49553   8.826  10.026  10.973  0.1591 -0.1675 -0.1277
32707ION     NA49554   0.916  14.939  10.792 -0.2459 -0.2429 -0.3461
32708ION     NA49555  11.033   6.491  10.745  0.0429 -0.1781 -0.0509
32709ION     NA49556   7.089  11.401  11.031  0.0256 -0.1829 -0.0073
32710ION     NA49557   8.836   5.139  10.662 -0.0923 -0.1008 -0.0439
32711ION     NA49558  14.834   2.174  12.775 -0.1011  0.1168  0.1206
32712ION     NA49559   2.181   2.765  10.143  0.0595 -0.1373  0.0488
32713ION     NA49560  12.993  11.039  10.951 -0.0724 -0.1401  0.0185
32714ION     NA49561  14.547  15.028  10.244 -0.2601 -0.1762 -0.1707
32715ION     NA49562   8.522   3.992  13.909  0.1583  0.1002  0.1036
32716ION     NA49563  11.755  15.602  10.362 -0.1433  0.0604  0.0758
32717ION     NA49564   0.287  11.849   6.277  0.2009  0.1928 -0.0654
32718ION     NA49565   2.220   7.255  13.430  0.3034 -0.0341  0.0810
32719ION     NA49566   7.214   3.874   5.822  0.0457  0.0287  0.2291
32720ION     NA49567   6.512  16.419  10.490  0.0957  0.0666  0.0024
32721ION     NA49568   7.960   6.485  10.695 -0.2419 -0.1256 -0.0799
32722ION     NA49569  14.720   0.883  10.322  0.1087  0.1556  0.6065
32723ION     NA49570  15.199   7.208  10.533 -0.0042 -0.1093 -0.0761
32724ION     NA49571   9.247   4.346  10.716  0.0035  0.1544  0.0590
32725ION     NA49572  16.638  16.227  10.805 -0.1113 -0.0010 -0.0033
32726ION     NA49573  16.088   5.550  10.748  0.1347 -0.2837 -0.0607
32727ION     NA49574   7.202  15.823   5.864 -0.1455 -0.0395 -0.1354
32728ION     NA49575  10.743   9.569  11.759  0.0761  0.1482 -0.1325
32729ION     NA49576  14.903  10.259   0.547  0.0134 -0.2807 -0.0879
32730ION     NA49577  15.711   3.513   5.021  0.2787 -0.3002 -0.1115
32731ION     NA49578   4.181   0.086  13.490 -0.1060 -0.1118  0.2377
32732ION     NA49579   7.515   3.743   2.377  0.1573 -0.3604  0.0044
32733ION     NA49580  12.165  10.863  10.733  0.1279  0.4915 -0.2205
32734ION     NA49581  17.766  17.309   2.810 -0.2784 -0.0059 -0.0636
32735ION     NA49582  17.930  13.772  10.810  0.0499 -0.0171 -0.4140
32736ION     NA49583  17.487  17.852  10.659  0.1466  0.0583 -0.0336
32737ION     NA49584   6.624   2.561  10.628 -0.0683 -0.1082 -0.0169
32738ION     NA49585   5.988   3.034  10.382 -0.3540 -0.2364 -0.2186
32739ION     NA49586   1.759  12.972  11.601 -0.0193 -0.1815 -0.1070
32740ION     NA49587  10.587   1.857  12.876  0.1019  0.0957 -0.3164
32741ION     NA49588  10.482   3.361   5.268 -0.0596  0.0274 -0.2671
32742ION     NA49589  14.242   7.345  10.859 -0.1112  0.2485  0.1435
32743ION     NA49590  16.905   5.413  10.672 -0.2135  0.2948  0.1572
32744ION     NA49591  15.806   6.410  10.815 -0.2315  0.0396 -0.2915
32745ION     NA49592  15.021  13.734  10.564 -0.2191  0.0332  0.2006
32746ION     NA49593   6.629  10.130   3.609 -0.0759 -0.3612  0.0318
32747ION     NA49594   7.788  15.731  10.721  0.2379 -0.3020  0.0311
32748ION     NA49595  13.109   3.892   0.904 -0.1699  0.1485 -0.2449
32749ION     NA49596  15.306  11.989  10.777 -0.1897 -0.0152 -0.0679
32750ION     NA49597  17.879   9.499  10.900  0.0214 -0.3143  0.0318
32751ION     NA49598   0.731   4.120  11.329  0.1510 -0.0840  0.2849
32752ION     NA49599   8.589  12.246  11.125  0.1353 -0.1150  0.0347
32753ION     NA49600   3.677  12.635  11.089  0.0717 -0.0098  0.1480
32754ION     NA49601   0.166   7.260  10.500 -0.1712  0.1890 -0.0263
32755ION     NA49602  14.343  16.768   4.574 -0.2211 -0.0371  0.0651
32756ION     NA49603   6.569  14.214  13.649  0.0322 -0.0661  0.0324
32757ION     NA49604  15.862   4.377   4.886 -0.0189  0.0111 -0.0435
32758ION     NA49605   7.185   9.588  11.129  0.0805 -0.0331  0.1037
32759ION     NA49606   3.034   2.751  10.347  0.0389 -0.3836  0.0780
32760ION     NA49607  10.480  17.917  14.291 -0.2837 -0.1577  0.0399
32761ION     NA49608  14.511  11.956  10.866 -0.1803 -0.2328  0.1967
32762ION     NA49609   6.073  11.253  11.044  0.1002 -0.0147 -0.0066
32763ION     NA49610   2.898  16.628  10.790  0.2777 -0.1441 -0.1078
32764ION     NA49611   2.429  10.939  10.898 -0.1846  0.0911  0.0740
32765ION     NA49612   8.968  12.163   5.974 -0.0787  0.0070  0.3759
32766ION     NA49613   4.669  10.782  15.561  0.0671 -0.0277 -0.3181
32767ION     NA49614  13.782   9.679  10.930  0.1893 -0.3157 -0.1768
32768ION     NA49615  14.302   5.963  10.710  0.0538 -0.0853 -0.0390
32769ION     NA49616   0.290  11.868  14.008 -0.1353 -0.0106 -0.1184
32770ION     NA49617  13.265  17.664   9.982 -0.0239 -0.0137 -0.1156
32771ION     NA49618   9.437   0.359  10.961 -0.5688 -0.4367  0.3912
32772ION     NA49619  10.113   4.038  10.695 -0.2675  0.0964  0.0437
32773ION     NA49620  15.589   8.969   5.745 -0.1226  0.0456  0.1302
32774ION     NA49621   9.333  12.854  10.668 -0.1927  0.0144 -0.0502
32775ION     NA49622   0.467  10.871  10.890 -0.1108  0.1721 -0.0925
32776ION     NA49623   4.282   1.167  10.393  0.0871  0.2300 -0.0713
32777ION     NA49624   7.528   2.696   5.869 -0.0445 -0.0613 -0.0575
32778ION     NA49625   4.693  13.786  10.862 -0.1176  0.0573 -0.3009
32779ION     NA49626   7.807   2.512  10.610  0.3007  0.1133  0.2090
32780ION     NA49627  14.313  10.743   2.624  0.0219  0.0761 -0.1613
32781ION     NA49628   4.708   8.760  10.909  0.0086 -0.1619 -0.0502
32782ION     NA49629   6.813   8.866   2.525 -0.0619 -0.1573 -0.1493
32783ION     NA49630   7.475  11.586  15.036 -0.3113  0.2043  0.1617
32784ION     NA49631   3.498  13.884  16.494 -0.0585 -0.0921 -0.1663
32785ION     NA49632  11.574   9.055  12.003  0.2520  0.0262 -0.4305
32786ION     NA49633  10.159  17.360   1.629  0.0374 -0.1253  0.1138
32787ION     NA49634   3.276  16.898   4.398 -0.2385 -0.1577  0.0886
32788ION     NA49635  15.687  10.356  10.908  0.1052 -0.0972  0.1739
32789ION     NA49636   9.505   1.350  10.928  0.2520 -0.0665 -0.1253
32790ION     NA49637   2.936   6.658  10.766 -0.1590  0.0289  0.1144
32791ION     NA49638   6.341   9.207  10.986 -0.1247  0.1336 -0.0100
32792ION     NA49639  13.365   1.171  10.107  0.1452 -0.0623 -0.2358
32793ION     NA49640   9.899   2.695   5.882 -0.0830 -0.0112 -0.4396
32794ION     NA49641   6.381  10.086  11.038 -0.0563  0.0038  0.0220
32795ION     NA49642   9.835  14.433  10.742 -0.0039  0.1457 -0.3261
32796ION     NA49643   6.613   7.185   6.073 -0.0042  0.0294 -0.0927
32797ION     NA49644   2.574  13.704   2.404  0.1584  0.0298 -0.1939
32798ION     NA49645  12.140  13.809   1.981  0.0104  0.1997 -0.1816
32799ION     NA49646   5.957  15.228  11.167  0.0534 -0.0497 -0.0041
32800ION     NA49647   9.621   9.651  10.717 -0.1583  0.0515 -0.1331
32801ION     NA49648   5.081  15.154  12.926 -0.1017  0.0873 -0.3484
32802ION     NA49649  10.192   1.708   5.567  0.2745 -0.0197  0.4818
32803ION     NA49650  12.694  14.579   5.910  0.0076  0.1585  0.1487
32804ION     NA49651  11.337   0.202  15.742  0.1785 -0.3188 -0.0569
32805ION     NA49652   6.783  16.884  15.727  0.0092 -0.0758 -0.0354
32806ION     NA49653   5.794   9.064  11.280 -0.1561 -0.1931  0.0331
32807ION     NA49654  16.873   3.084   5.691 -0.1917  0.2862  0.0254
32808ION     NA49655  13.613   3.692   5.827  0.1161  0.1035 -0.2664
32809ION     NA49656  12.934  12.452   5.867  0.1620 -0.2473  0.0593
32810ION     NA49657   3.052   6.071   5.960  0.2124 -0.0781  0.2407
32811ION     NA49658  14.808   4.027  10.733  0.1457 -0.2122 -0.3754
32812ION     NA49659   8.203  14.569   4.902  0.0907 -0.1950 -0.1057
32813ION     NA49660   5.227   4.339  10.582  0.0594  0.2533 -0.2534
32814ION     NA49661  15.847  16.952  10.365 -0.0824 -0.1897 -0.0958
32815ION     NA49662  14.368   2.786  10.305  0.0645  0.0611 -0.0823
32816ION     NA49663  12.499   8.648   1.826  0.3783  0.2845 -0.1033
32817ION     NA49664   4.372  17.538  10.679 -0.1931 -0.1006  0.0714
32818ION     NA49665   3.381   5.207  10.665  0.0964  0.0263 -0.1190
32819ION     NA49666  17.997   6.778   3.207 -0.1772  0.1101 -0.0357
32820ION     NA49667  12.418  10.267  11.169  0.0473  0.0558  0.2581
32821ION     NA49668   4.916   3.067   5.160  0.1302 -0.1278  0.3277
32822ION     NA49669   3.662  17.101  10.718  0.2218 -0.0419  0.0714
32823ION     NA49670   0.444  10.329   6.210  0.0648  0.0205  0.0635
32824ION     NA49671   8.282   3.029   6.022 -0.1769 -0.2603  0.5588
32825ION     NA49672   7.814  11.989  10.945  0.0854  0.1748 -0.3937
32826ION     NA49673  13.237   7.044  10.862 -0.0827  0.1635  0.2590
32827ION     NA49674   2.735  17.673   6.231 -0.1683 -0.0227  0.1250
32828ION     NA49675   9.449   4.043   4.649 -0.1116  0.3468 -0.0077
32829ION     NA49676  13.165   9.222  15.727  0.0870 -0.0671 -0.1692
32830ION     NA49677  16.869  16.974   5.629 -0.1108 -0.2400 -0.1633
32831ION     NA49678   5.389  11.911  13.010 -0.2592  0.1010 -0.0387
32832ION     NA49679   2.318   9.711  14.233  0.0018 -0.4423 -0.1903
32833ION     NA49680  15.852  15.364   5.355 -0.3077  0.0618 -0.1784
32834ION     NA49681  16.720   4.479  10.563  0.0391 -0.1663  0.1373
32835ION     NA49682  15.147   9.441  10.741  0.0069 -0.0419  0.1775
32836ION     NA49683  16.248  12.188  10.631 -0.1205  0.1491  0.0226
32837ION     NA49684  11.078   7.325  10.985 -0.1335 -0.1980 -0.3575
32838ION     NA49685   5.895  15.037   4.991 -0.4122 -0.2171 -0.2875
32839ION     NA49686   2.302   7.089   6.224 -0.1246  0.0793 -0.0060
32840ION     NA49687   3.571  14.350   5.798  0.0701 -0.0221  0.2205
32841ION     NA49688   0.896   2.763   6.006 -0.0299  0.0038 -0.1594
32842ION     NA49689  10.160   2.525   5.061  0.3887 -0.0387  0.2661
32843ION     NA49690  11.879  10.909   1.894  0.0234 -0.1128 -0.0451
32844ION     NA49691  10.846  10.553  10.757 -0.3588  0.0268  0.2789
32845ION     NA49692  16.151   3.208  10.701  0.2401 -0.0023  0.2179
32846ION     NA49693   0.664  15.684  10.822  0.1236  0.2354  0.1133
32847ION     NA49694  11.002  17.808  10.498  0.0969  0.0421  0.0056
32848ION     NA49695  14.716   1.048   5.082 -0.0891 -0.3339 -0.0718
32849ION     NA49696  13.212   5.091  10.768  0.1273  0.1965 -0.1957
32850ION     NA49697   3.946  11.786   3.689  0.2867 -0.2410 -0.0327
32851ION     NA49698  14.614  10.237  10.922  0.2017  0.0767 -0.0016
32852ION     NA49699  10.795  15.926  14.466 -0.3232  0.1780 -0.0115
32853ION     NA49700  17.844  16.019   6.163  0.0042 -0.0387 -0.3624
32854ION     NA49701   1.351  11.675  11.032  0.2763 -0.3172 -0.1752
32855ION     NA49702  12.201  12.465  11.695  0.3709  0.4489 -0.0404
32856ION     NA49703   0.336   2.382   0.768  0.0634 -0.0569  0.0061
32857ION     NA49704  17.361  10.826  10.712 -0.1600 -0.0734  0.1825
32858ION     NA49705  10.356  12.791   1.090 -0.0350 -0.0620 -0.0051
32859ION     NA49706  15.661  12.257  12.992 -0.0907  0.2022  0.0386
32860ION     NA49707   5.558   4.990  10.731  0.1782  0.0513 -0.1640
32861ION     NA49708  12.869   6.824   6.064  0.0437  0.1496 -0.1819
32862ION     NA49709   1.448   3.353  13.103  0.1612 -0.1310 -0.1238
32863ION     NA49710   3.661  12.116   6.191  0.3431  0.1306  0.0357
32864ION     NA49711   9.546   4.224  15.198  0.1734 -0.2677  0.2748
32865ION     NA49712   0.677   3.784  10.935  0.0626 -0.1530 -0.0060
32866ION     NA49713  11.627   7.886  13.485 -0.1058 -0.2634  0.0967
32867ION     NA49714  17.653   2.880  10.730 -0.3863 -0.1309  0.2225
32868ION     NA49715  12.386   5.056   5.787  0.0077 -0.1063  0.0610
32869ION     NA49716   3.542   0.190   6.141  0.2435 -0.0011  0.0921
32870ION     NA49717  14.960  12.878  10.696 -0.0418  0.0287  0.0032
32871ION     NA49718  10.881   1.442  10.619  0.1162  0.0080 -0.0427
32872ION     NA49719  13.840   8.895  10.822  0.3360  0.4290  0.0420
32873ION     NA49720  15.987  16.003  10.621  0.0417  0.0246 -0.0759
32874ION     NA49721  12.434   4.373  10.513 -0.0153  0.0333 -0.2695
32875ION     NA49722   8.223  14.329  16.096 -0.0949  0.1407  0.1147
32876ION     NA49723   6.462  12.636   6.194 -0.0730  0.2195  0.1180
32877ION     NA49724   6.674   7.731  10.811  0.1296  0.2439  0.4334
32878ION     NA49725   2.946  13.180  11.065 -0.3604 -0.2350  0.0023
32879ION     NA49726   6.328   9.398   2.864  0.0444 -0.0217 -0.1404
32880ION     NA49727  15.026  17.214  10.505  0.0550 -0.1645 -0.2085
32881ION     NA49728   2.106  14.508  11.152  0.3715  0.1164 -0.2706
32882ION     NA49729   9.966  12.128  11.109  0.2339 -0.0540 -0.2267
32883ION     NA49730  11.550   2.293   2.566 -0.2496  0.1017 -0.4720
32884ION     NA49731   0.305   0.067  10.847  0.1546  0.0712 -0.0025
32885ION     NA49732  15.535  15.187  10.453 -0.1211  0.5678  0.1028
32886ION     NA49733  10.095   9.978   5.998 -0.4170  0.4190  0.0592
32887ION     NA49734  17.363  12.214  10.671  0.1707  0.2405 -0.2327
32888ION     NA49735  15.730   8.196   5.968 -0.0964 -0.2291 -0.2243
32889ION     NA49736   4.894   7.336  10.958  0.0334  0.0721  0.1817
32890ION     NA49737   5.083  15.166  10.850 -0.1678  0.0935  0.1707
32891ION     NA49738   9.859  11.956  10.630  0.0940 -0.4423 -0.1289
32892ION     NA49739   0.673  12.796   6.017  0.0283  0.1942  0.3548
32893ION     NA49740  17.948   8.689  10.750 -0.2380  0.0938  0.2370
32894ION     NA49741   4.214  16.020  15.627  0.1663 -0.2904  0.2427
32895ION     NA49742   7.855  16.729  10.448 -0.1269  0.2646  0.1993
32896ION     NA49743   7.067   0.500   5.943 -0.0271  0.1102 -0.0385
32897ION     NA49744   1.560  15.241   4.868  0.0351  0.1298 -0.2503
32898ION     NA49745  13.290  14.519  10.308 -0.0212  0.3706 -0.1062
32899ION     NA49746  14.494  11.065  10.936 -0.1807 -0.3257 -0.0918
32900ION     NA49747  15.548  14.212   1.417  0.0715  0.1166 -0.0365
32901ION     NA49748  17.209  16.881  10.726  0.1080  0.2618 -0.0058
32902ION     NA49749  14.717   1.614  10.610  0.1617  0.1638 -0.0436
32903ION     NA49750  17.649  16.154  10.851 -0.1053 -0.0063 -0.6308
32904ION     NA49751   3.728   9.101   6.159  0.1313 -0.0421 -0.1712
32905ION     NA49752  10.567   8.767  14.605  0.0845 -0.2553 -0.0208
32906ION     NA49753  12.235   7.695  10.792 -0.1005  0.2268  0.1931
32907ION     NA49754   8.228   3.390  10.843  0.1362  0.0385 -0.0470
32908ION     NA49755  12.404  13.550  10.408 -0.0787  0.1095  0.1730
32909ION     NA49756   0.812   1.644   5.915  0.2647  0.2038  0.1254
32910ION     NA49757   7.536  10.699   5.231 -0.0645  0.0414  0.0608
32911ION     NA49758   1.390  14.984  10.881  0.1111 -0.3010 -0.2423
32912ION     NA49759  17.774  17.025   5.896  0.0749 -0.1353 -0.2588
32913ION     NA49760  10.951   1.302   5.981 -0.1387  0.0428 -0.0819
32914ION     NA49761   4.002   6.968  10.930 -0.3032 -0.1042  0.1051
32915ION     NA49762   8.246   4.761  15.250  0.0752  0.1605 -0.3744
32916ION     NA49763  11.785   2.594  10.412 -0.2797  0.0256 -0.1283
32917ION     NA49764  16.085  15.529  12.202  0.0678 -0.3403 -0.0399
32918ION     NA49765   4.671  10.296  10.965 -0.2262  0.3557  0.0592
32919ION     NA49766   1.265   5.961  10.857  0.2541  0.0550 -0.0696
32920ION     NA49767  15.062  10.538   6.112  0.1411  0.0243 -0.1251
32921ION     NA49768  14.272  16.327  10.213  0.0884  0.1716 -0.1269
32922ION     NA49769  14.629   3.151  10.520 -0.0729 -0.4029 -0.1068
32923ION     NA49770   1.934  16.983  10.782 -0.0023  0.1928  0.0495
32924ION     NA49771   9.677   8.677  11.026 -0.3611 -0.2237  0.2712
32925ION     NA49772  11.594   5.764  16.021  0.2662  0.0212  0.1062
32926ION     NA49773  15.413  12.080   1.439 -0.3016  0.0525 -0.0276
32927ION     NA49774   8.910  15.016  10.819 -0.0612 -0.0606  0.0280
32928ION     NA49775   7.163  14.863  10.817 -0.3856  0.0411 -0.2513
32929ION     NA49776  15.618  12.821  11.741  0.0940 -0.0438  0.0502
32930ION     NA49777  15.548   2.082   2.791  0.0537 -0.0137  0.2943
32931ION     NA49778  12.529  11.570   6.213  0.1499  0.0353  0.0205
32932ION     NA49779   8.411  17.494  10.456  0.1128 -0.3233 -0.0719
32933ION     NA49780   6.674  17.687  12.036 -0.1505  0.0941  0.1101
32934ION     NA49781  12.909  15.637  10.037  0.1203 -0.2789  0.2394
32935ION     NA49782  13.819  10.560  10.972  0.0883 -0.1391 -0.0762
32936ION     NA49783   1.089   6.663  11.264  0.0854  0.1647  0.3484
32937ION     NA49784   2.805  10.456  10.784 -0.0096  0.2518 -0.1424
32938ION     NA49785   5.791  17.146  10.561  0.2304 -0.0376 -0.1666
32939ION     NA49786   8.019   4.394   6.059  0.1010 -0.3152 -0.1212
32940ION     NA49787   1.219   2.291  10.400 -0.2101  0.1097  0.0266
32941ION     NA49788   9.084  16.858  11.465  0.2053 -0.0824  0.3575
32942ION     NA49789   4.752   8.249  11.067 -0.4249 -0.2003  0.1228
32943ION     NA49790  14.194   0.949  10.211  0.0838  0.0784 -0.2817
32944ION     NA49791  15.435   9.390   4.835  0.0963  0.0141  0.0135
32945ION     NA49792   2.558  12.107  11.842  0.0516  0.0648 -0.0720
32946ION     NA49793   2.936  16.065   5.752 -0.3912 -0.0881 -0.4292
32947ION     NA49794  17.469   9.621  16.427 -0.0369  0.2035 -0.3353
32948ION     NA49795   2.987  14.056  11.337 -0.1491 -0.0856 -0.4581
32949ION     NA49796   5.178   0.067  11.076 -0.1224  0.0399  0.2960
32950ION     NA49797   9.549   2.742  11.006  0.1852 -0.0826  0.0960
32951ION     NA49798  14.814  17.760   3.352  0.0976  0.1610  0.1529
32952ION     NA49799   9.857  11.708  12.504 -0.1464 -0.2197 -0.0107
32953ION     NA49800   0.725   7.920  10.971  0.0751 -0.2453  0.1314
32954ION     NA49801   8.775  11.308  11.118 -0.0008  0.2401 -0.1839
32955ION     NA49802   9.059   3.423  11.000  0.0616  0.1020  0.2860
32956ION     NA49803   2.441   7.752  10.791 -0.0463  0.1658  0.0644
32957ION     NA49804   6.592   5.324  10.695 -0.1065 -0.0411 -0.1259
32958ION     NA49805  15.905   1.846  10.648 -0.2805  0.1528  0.2938
32959ION     NA49806   8.316  11.470   0.775  0.1065  0.0024 -0.5128
32960ION     NA49807  11.890   3.101  10.440  0.1053  0.3055  0.0080
32961ION     NA49808   8.502   0.756  10.814 -0.1260  0.0207 -0.1106
32962ION     NA49809  17.827  11.314  10.654 -0.1527  0.0517 -0.2417
32963ION     NA49810  16.874   7.223  10.881 -0.1536  0.0235 -0.1751
32964ION     NA49811   2.661   1.185   0.218 -0.0779 -0.1316 -0.1132
32965ION     NA49812  16.045   0.504  10.567 -0.0210 -0.1696 -0.2268
32966ION     NA49813   7.471   9.026  15.128 -0.3400 -0.1201  0.1654
32967ION     NA49814  13.235   4.883   5.205  0.0119  0.1042  0.1950
32968ION     NA49815   4.602  15.810  10.691 -0.1356  0.1391  0.1016
32969ION     NA49816  10.905  11.505  10.737 -0.0784 -0.1489 -0.1431
32970ION     NA49817  11.798   6.878  10.761 -0.0909 -0.2640 -0.2200
32971ION     NA49818  15.968   6.908  10.592  0.3243  0.2705  0.2654
32972ION     NA49819   2.074   1.595  10.400  0.3286  0.1935 -0.4701
32973ION     NA49820   4.577   4.801  10.853  0.1292  0.2044 -0.0666
32974ION     NA49821   4.165   9.367  11.193  0.3355 -0.0550 -0.0147
32975ION     NA49822   9.283   4.400   5.651  0.1225  0.0000  0.3510
32976ION     NA49823  14.827   6.538  10.772  0.1238  0.1843  0.0726
32977ION     NA49824   3.537  12.947   4.380 -0.2572  0.1587 -0.1128
32978ION     NA49825  15.545   3.375   0.962  0.1367 -0.4004  0.4374
32979ION     NA49826   8.554  15.039  12.203 -0.3214  0.0653 -0.0292
32980ION     NA49827  16.743  12.160  10.664 -0.0681 -0.3637 -0.0540
32981ION     NA49828  16.307   3.863   0.272  0.1761  0.2651 -0.2675
32982ION     NA49829   6.595   3.417  10.555  0.3613 -0.2030 -0.0068
32983ION     NA49830   2.231   0.746  10.584  0.1082  0.2074  0.4095
32984ION     NA49831   8.968  10.939  13.461  0.0004  0.0382  0.3064
32985ION     NA49832  12.365  14.929  10.416  0.0774 -0.1573  0.0749
32986ION     NA49833   9.282   1.089   4.877  0.0523 -0.2569  0.0054
32987ION     NA49834  10.183  11.204  10.727 -0.0446 -0.0400  0.1085
32988ION     NA49835   8.061  16.304   3.696  0.1571  0.0090 -0.1831
32989ION     NA49836   2.677   9.280  12.304 -0.3472  0.2615 -0.1258
32990ION     NA49837   5.344   5.846  10.616  0.0629  0.1922 -0.2418
32991ION     NA49838   1.252   8.740  10.861  0.2201  0.0934  0.2202
32992ION     NA49839  16.803  11.361  10.642  0.1267  0.0416 -0.0056
32993ION     NA49840   7.809   0.213  10.670  0.1451 -0.0100  0.3608
32994ION     NA49841  11.806   6.108  10.811 -0.0716 -0.1843 -0.0129
32995ION     NA49842   7.336   7.256  10.992  0.0459 -0.3287 -0.0927
32996ION     NA49843  14.174   7.812   1.661  0.0702 -0.1813 -0.0074
32997ION     NA49844   6.513   2.891  12.006 -0.1066  0.0756 -0.1234
32998ION     NA49845  14.912  16.799  10.157 -0.1688 -0.0155 -0.1607
32999ION     NA49846  15.835   9.049  10.614 -0.0435 -0.1675 -0.0224
33000ION     NA49847  17.787  15.298  10.864  0.2478 -0.1624  0.0421
33001ION     NA49848   9.134  12.742  13.041  0.0430 -0.2639  0.0390
33002ION     NA49849  11.889   4.473   5.788 -0.1478 -0.0328 -0.0711
33003ION     NA49850   9.513   8.473   2.286 -0.1581  0.1509 -0.3528
33004ION     NA49851   6.501   8.319  10.940 -0.0973 -0.0083  0.0147
33005ION     NA49852  12.619  17.174  10.192 -0.0717  0.0305  0.0365
33006ION     NA49853  11.317  13.333   3.545 -0.0570 -0.0323 -0.0069
33007ION     NA49854   4.087   3.926  10.597  0.2729  0.0582  0.2502
33008ION     NA49855  17.281   8.281   4.477  0.0582 -0.0283  0.0834
33009ION     NA49856  15.341  17.471   2.188 -0.0771 -0.0714 -0.1592
33010ION     NA49857   0.464   8.976  10.992  0.1630 -0.1038  0.2867
33011ION     NA49858  13.678  16.910   2.167 -0.0932  0.1103 -0.0929
33012ION     NA49859  18.065  12.805  10.903  0.0682 -0.2444  0.1734
33013ION     NA49860  15.069  16.323  10.356 -0.3496 -0.0305 -0.1417
33014ION     NA49861   4.286  17.187  14.798 -0.1934 -0.0985  0.1429
33015ION     NA49862   2.168   0.587  15.737 -0.0982  0.0490  0.1265
33016ION     NA49863   4.458   5.604   5.974  0.0453 -0.2188  0.0250
33017ION     NA49864  13.804   0.333  13.957 -0.1261  0.2421  0.1907
33018ION     NA49865  12.707   8.445  10.900 -0.3859  0.0528 -0.1466
33019ION     NA49866  12.543   2.583  10.304 -0.0100 -0.0490  0.0804
33020ION     NA49867  12.951   1.089  15.389  0.1953 -0.0676 -0.2268
33021ION     NA49868   8.144   8.670  10.944  0.1764  0.1284 -0.1779
33022ION     NA49869   5.274   8.155  11.063 -0.2704 -0.3888  0.0128
33023ION     NA49870   4.915   0.828   5.965  0.0749  0.0397 -0.5134
33024ION     NA49871  17.978   1.689  14.404 -0.3425 -0.0832 -0.2587
33025ION     NA49872   1.653   5.000  10.639 -0.1291 -0.0607 -0.2706
33026ION     NA49873  12.103  14.628  12.254  0.0996 -0.1211  0.1347
33027ION     NA49874   0.300   5.766  10.601 -0.0149  0.0765  0.0538
33028ION     NA49875   6.776   0.503  11.593  0.1619  0.2790 -0.1536
33029ION     NA49876  11.458  16.492  10.183 -0.0491  0.1430 -0.0671
33030ION     NA49877   7.898  16.757  12.334  0.1455  0.0035 -0.0702
  18.07448  18.07448  16.68959
