INSANE! Membrane UpperLeaflet>loPI=1.0 LowerLeaflet>PSPI:POPI:POPS:YOPS:POPE:YOPE:POPC:YOPC:ERGO=6.0:14.0:21.0:9.0:9.0:21.0:12.0:48.0:60.0
49877
    1loPI    C1    1  17.309  11.593  11.068 -0.1416 -0.0538  0.0384
    1loPI    C2    2  17.379  11.673  11.454 -0.0413  0.0223  0.0051
    1loPI    C3    3  17.550  11.355  11.281 -0.2415 -0.1245  0.0729
    1loPI   PO4    4  17.345  11.770  10.857 -0.1719  0.2302  0.0481
    1loPI   GL1    5  17.357  12.070  10.472  0.2605  0.1691  0.2915
    1loPI   GL2    6  17.603  11.820  10.380 -0.2278 -0.1115  0.1963
    1loPI   C1A    7  17.239  11.984  10.001  0.3128 -0.2789 -0.1124
    1loPI   C2A    8  17.282  12.026   9.617  0.1768 -0.1655 -0.0104
    1loPI   C3A    9  17.321  12.029   9.150  0.0704  0.1958  0.2895
    1loPI   C4A   10  17.285  11.918   8.783  0.1091 -0.1893  0.0447
    1loPI   C5A   11  17.281  11.774   8.342  0.0822  0.0721  0.1212
    1loPI   C6A   12  17.473  11.363   8.212 -0.1539 -0.1282 -0.2381
    1loPI   C1B   13  17.687  11.867   9.970 -0.0192 -0.2171 -0.1657
    1loPI   C2B   14  17.846  11.834   9.544 -0.0424 -0.1872 -0.1179
    1loPI   C3B   15  17.796  11.849   8.993  0.1270  0.1097  0.2422
    1loPI   C4B   16  17.762  11.764   8.566  0.0094 -0.0671 -0.2143
    2loPI    C1   17  13.190   9.404  10.988  0.0998 -0.0484 -0.1346
    2loPI    C2   18  13.560   9.523  11.080  0.0244 -0.0151  0.1333
    2loPI    C3   19  13.296   9.447  11.371 -0.1342 -0.1851 -0.0519
    2loPI   PO4   20  13.163   9.505  10.782 -0.0168  0.1670  0.0320
    2loPI   GL1   21  13.242   9.243  10.528  0.0822 -0.0180 -0.1680
    2loPI   GL2   22  13.191   8.888  10.449  0.0523 -0.1828 -0.0605
    2loPI   C1A   23  13.309   9.275  10.119 -0.1206 -0.0484  0.0994
    2loPI   C2A   24  13.315   9.235   9.711 -0.0435 -0.1409  0.0020
    2loPI   C3A   25  13.323   9.266   9.321  0.3745 -0.1294  0.0828
    2loPI   C4A   26  13.348   9.248   8.918  0.0349 -0.0397 -0.0536
    2loPI   C5A   27  13.286   9.219   8.442 -0.3006  0.0243  0.0578
    2loPI   C6A   28  12.996   9.533   8.258  0.1869  0.1492 -0.1395
    2loPI   C1B   29  12.922   8.953  10.073  0.1160 -0.0252  0.1836
    2loPI   C2B   30  12.895   9.005   9.628 -0.0553  0.0054  0.0892
    2loPI   C3B   31  12.886   8.945   9.236 -0.0192  0.0115  0.0555
    2loPI   C4B   32  12.898   8.962   8.788  0.3229 -0.3112  0.0548
    3loPI    C1   33  10.570   9.815  10.977  0.2201 -0.1085  0.2215
    3loPI    C2   34  10.583  10.098  11.259 -0.2433  0.0816  0.0614
    3loPI    C3   35  10.312   9.805  11.283 -0.0922 -0.0675 -0.0350
    3loPI   PO4   36  10.567   9.905  10.805  0.2119 -0.0899  0.1195
    3loPI   GL1   37  10.434  10.250  10.420 -0.0447  0.2313 -0.1099
    3loPI   GL2   38  10.450   9.892  10.223  0.0276  0.0686  0.1674
    3loPI   C1A   39  10.321  10.351  10.092 -0.4779 -0.0015 -0.2054
    3loPI   C2A   40  10.431  10.396   9.638  0.0458  0.1584 -0.1366
    3loPI   C3A   41  10.443  10.296   9.264 -0.1832  0.0515  0.0373
    3loPI   C4A   42  10.361  10.325   8.786  0.1771 -0.1257  0.0656
    3loPI   C5A   43  10.220  10.382   8.487  0.3545  0.0591 -0.0738
    3loPI   C6A   44  10.075  10.316   8.045  0.0763 -0.3047 -0.0375
    3loPI   C1B   45  10.531   9.876   9.788 -0.0712  0.2934 -0.2603
    3loPI   C2B   46  10.522   9.817   9.291 -0.1865 -0.0154 -0.0466
    3loPI   C3B   47  10.427   9.835   8.867  0.2483  0.0556  0.0882
    3loPI   C4B   48  10.303   9.886   8.472 -0.2999  0.0911  0.2455
    4loPI    C1   49   2.732   7.017  11.236  0.1233 -0.0615  0.0048
    4loPI    C2   50   2.636   7.405  11.235  0.2716 -0.0237 -0.1489
    4loPI    C3   51   2.354   7.129  11.302  0.1755  0.1119  0.0135
    4loPI   PO4   52   2.862   6.987  10.980 -0.1602  0.2314 -0.3188
    4loPI   GL1   53   2.903   7.032  10.612  0.1483  0.2627  0.0920
    4loPI   GL2   54   3.021   6.782  10.411  0.0871  0.1450  0.1417
    4loPI   C1A   55   2.763   7.145  10.185 -0.1814  0.1866 -0.2147
    4loPI   C2A   56   2.831   7.161   9.811 -0.0545  0.0517  0.0458
    4loPI   C3A   57   2.903   7.150   9.446  0.1266  0.1025  0.1185
    4loPI   C4A   58   2.993   7.243   8.952  0.1507  0.0725  0.2475
    4loPI   C5A   59   3.001   7.417   8.515  0.2525 -0.3241  0.1561
    4loPI   C6A   60   2.837   7.491   7.991  0.1681 -0.1288  0.0188
    4loPI   C1B   61   2.924   6.696  10.040 -0.3478  0.0074 -0.0322
    4loPI   C2B   62   2.963   6.665   9.610 -0.2232  0.0197 -0.2456
    4loPI   C3B   63   3.054   6.713   9.137  0.0006 -0.3463  0.1283
    4loPI   C4B   64   3.056   6.733   8.674 -0.1883 -0.0114  0.0723
    5loPI    C1   65   6.228   6.124  11.435 -0.1803  0.0190  0.0253
    5loPI    C2   66   5.859   6.006  11.534 -0.0844 -0.1543  0.1819
    5loPI    C3   67   6.171   5.766  11.603  0.0321 -0.1120 -0.1763
    5loPI   PO4   68   6.284   6.216  11.206  0.3029 -0.2431  0.0262
    5loPI   GL1   69   6.319   6.301  10.896 -0.0938  0.0001  0.3792
    5loPI   GL2   70   6.171   6.091  10.679 -0.1336  0.0048 -0.0351
    5loPI   C1A   71   6.483   6.580  10.532  0.0857  0.1670 -0.0217
    5loPI   C2A   72   6.494   6.523  10.000  0.2657  0.0023 -0.0483
    5loPI   C3A   73   6.532   6.587   9.639 -0.0053  0.0269  0.1438
    5loPI   C4A   74   6.497   6.551   9.248  0.1319  0.0309  0.0424
    5loPI   C5A   75   6.582   6.561   8.812 -0.0882  0.0418 -0.0823
    5loPI   C6A   76   6.756   6.745   8.376  0.0427 -0.0215 -0.1973
    5loPI   C1B   77   6.030   6.306  10.249  0.0275  0.0561  0.0632
    5loPI   C2B   78   6.025   6.227   9.845  0.0119  0.0700 -0.1951
    5loPI   C3B   79   6.151   6.230   9.403  0.0214  0.0984 -0.1890
    5loPI   C4B   80   6.053   6.283   9.028  0.3533  0.3097 -0.4750
    6loPI    C1   81   2.479   1.274  10.697  0.0889 -0.2336  0.0479
    6loPI    C2   82   2.255   0.958  10.801  0.1469 -0.2763  0.0434
    6loPI    C3   83   2.365   1.225  11.078  0.0400 -0.2230  0.0347
    6loPI   PO4   84   2.492   1.172  10.385  0.1774  0.1715  0.1941
    6loPI   GL1   85   2.429   1.153   9.987  0.1567  0.1990  0.0638
    6loPI   GL2   86   2.220   1.185   9.845 -0.0989  0.1337 -0.4276
    6loPI   C1A   87   2.759   1.425   9.684  0.1960 -0.1127  0.0651
    6loPI   C2A   88   2.713   1.457   9.275 -0.1471 -0.0693  0.1500
    6loPI   C3A   89   2.683   1.336   8.871 -0.2243  0.0244 -0.1164
    6loPI   C4A   90   2.832   1.364   8.528 -0.0119  0.1804  0.1807
    6loPI   C5A   91   2.774   1.340   8.096  0.0318 -0.2660  0.0397
    6loPI   C6A   92   2.614   1.576   7.705  0.3880 -0.0767  0.0274
    6loPI   C1B   93   2.327   1.157   9.449  0.3019  0.0841 -0.2717
    6loPI   C2B   94   2.268   1.140   8.979  0.1164  0.0400 -0.1505
    6loPI   C3B   95   2.386   1.087   8.536  0.1167  0.0126  0.0587
    6loPI   C4B   96   2.420   0.958   8.094  0.1232 -0.2422  0.2682
    7loPI    C1   97   3.986  12.450  11.160 -0.0342  0.2740 -0.0730
    7loPI    C2   98   4.233  12.396  11.470 -0.1980 -0.1423 -0.0077
    7loPI    C3   99   3.942  12.670  11.491  0.1349  0.2208 -0.0140
    7loPI   PO4  100   4.047  12.455  10.949  0.0114 -0.0083 -0.0694
    7loPI   GL1  101   4.087  12.394  10.615 -0.1349  0.1288 -0.1894
    7loPI   GL2  102   3.905  12.382  10.406 -0.1256  0.2310 -0.0949
    7loPI   C1A  103   4.242  12.796  10.359  0.0507 -0.1221 -0.0664
    7loPI   C2A  104   4.299  12.748  10.023  0.3310  0.0745 -0.0392
    7loPI   C3A  105   4.189  12.705   9.594 -0.0455 -0.2307  0.3091
    7loPI   C4A  106   4.108  12.748   9.149 -0.1768 -0.1331 -0.1321
    7loPI   C5A  107   4.184  12.690   8.704 -0.1633 -0.1758 -0.0498
    7loPI   C6A  108   4.304  12.945   8.394 -0.1996 -0.2282 -0.0040
    7loPI   C1B  109   3.887  12.415   9.922 -0.1464 -0.2968 -0.1590
    7loPI   C2B  110   3.855  12.356   9.520 -0.1070 -0.1652  0.1143
    7loPI   C3B  111   3.775  12.267   9.070 -0.0358  0.0123  0.3283
    7loPI   C4B  112   3.778  12.385   8.624  0.0122 -0.0120 -0.0217
    8loPI    C1  113  11.677   8.694  11.062  0.0717  0.1232  0.0983
    8loPI    C2  114  12.041   8.581  11.184  0.0762  0.2158  0.1713
    8loPI    C3  115  11.719   8.482  11.399  0.0370 -0.0531 -0.0071
    8loPI   PO4  116  11.623   8.623  10.874 -0.0650 -0.0293 -0.0538
    8loPI   GL1  117  11.560   8.529  10.425 -0.1990  0.0948 -0.1922
    8loPI   GL2  118  11.869   8.369  10.350  0.2660 -0.2987  0.1892
    8loPI   C1A  119  11.581   8.485   9.944 -0.1448 -0.3384  0.2632
    8loPI   C2A  120  11.499   8.469   9.461 -0.1303 -0.0708 -0.2821
    8loPI   C3A  121  11.504   8.539   9.018  0.2892  0.0293  0.0565
    8loPI   C4A  122  11.555   8.635   8.611 -0.3478  0.0339  0.0653
    8loPI   C5A  123  11.682   8.431   8.197 -0.2608 -0.3469  0.1234
    8loPI   C6A  124  11.311   8.247   7.905 -0.3504 -0.1731 -0.4407
    8loPI   C1B  125  12.113   8.310   9.972  0.2081 -0.3888  0.1611
    8loPI   C2B  126  12.062   8.278   9.430 -0.1796  0.2966 -0.1443
    8loPI   C3B  127  12.116   8.341   8.992 -0.2100  0.2443 -0.1021
    8loPI   C4B  128  11.961   8.306   8.617 -0.1657  0.1939 -0.2198
    9loPI    C1  129  11.361  10.089  10.869  0.3088 -0.1646  0.1226
    9loPI    C2  130  11.051   9.894  11.030  0.0666 -0.0533 -0.1971
    9loPI    C3  131  11.076  10.292  11.063  0.4920 -0.1131  0.3413
    9loPI   PO4  132  11.421   9.960  10.667 -0.1402  0.1721  0.1095
    9loPI   GL1  133  11.127   9.910  10.173 -0.1487 -0.0264  0.0182
    9loPI   GL2  134  11.445   9.865  10.175  0.1879 -0.0155 -0.0868
    9loPI   C1A  135  11.072   9.643   9.802  0.0603  0.1359  0.0119
    9loPI   C2A  136  11.004   9.695   9.392 -0.0768 -0.1259  0.0689
    9loPI   C3A  137  11.003   9.697   8.942 -0.0724 -0.1799 -0.0625
    9loPI   C4A  138  10.830   9.628   8.579 -0.1076 -0.1159  0.2407
    9loPI   C5A  139  11.049   9.428   8.282 -0.1296 -0.0482 -0.0443
    9loPI   C6A  140  10.803   9.152   8.183 -0.2337  0.1370  0.0694
    9loPI   C1B  141  11.390  10.043   9.734 -0.1207 -0.2601 -0.0051
    9loPI   C2B  142  11.392   9.989   9.302  0.3194 -0.1210  0.2826
    9loPI   C3B  143  11.407  10.038   8.883 -0.1433 -0.1366  0.0851
    9loPI   C4B  144  11.272   9.952   8.467  0.0975  0.1075  0.2745
   10loPI    C1  145  14.794  12.617  11.175 -0.1954 -0.0077  0.0803
   10loPI    C2  146  14.958  12.581  11.538  0.0334  0.2079  0.0019
   10loPI    C3  147  14.633  12.367  11.442  0.1841 -0.1221  0.2087
   10loPI   PO4  148  14.820  12.558  10.917 -0.1788 -0.1983 -0.3308
   10loPI   GL1  149  15.131  12.497  10.605  0.0911 -0.1020 -0.1235
   10loPI   GL2  150  15.111  12.166  10.672 -0.0117 -0.3257  0.3704
   10loPI   C1A  151  15.110  12.446  10.225  0.4373  0.0673  0.1241
   10loPI   C2A  152  14.973  12.481   9.845 -0.0335 -0.2165  0.0053
   10loPI   C3A  153  14.971  12.409   9.465  0.0829  0.1752  0.1845
   10loPI   C4A  154  15.003  12.418   9.073  0.1350  0.0166  0.0371
   10loPI   C5A  155  14.962  12.396   8.582  0.0262 -0.1174 -0.1522
   10loPI   C6A  156  14.713  12.119   8.336 -0.0020 -0.3205  0.4084
   10loPI   C1B  157  15.122  11.950  10.229 -0.1062  0.2892 -0.1962
   10loPI   C2B  158  15.163  11.821   9.768 -0.1358 -0.0043  0.1245
   10loPI   C3B  159  15.142  11.967   9.328 -0.0130 -0.1862 -0.0084
   10loPI   C4B  160  15.099  11.902   8.903 -0.2490  0.3192  0.0287
   11loPI    C1  161  16.457  17.165  11.261  0.1578  0.0627  0.0206
   11loPI    C2  162  16.535  17.128  11.652 -0.1748  0.0132  0.0851
   11loPI    C3  163  16.525  17.490  11.483  0.3562  0.0120  0.0359
   11loPI   PO4  164  16.615  17.076  11.139 -0.1980 -0.0067 -0.0899
   11loPI   GL1  165  16.720  17.039  10.684 -0.2006  0.2233 -0.1915
   11loPI   GL2  166  16.575  16.712  10.531  0.0371 -0.0785  0.0977
   11loPI   C1A  167  16.543  17.268  10.347 -0.0906  0.1839  0.1437
   11loPI   C2A  168  16.489  17.182   9.875 -0.1177 -0.3946  0.0845
   11loPI   C3A  169  16.426  17.164   9.447  0.0700 -0.2092  0.0179
   11loPI   C4A  170  16.439  17.092   8.986 -0.0637  0.2348 -0.0794
   11loPI   C5A  171  16.533  16.978   8.604 -0.2540  0.0025  0.3009
   11loPI   C6A  172  16.660  16.532   8.355  0.3885  0.3184 -0.2236
   11loPI   C1B  173  16.586  16.715  10.139  0.2311 -0.0449 -0.1167
   11loPI   C2B  174  16.548  16.702   9.700  0.2403  0.2176 -0.0228
   11loPI   C3B  175  16.497  16.659   9.267  0.1700 -0.1388 -0.1834
   11loPI   C4B  176  16.498  16.537   8.856 -0.0215 -0.1517 -0.1216
   12loPI    C1  177   3.131   7.380  11.250 -0.0361  0.2524  0.0062
   12loPI    C2  178   3.356   7.393  11.580 -0.1558  0.4185  0.0828
   12loPI    C3  179   3.009   7.196  11.584  0.0561  0.0320 -0.0800
   12loPI   PO4  180   3.284   7.304  11.063 -0.1625 -0.1558  0.3261
   12loPI   GL1  181   3.534   7.318  10.591  0.3070  0.3136 -0.1629
   12loPI   GL2  182   3.865   7.359  10.618  0.1615  0.1365  0.0216
   12loPI   C1A  183   3.408   7.053  10.213  0.0367  0.1526  0.2197
   12loPI   C2A  184   3.354   6.998   9.705 -0.1536 -0.0246 -0.1013
   12loPI   C3A  185   3.450   6.991   9.294 -0.0828 -0.0376 -0.0489
   12loPI   C4A  186   3.492   7.067   8.878  0.1536  0.1204 -0.0125
   12loPI   C5A  187   3.425   7.000   8.469 -0.3469  0.1296  0.1555
   12loPI   C6A  188   3.601   6.913   8.128 -0.0072  0.0931 -0.1111
   12loPI   C1B  189   3.811   7.375  10.213 -0.0483  0.0515  0.0833
   12loPI   C2B  190   3.692   7.346   9.827  0.2010  0.0997  0.1813
   12loPI   C3B  191   3.769   7.340   9.421  0.0038 -0.3002  0.1130
   12loPI   C4B  192   3.751   7.494   9.082  0.2376  0.0542 -0.2564
   13loPI    C1  193  12.695  10.231  10.902  0.1063 -0.3127 -0.0183
   13loPI    C2  194  12.989  10.344  11.149 -0.0292 -0.1410  0.0666
   13loPI    C3  195  12.617  10.297  11.289 -0.0252 -0.4520 -0.0198
   13loPI   PO4  196  12.810   9.996  10.790 -0.0439  0.2911 -0.3047
   13loPI   GL1  197  12.882   9.777  10.419 -0.0570 -0.1852  0.1364
   13loPI   GL2  198  13.128   9.663  10.304  0.0751 -0.1057 -0.3900
   13loPI   C1A  199  12.797   9.994  10.100 -0.1410  0.3304 -0.0049
   13loPI   C2A  200  12.765   9.973   9.675 -0.0711  0.0814 -0.1060
   13loPI   C3A  201  12.715   9.933   9.251 -0.0074 -0.3405 -0.0077
   13loPI   C4A  202  12.717   9.917   8.819  0.2604 -0.1521  0.1092
   13loPI   C5A  203  12.731   9.870   8.424 -0.2278  0.0671 -0.2671
   13loPI   C6A  204  12.577   9.646   7.976  0.1592 -0.2914  0.1727
   13loPI   C1B  205  13.284   9.797   9.946 -0.0476 -0.1491 -0.0006
   13loPI   C2B  206  13.225   9.764   9.573 -0.1476  0.0601  0.0445
   13loPI   C3B  207  13.207   9.775   9.112 -0.0340 -0.1033 -0.5105
   13loPI   C4B  208  13.210   9.839   8.688  0.1998  0.1745 -0.1152
   14loPI    C1  209  14.633  11.031  10.904 -0.0517 -0.1008  0.0265
   14loPI    C2  210  14.594  11.098  11.296 -0.0691  0.1159 -0.0116
   14loPI    C3  211  14.953  11.129  11.123  0.0058 -0.3347  0.0509
   14loPI   PO4  212  14.572  10.802  10.833  0.4343 -0.0163  0.0540
   14loPI   GL1  213  14.435  10.579  10.471 -0.0414 -0.2067  0.0763
   14loPI   GL2  214  14.478  10.211  10.348  0.0017 -0.0964 -0.0948
   14loPI   C1A  215  14.390  10.811  10.119  0.1546  0.0292 -0.1682
   14loPI   C2A  216  14.339  10.753   9.708 -0.4341  0.3686 -0.0524
   14loPI   C3A  217  14.255  10.674   9.306 -0.0570 -0.0103 -0.1953
   14loPI   C4A  218  14.342  10.767   8.865  0.0369  0.1146  0.0706
   14loPI   C5A  219  14.424  10.724   8.408  0.0292  0.0753  0.1184
   14loPI   C6A  220  14.448  10.346   8.161 -0.2822 -0.1290 -0.1462
   14loPI   C1B  221  14.458  10.272   9.865 -0.0915 -0.3279  0.0392
   14loPI   C2B  222  14.455  10.225   9.474  0.0218 -0.1077  0.0820
   14loPI   C3B  223  14.386  10.253   9.097  0.0574 -0.0040  0.0751
   14loPI   C4B  224  14.419  10.260   8.709  0.0880  0.0751 -0.0781
   15loPI    C1  225   8.051  16.952  10.972  0.1816  0.0407 -0.1477
   15loPI    C2  226   8.055  16.753  11.319 -0.1155 -0.1152 -0.2299
   15loPI    C3  227   8.013  17.150  11.317  0.0086 -0.1003 -0.0842
   15loPI   PO4  228   7.935  16.725  10.753 -0.0770  0.2374  0.1213
   15loPI   GL1  229   7.947  16.765  10.357  0.0257 -0.0700  0.1655
   15loPI   GL2  230   8.081  16.738  10.197 -0.3311  0.0238  0.2314
   15loPI   C1A  231   7.684  16.726   9.920  0.2791 -0.0593 -0.2414
   15loPI   C2A  232   7.702  16.747   9.484  0.2241  0.1560  0.1059
   15loPI   C3A  233   7.735  16.762   9.103  0.1656 -0.1166 -0.0858
   15loPI   C4A  234   7.681  16.748   8.638  0.2738  0.1360  0.0612
   15loPI   C5A  235   7.458  16.685   8.275  0.2559  0.3379 -0.0368
   15loPI   C6A  236   7.493  16.475   7.874 -0.0252  0.4358  0.1351
   15loPI   C1B  237   8.214  16.656   9.804  0.3259  0.0100 -0.1955
   15loPI   C2B  238   8.147  16.574   9.385  0.2489  0.3395  0.1777
   15loPI   C3B  239   8.192  16.585   8.978  0.2766 -0.1061  0.0434
   15loPI   C4B  240   8.185  16.635   8.528  0.2222  0.1090  0.0702
   16loPI    C1  241  10.956  11.766  11.118  0.1769  0.0320  0.1105
   16loPI    C2  242  10.762  11.600  11.425 -0.0003 -0.0548 -0.0460
   16loPI    C3  243  11.139  11.725  11.471 -0.0856  0.1023  0.2577
   16loPI   PO4  244  10.935  11.642  10.935 -0.0510 -0.0946 -0.1540
   16loPI   GL1  245  10.991  11.364  10.683 -0.0166  0.0656 -0.0289
   16loPI   GL2  246  10.760  11.184  10.502 -0.1312 -0.1159 -0.0290
   16loPI   C1A  247  11.187  11.397  10.304  0.1500  0.1417 -0.0680
   16loPI   C2A  248  11.188  11.430   9.869  0.0675  0.3812 -0.0114
   16loPI   C3A  249  11.147  11.509   9.440  0.4099 -0.0272 -0.1697
   16loPI   C4A  250  11.102  11.556   9.023 -0.0581 -0.0763  0.1971
   16loPI   C5A  251  11.051  11.490   8.606 -0.0266  0.1285  0.0384
   16loPI   C6A  252  11.073  11.436   8.201  0.0831 -0.0658  0.3254
   16loPI   C1B  253  10.796  11.085  10.117 -0.0515 -0.2206 -0.2282
   16loPI   C2B  254  10.765  11.136   9.655 -0.0957  0.2073  0.1755
   16loPI   C3B  255  10.692  11.247   9.264 -0.1085  0.1102  0.1023
   16loPI   C4B  256  10.664  11.215   8.755 -0.1287  0.0636 -0.0390
   17loPI    C1  257   9.793   7.418  11.068  0.0417  0.0069 -0.0222
   17loPI    C2  258   9.878   7.152  11.354  0.1897  0.1496  0.0680
   17loPI    C3  259   9.520   7.330  11.347  0.1869  0.1489  0.1675
   17loPI   PO4  260   9.779   7.281  10.878  0.0454 -0.1673  0.0292
   17loPI   GL1  261   9.942   7.231  10.502 -0.1594 -0.2686 -0.2468
   17loPI   GL2  262   9.967   6.901  10.573 -0.1572 -0.3434  0.2412
   17loPI   C1A  263  10.105   7.070  10.096 -0.1953 -0.1165  0.2135
   17loPI   C2A  264  10.137   7.114   9.696 -0.1623 -0.4075 -0.0703
   17loPI   C3A  265   9.991   7.147   9.236 -0.0938 -0.1190  0.0891
   17loPI   C4A  266   9.931   7.189   8.721 -0.0138  0.0639  0.1221
   17loPI   C5A  267   9.981   7.379   8.266 -0.3349 -0.1983 -0.0002
   17loPI   C6A  268  10.213   7.672   8.048  0.3863  0.2578  0.0963
   17loPI   C1B  269  10.215   6.627  10.297  0.0830 -0.0095  0.1916
   17loPI   C2B  270  10.134   6.621   9.897  0.3175  0.0857 -0.3213
   17loPI   C3B  271  10.171   6.663   9.436 -0.1966  0.1625 -0.0927
   17loPI   C4B  272  10.107   6.688   9.071  0.2592  0.0986 -0.0968
   18loPI    C1  273   0.153   7.884  11.136  0.2178  0.0937 -0.1000
   18loPI    C2  274   0.341   8.094  11.420  0.0510 -0.0578  0.1253
   18loPI    C3  275  -0.059   8.095  11.402  0.0613 -0.0102 -0.1406
   18loPI   PO4  276   0.194   7.959  10.923  0.0250  0.1683 -0.0617
   18loPI   GL1  277   0.007   7.917  10.503 -0.0308 -0.1127 -0.2321
   18loPI   GL2  278  -0.282   7.744  10.383 -0.1746  0.1408  0.0905
   18loPI   C1A  279   0.086   7.961  10.029  0.0709  0.0616  0.0778
   18loPI   C2A  280   0.224   7.900   9.638  0.0667  0.2860 -0.1088
   18loPI   C3A  281   0.155   7.962   9.158 -0.0095  0.0928  0.1469
   18loPI   C4A  282   0.012   8.023   8.815 -0.1849  0.1107 -0.0313
   18loPI   C5A  283  -0.101   7.999   8.485 -0.2620 -0.0369  0.0936
   18loPI   C6A  284  -0.048   8.148   8.150  0.1228 -0.0688 -0.1269
   18loPI   C1B  285  -0.263   7.645  10.044  0.1450  0.0161 -0.0962
   18loPI   C2B  286  -0.218   7.602   9.572  0.0202  0.2348  0.0962
   18loPI   C3B  287  -0.311   7.608   9.136 -0.0426 -0.0760  0.0081
   18loPI   C4B  288  -0.445   7.672   8.694 -0.2548  0.1533 -0.3379
   19loPI    C1  289  12.861  12.217  11.436  0.0997 -0.0145  0.0693
   19loPI    C2  290  12.581  11.931  11.426 -0.0357  0.1232 -0.1791
   19loPI    C3  291  12.506  12.278  11.611  0.1283  0.0019  0.1221
   19loPI   PO4  292  12.949  12.317  11.152 -0.0010  0.0992  0.0302
   19loPI   GL1  293  12.916  12.195  10.717 -0.1653 -0.0062  0.0270
   19loPI   GL2  294  12.671  12.275  10.502  0.0503  0.2844  0.0515
   19loPI   C1A  295  13.221  12.117  10.366  0.0963  0.2326 -0.2421
   19loPI   C2A  296  13.338  12.153   9.859 -0.0428  0.1235 -0.0007
   19loPI   C3A  297  13.320  12.186   9.420  0.2290  0.1083  0.0675
   19loPI   C4A  298  13.286  12.252   8.976 -0.0603  0.1247  0.1655
   19loPI   C5A  299  13.402  12.186   8.528  0.0790 -0.0807 -0.0627
   19loPI   C6A  300  13.578  12.266   8.129 -0.0917  0.2320  0.2262
   19loPI   C1B  301  12.806  12.261  10.106  0.0759 -0.1055 -0.3959
   19loPI   C2B  302  12.817  12.253   9.550  0.1519 -0.0164  0.0128
   19loPI   C3B  303  12.795  12.308   9.152  0.3486 -0.1461 -0.0221
   19loPI   C4B  304  12.812  12.368   8.776 -0.2129  0.1075  0.0481
   20loPI    C1  305  14.333  14.751  11.324 -0.3075 -0.1363 -0.1402
   20loPI    C2  306  14.659  14.745  11.092 -0.1319 -0.1300  0.1030
   20loPI    C3  307  14.439  14.414  11.136 -0.0909 -0.1669  0.0328
   20loPI   PO4  308  14.150  14.868  11.161  0.0113 -0.0809 -0.0960
   20loPI   GL1  309  14.204  14.970  10.699 -0.2577  0.1273 -0.2327
   20loPI   GL2  310  14.413  14.710  10.673  0.4800 -0.1393  0.1640
   20loPI   C1A  311  14.151  15.056  10.286  0.1517 -0.1244 -0.1715
   20loPI   C2A  312  14.117  15.109   9.846  0.1343 -0.0365  0.1286
   20loPI   C3A  313  14.127  15.096   9.408 -0.1188  0.0078 -0.1080
   20loPI   C4A  314  14.100  15.147   8.914  0.2672  0.3790  0.1714
   20loPI   C5A  315  14.026  15.141   8.499 -0.0142 -0.2132 -0.3730
   20loPI   C6A  316  14.070  14.801   8.128 -0.0527 -0.2680  0.0812
   20loPI   C1B  317  14.299  14.591  10.232 -0.0168 -0.2278  0.1354
   20loPI   C2B  318  14.204  14.637   9.809 -0.3563  0.2623 -0.2922
   20loPI   C3B  319  14.197  14.580   9.378  0.0918  0.0745  0.0231
   20loPI   C4B  320  14.167  14.573   9.016  0.1778  0.0666  0.1230
   21loPI    C1  321   0.685   7.801  11.086  0.1461 -0.2012 -0.1177
   21loPI    C2  322   0.922   8.086  11.237 -0.1888  0.1237 -0.1904
   21loPI    C3  323   0.872   7.741  11.434  0.0587  0.1951  0.0023
   21loPI   PO4  324   0.740   7.838  10.864 -0.6213  0.3507 -0.1772
   21loPI   GL1  325   0.599   8.121  10.530 -0.3274 -0.0600  0.0279
   21loPI   GL2  326   0.545   7.829  10.394 -0.0518 -0.1394 -0.2751
   21loPI   C1A  327   0.487   8.319  10.133 -0.1282  0.4693 -0.1723
   21loPI   C2A  328   0.552   8.360   9.717  0.2987  0.2049  0.2348
   21loPI   C3A  329   0.509   8.275   9.257 -0.1643 -0.1264 -0.1493
   21loPI   C4A  330   0.480   8.244   8.852  0.1702 -0.2847 -0.4616
   21loPI   C5A  331   0.415   8.098   8.416  0.0841 -0.1333  0.2220
   21loPI   C6A  332   0.550   7.805   8.254 -0.1057  0.0540 -0.0355
   21loPI   C1B  333   0.623   7.818  10.032 -0.2074  0.2732  0.1615
   21loPI   C2B  334   0.682   7.725   9.614 -0.1136 -0.1737 -0.0560
   21loPI   C3B  335   0.567   7.731   9.185 -0.3081 -0.0314  0.0898
   21loPI   C4B  336   0.503   7.742   8.765 -0.0354  0.3485  0.1110
   22loPI    C1  337   9.135   6.990  11.164  0.0631  0.0987  0.0135
   22loPI    C2  338   9.028   7.281  11.416  0.0017 -0.0160  0.1211
   22loPI    C3  339   8.794   7.192  11.104 -0.0321 -0.0201  0.1476
   22loPI   PO4  340   9.317   7.006  11.034  0.0997 -0.2028 -0.0186
   22loPI   GL1  341   9.458   7.006  10.614  0.0095 -0.1823  0.1935
   22loPI   GL2  342   9.445   7.242  10.459  0.0221 -0.0472  0.0774
   22loPI   C1A  343   9.574   6.843  10.225 -0.1603  0.2177 -0.0098
   22loPI   C2A  344   9.649   6.830   9.807 -0.3844 -0.0013 -0.1637
   22loPI   C3A  345   9.639   6.842   9.381 -0.2166  0.1718  0.2350
   22loPI   C4A  346   9.589   6.827   8.942 -0.1552  0.0921  0.0297
   22loPI   C5A  347   9.541   6.810   8.518  0.1449 -0.0100 -0.1285
   22loPI   C6A  348   9.364   6.571   8.156  0.2587  0.1970 -0.2410
   22loPI   C1B  349   9.613   7.321  10.065 -0.1058  0.1456  0.1249
   22loPI   C2B  350   9.643   7.300   9.607 -0.3111 -0.0756  0.1816
   22loPI   C3B  351   9.526   7.296   9.187  0.0721 -0.0330 -0.0448
   22loPI   C4B  352   9.497   7.377   8.730 -0.1407 -0.2911  0.1447
   23loPI    C1  353  10.408  17.121  10.685  0.2108  0.1249  0.0517
   23loPI    C2  354  10.121  16.981  10.927  0.2311 -0.0645 -0.0321
   23loPI    C3  355  10.492  17.037  11.067  0.1471  0.2128  0.0853
   23loPI   PO4  356  10.357  16.892  10.513  0.4126 -0.3886  0.0483
   23loPI   GL1  357  10.460  16.749  10.172 -0.1889  0.0266 -0.1382
   23loPI   GL2  358  10.443  16.414  10.356 -0.0743 -0.3084 -0.0261
   23loPI   C1A  359  10.308  16.615   9.818 -0.0360  0.1658  0.1999
   23loPI   C2A  360  10.434  16.794   9.403  0.1177 -0.0518  0.2284
   23loPI   C3A  361  10.642  16.808   9.032  0.1345  0.2452 -0.2973
   23loPI   C4A  362  10.586  16.737   8.584  0.1846 -0.0794  0.0229
   23loPI   C5A  363  10.559  16.745   8.158  0.2067 -0.3003  0.0562
   23loPI   C6A  364  10.350  16.508   7.896  0.1353  0.2286 -0.0322
   23loPI   C1B  365  10.440  16.128   9.980 -0.0730  0.1115  0.3146
   23loPI   C2B  366  10.429  15.953   9.518  0.1209 -0.3214  0.1739
   23loPI   C3B  367  10.368  15.914   9.123  0.1495 -0.0224 -0.0144
   23loPI   C4B  368  10.451  15.976   8.635  0.2337 -0.1856 -0.0025
   24loPI    C1  369   2.607  15.991  10.573  0.0924 -0.1284  0.1251
   24loPI    C2  370   2.577  15.914  10.964  0.0261  0.1362  0.1745
   24loPI    C3  371   2.865  16.157  10.830  0.2010 -0.1463  0.0285
   24loPI   PO4  372   2.676  15.764  10.487  0.2186  0.3090 -0.1495
   24loPI   GL1  373   2.966  15.580  10.130  0.1582  0.2108  0.3440
   24loPI   GL2  374   3.268  15.449  10.137  0.0615 -0.0265  0.1670
   24loPI   C1A  375   2.744  15.517   9.777  0.1997  0.0067 -0.0063
   24loPI   C2A  376   2.797  15.528   9.314 -0.2190  0.0410 -0.0239
   24loPI   C3A  377   2.801  15.464   8.988  0.1944  0.0464 -0.1588
   24loPI   C4A  378   2.829  15.362   8.531  0.0896  0.0022  0.1455
   24loPI   C5A  379   3.042  15.545   8.119 -0.2101 -0.1264 -0.2055
   24loPI   C6A  380   3.469  15.563   7.938 -0.0963 -0.0790 -0.0291
   24loPI   C1B  381   3.250  15.381   9.711 -0.0055 -0.2056  0.2037
   24loPI   C2B  382   3.235  15.312   9.244 -0.3495 -0.1675 -0.0728
   24loPI   C3B  383   3.208  15.208   8.780  0.1815 -0.0892  0.1056
   24loPI   C4B  384   3.265  15.141   8.345 -0.0795  0.0176 -0.6524
   25loPI    C1  385   4.694  11.790  11.215  0.0192 -0.2471  0.1168
   25loPI    C2  386   4.358  11.911  11.394 -0.0638  0.1627 -0.2981
   25loPI    C3  387   4.690  12.133  11.420  0.1213 -0.1326 -0.0698
   25loPI   PO4  388   4.709  11.749  10.938  0.4981 -0.0313  0.1264
   25loPI   GL1  389   4.545  11.720  10.568  0.1350 -0.1223 -0.0266
   25loPI   GL2  390   4.887  11.620  10.552 -0.1644 -0.0525 -0.1140
   25loPI   C1A  391   4.409  11.835  10.166 -0.0670 -0.0048 -0.0066
   25loPI   C2A  392   4.375  11.685   9.778  0.4207  0.1542 -0.0638
   25loPI   C3A  393   4.436  11.639   9.353  0.1582 -0.2855  0.1870
   25loPI   C4A  394   4.423  11.726   8.961  0.2119 -0.2324 -0.0686
   25loPI   C5A  395   4.326  11.580   8.509  0.0335 -0.1174 -0.2862
   25loPI   C6A  396   4.430  11.242   8.201  0.2333  0.3631 -0.1645
   25loPI   C1B  397   4.802  11.540  10.073  0.0585  0.2376  0.0184
   25loPI   C2B  398   4.849  11.528   9.627 -0.2612 -0.0516 -0.0183
   25loPI   C3B  399   4.915  11.489   9.200  0.1578  0.0142 -0.1946
   25loPI   C4B  400   4.812  11.488   8.777  0.0580  0.0337 -0.0297
   26loPI    C1  401  12.369   0.126  11.011 -0.1445 -0.0868  0.1646
   26loPI    C2  402  12.341  -0.066  11.361 -0.2078 -0.0568  0.1760
   26loPI    C3  403  12.697  -0.028  11.183 -0.1830 -0.1156  0.2125
   26loPI   PO4  404  12.307   0.091  10.892 -0.1600  0.0473 -0.0817
   26loPI   GL1  405  12.159  -0.014  10.510 -0.1482 -0.0147  0.1223
   26loPI   GL2  406  12.242  -0.295  10.505  0.3174  0.0011 -0.1283
   26loPI   C1A  407  12.120   0.192  10.215 -0.2833 -0.0190 -0.0845
   26loPI   C2A  408  12.152   0.210   9.756 -0.2232  0.1788 -0.1318
   26loPI   C3A  409  12.135   0.284   9.336 -0.2804  0.0200  0.0179
   26loPI   C4A  410  12.127   0.218   8.883  0.1265  0.2123 -0.0292
   26loPI   C5A  411  12.110   0.397   8.449 -0.0001 -0.3349 -0.0737
   26loPI   C6A  412  12.389   0.706   8.283  0.2295  0.2781  0.1234
   26loPI   C1B  413  12.276  -0.243  10.070  0.0352 -0.1127 -0.2110
   26loPI   C2B  414  12.357  -0.332   9.642 -0.0714  0.4870  0.0692
   26loPI   C3B  415  12.250  -0.312   9.193 -0.2704  0.1031  0.2160
   26loPI   C4B  416  12.252  -0.230   8.792 -0.1538 -0.1479  0.1829
   27loPI    C1  417   4.035   4.542  11.212 -0.1541 -0.0903  0.0637
   27loPI    C2  418   3.641   4.520  11.278 -0.1315 -0.2140  0.1600
   27loPI    C3  419   3.860   4.185  11.255 -0.0802 -0.1601 -0.1970
   27loPI   PO4  420   4.071   4.708  11.076 -0.1014 -0.1567 -0.0959
   27loPI   GL1  421   4.106   4.879  10.695  0.0166 -0.0222 -0.4142
   27loPI   GL2  422   4.066   4.587  10.406  0.0588 -0.3100  0.0129
   27loPI   C1A  423   4.390   5.000  10.338  0.1323  0.1417 -0.2980
   27loPI   C2A  424   4.422   5.078   9.909  0.1515 -0.2076 -0.1764
   27loPI   C3A  425   4.486   5.057   9.500  0.1987  0.1038  0.0786
   27loPI   C4A  426   4.507   5.034   9.126  0.0028  0.0655  0.0999
   27loPI   C5A  427   4.484   5.063   8.725  0.2091  0.0953 -0.1856
   27loPI   C6A  428   4.366   5.309   8.479 -0.0078  0.0797 -0.0886
   27loPI   C1B  429   3.998   4.775  10.023  0.1268 -0.3257 -0.0101
   27loPI   C2B  430   4.083   4.771   9.540 -0.0907  0.0603 -0.1277
   27loPI   C3B  431   4.064   4.688   9.152 -0.1827 -0.0334 -0.1922
   27loPI   C4B  432   4.100   4.667   8.666 -0.0682 -0.2260 -0.1494
   28loPI    C1  433  16.365  13.454  10.914 -0.3598 -0.0883  0.0074
   28loPI    C2  434  16.288  13.100  11.083 -0.2161 -0.0998  0.0502
   28loPI    C3  435  16.200  13.437  11.278 -0.2710 -0.1120  0.0469
   28loPI   PO4  436  16.256  13.479  10.730 -0.3563 -0.0371  0.2451
   28loPI   GL1  437  16.294  13.508  10.298  0.0178  0.0223  0.1432
   28loPI   GL2  438  16.587  13.313  10.341  0.1290  0.0267 -0.0615
   28loPI   C1A  439  16.129  13.409   9.948 -0.1349  0.4705  0.1819
   28loPI   C2A  440  16.222  13.403   9.586 -0.1943 -0.2480  0.0109
   28loPI   C3A  441  16.187  13.445   9.088  0.0315  0.0719 -0.0131
   28loPI   C4A  442  16.163  13.373   8.770  0.0507 -0.3159 -0.1303
   28loPI   C5A  443  16.010  13.377   8.384 -0.0711  0.2497  0.2020
   28loPI   C6A  444  15.787  13.387   7.933 -0.3263 -0.0008 -0.3617
   28loPI   C1B  445  16.602  13.276   9.880 -0.1570 -0.3496  0.3072
   28loPI   C2B  446  16.662  13.251   9.372  0.0762 -0.1608 -0.0701
   28loPI   C3B  447  16.594  13.210   8.860 -0.0417  0.1365 -0.1095
   28loPI   C4B  448  16.441  13.013   8.447  0.0193  0.1162  0.3541
   29loPI    C1  449   2.484   3.724  10.584 -0.1707  0.2543 -0.0346
   29loPI    C2  450   2.284   3.508  10.854  0.1748 -0.0160  0.0123
   29loPI    C3  451   2.341   3.899  10.913  0.0430 -0.0256  0.2127
   29loPI   PO4  452   2.592   3.538  10.442  0.2044 -0.1983  0.1339
   29loPI   GL1  453   2.869   3.632  10.070  0.1801 -0.1497 -0.1220
   29loPI   GL2  454   2.995   3.899  10.049 -0.1936  0.1283 -0.0594
   29loPI   C1A  455   2.893   3.322   9.810 -0.3828  0.0018 -0.0110
   29loPI   C2A  456   2.935   3.362   9.370  0.3624  0.2401  0.0840
   29loPI   C3A  457   3.027   3.192   9.050 -0.2169 -0.1160  0.1508
   29loPI   C4A  458   2.954   3.153   8.703 -0.1836 -0.1435 -0.1769
   29loPI   C5A  459   2.851   3.316   8.314  0.3394  0.2300  0.1860
   29loPI   C6A  460   2.832   3.410   7.915 -0.2480  0.2530 -0.2763
   29loPI   C1B  461   2.871   3.799   9.548 -0.0516  0.0240 -0.2301
   29loPI   C2B  462   2.915   3.798   9.102  0.2077 -0.1635 -0.1249
   29loPI   C3B  463   2.955   3.727   8.610  0.1877 -0.1679 -0.2636
   29loPI   C4B  464   3.079   3.781   8.290 -0.0321 -0.1526  0.4643
   30loPI    C1  465   4.855  13.030  11.143  0.0850  0.0081 -0.0197
   30loPI    C2  466   4.455  13.042  11.137  0.0873  0.0290 -0.1653
   30loPI    C3  467   4.657  13.249  11.413 -0.0034 -0.0155 -0.0648
   30loPI   PO4  468   4.947  13.056  10.879  0.0318  0.0047 -0.1666
   30loPI   GL1  469   5.056  13.214  10.445 -0.0402  0.1442 -0.2310
   30loPI   GL2  470   5.305  12.931  10.504 -0.0057  0.2003  0.2210
   30loPI   C1A  471   5.063  13.292   9.971  0.0758 -0.2828  0.2471
   30loPI   C2A  472   4.932  13.336   9.506 -0.2771  0.2300 -0.1767
   30loPI   C3A  473   4.925  13.376   9.064 -0.4207  0.1879  0.4019
   30loPI   C4A  474   4.836  13.285   8.613  0.0047  0.0047 -0.1191
   30loPI   C5A  475   4.806  13.100   8.365 -0.3771 -0.0009  0.1249
   30loPI   C6A  476   4.668  12.738   8.184 -0.1520 -0.0807 -0.0140
   30loPI   C1B  477   5.182  12.866  10.154 -0.1995 -0.0408  0.1712
   30loPI   C2B  478   5.041  12.882   9.688  0.1427 -0.2376  0.0319
   30loPI   C3B  479   4.977  12.862   9.281 -0.1292 -0.3900 -0.0625
   30loPI   C4B  480   4.960  12.787   8.777 -0.1367  0.2635  0.1298
   31loPI    C1  481   5.367   4.924  11.127 -0.1403  0.1618 -0.0375
   31loPI    C2  482   5.600   4.698  11.362 -0.1850  0.1783  0.0229
   31loPI    C3  483   5.524   5.078  11.461  0.1425  0.3168 -0.2379
   31loPI   PO4  484   5.453   4.894  10.909 -0.1521 -0.0306  0.0697
   31loPI   GL1  485   5.626   5.201  10.578  0.2496  0.1198 -0.0042
   31loPI   GL2  486   5.779   4.954  10.471  0.1376 -0.3127  0.3801
   31loPI   C1A  487   5.754   5.470  10.206  0.1748 -0.4467  0.0129
   31loPI   C2A  488   5.763   5.437   9.787  0.2451 -0.1215  0.0164
   31loPI   C3A  489   5.823   5.439   9.341 -0.1477 -0.1649 -0.0748
   31loPI   C4A  490   5.789   5.478   8.910 -0.0387  0.1103  0.1885
   31loPI   C5A  491   5.758   5.426   8.463 -0.0641  0.0325  0.2153
   31loPI   C6A  492   5.809   5.095   8.107 -0.3665  0.0495 -0.1799
   31loPI   C1B  493   5.860   5.027  10.061  0.0397 -0.0565  0.2148
   31loPI   C2B  494   5.815   4.965   9.599  0.0145 -0.1028 -0.0775
   31loPI   C3B  495   5.823   4.917   9.132  0.1334 -0.1857  0.2744
   31loPI   C4B  496   5.863   5.012   8.714 -0.1076  0.1130 -0.0925
   32loPI    C1  497   6.276  16.366  10.634 -0.1561  0.1589  0.1590
   32loPI    C2  498   6.509  16.457  10.947  0.0619 -0.0414  0.0582
   32loPI    C3  499   6.610  16.581  10.580 -0.1362  0.1013  0.0504
   32loPI   PO4  500   6.167  16.186  10.609  0.2040 -0.3579  0.1321
   32loPI   GL1  501   6.072  16.122  10.171 -0.1806 -0.2564 -0.2086
   32loPI   GL2  502   6.382  15.915  10.211  0.1291  0.0054 -0.2664
   32loPI   C1A  503   5.992  15.907   9.844  0.1566 -0.1134 -0.0700
   32loPI   C2A  504   5.992  15.945   9.396  0.1112  0.1039  0.1196
   32loPI   C3A  505   5.962  15.836   8.990 -0.0708  0.0190  0.4249
   32loPI   C4A  506   5.917  15.747   8.503 -0.1258  0.1016 -0.2223
   32loPI   C5A  507   5.889  15.563   7.983  0.0085 -0.0730 -0.0370
   32loPI   C6A  508   5.862  15.720   7.545 -0.1093  0.1396  0.0663
   32loPI   C1B  509   6.514  15.866   9.918 -0.0415  0.2036  0.2621
   32loPI   C2B  510   6.459  15.800   9.560  0.0048  0.0999  0.2002
   32loPI   C3B  511   6.456  15.790   9.133 -0.1183 -0.0471 -0.2496
   32loPI   C4B  512   6.399  15.632   8.755 -0.1505 -0.3251  0.2383
   33loPI    C1  513  16.352   0.741  10.717 -0.1543  0.0568  0.1153
   33loPI    C2  514  16.270   1.050  10.958 -0.1859 -0.0256  0.2111
   33loPI    C3  515  16.150   0.682  11.057 -0.0035 -0.0947  0.1798
   33loPI   PO4  516  16.269   0.832  10.459 -0.0982 -0.1764  0.0725
   33loPI   GL1  517  16.149   0.743  10.062  0.1748 -0.0650 -0.0526
   33loPI   GL2  518  15.849   0.792  10.116 -0.0280 -0.1392  0.0850
   33loPI   C1A  519  16.217   0.686   9.704  0.0649  0.0994 -0.0082
   33loPI   C2A  520  16.166   0.702   9.276  0.0334  0.1961  0.0632
   33loPI   C3A  521  16.241   0.727   8.820 -0.0593 -0.1185 -0.1030
   33loPI   C4A  522  16.169   0.691   8.361 -0.0202 -0.0547 -0.0475
   33loPI   C5A  523  16.073   0.609   7.901  0.2454 -0.0224 -0.2856
   33loPI   C6A  524  15.724   0.715   7.647 -0.0615  0.2411  0.0933
   33loPI   C1B  525  15.744   0.866   9.754  0.0696  0.0499 -0.1404
   33loPI   C2B  526  15.610   0.810   9.416  0.0856 -0.0440  0.1810
   33loPI   C3B  527  15.685   0.805   9.090  0.0987  0.1199  0.0759
   33loPI   C4B  528  15.722   0.839   8.612  0.0554  0.0123  0.0209
   34loPI    C1  529  16.451  14.814  11.327  0.1686 -0.1587 -0.2011
   34loPI    C2  530  16.829  14.868  11.444  0.0609  0.0931  0.0406
   34loPI    C3  531  16.592  14.617  11.645  0.0413  0.0891  0.0123
   34loPI   PO4  532  16.398  14.793  11.088 -0.0701 -0.1505 -0.0672
   34loPI   GL1  533  16.375  14.917  10.773  0.1330  0.2132 -0.2435
   34loPI   GL2  534  16.087  15.068  10.695 -0.1637 -0.0796 -0.0194
   34loPI   C1A  535  16.429  14.798  10.412 -0.1631 -0.0120  0.0874
   34loPI   C2A  536  16.373  14.842  10.021 -0.1532  0.1026  0.2328
   34loPI   C3A  537  16.396  14.785   9.600  0.3615 -0.1957  0.0755
   34loPI   C4A  538  16.445  14.813   9.125 -0.1091  0.3961  0.0877
   34loPI   C5A  539  16.272  14.619   8.757 -0.2832  0.0268 -0.0272
   34loPI   C6A  540  15.921  14.435   8.654 -0.2020  0.0617  0.1398
   34loPI   C1B  541  15.950  14.961  10.188 -0.1826 -0.2435 -0.2175
   34loPI   C2B  542  15.931  14.951   9.759  0.3211 -0.0553  0.1112
   34loPI   C3B  543  15.887  14.908   9.237  0.2459  0.2662  0.2531
   34loPI   C4B  544  15.833  14.853   8.823  0.0888 -0.2669 -0.1919
   35loPI    C1  545  11.086   9.149  10.708 -0.1852 -0.2030  0.1353
   35loPI    C2  546  11.278   9.054  11.046 -0.0425 -0.1358  0.0740
   35loPI    C3  547  10.960   9.295  11.058  0.2764  0.2945  0.1078
   35loPI   PO4  548  11.238   9.052  10.569  0.0299  0.0654  0.0588
   35loPI   GL1  549  11.108   8.741  10.266 -0.0858 -0.1475 -0.1406
   35loPI   GL2  550  11.443   8.909  10.123 -0.0295 -0.1141 -0.0118
   35loPI   C1A  551  11.083   8.683   9.822  0.0752 -0.2508  0.1168
   35loPI   C2A  552  11.046   8.690   9.415  0.0459  0.1388 -0.0687
   35loPI   C3A  553  11.083   8.731   9.043  0.3136 -0.0095  0.0169
   35loPI   C4A  554  11.030   8.649   8.679 -0.1264  0.1409 -0.1907
   35loPI   C5A  555  11.141   8.605   8.246 -0.2859 -0.2948 -0.0704
   35loPI   C6A  556  11.425   8.900   7.951 -0.2168 -0.0007  0.2940
   35loPI   C1B  557  11.508   9.002   9.706 -0.0739 -0.2634 -0.2866
   35loPI   C2B  558  11.471   9.031   9.258  0.1838  0.3716  0.0307
   35loPI   C3B  559  11.474   9.040   8.876  0.0400 -0.0555 -0.0668
   35loPI   C4B  560  11.411   9.057   8.432 -0.1570  0.2032  0.0599
   36loPI    C1  561  17.386   4.660  11.052 -0.1840  0.1799  0.0242
   36loPI    C2  562  17.717   4.882  11.087 -0.0672  0.0023  0.0594
   36loPI    C3  563  17.451   4.872  11.385 -0.0112 -0.0031  0.1094
   36loPI   PO4  564  17.387   4.683  10.704  0.2917 -0.0050  0.1726
   36loPI   GL1  565  17.586   4.639  10.242 -0.3534 -0.3421  0.1662
   36loPI   GL2  566  17.314   4.823  10.102  0.1026 -0.1596 -0.0356
   36loPI   C1A  567  17.896   4.849   9.916 -0.0038 -0.1956 -0.2516
   36loPI   C2A  568  17.979   5.070   9.561  0.1597  0.0191  0.0735
   36loPI   C3A  569  17.957   5.043   9.178 -0.3579  0.0337  0.3942
   36loPI   C4A  570  18.131   5.149   8.765 -0.0127  0.1870 -0.1406
   36loPI   C5A  571  18.196   5.161   8.397  0.2121  0.0979 -0.2349
   36loPI   C6A  572  18.442   5.127   7.982 -0.1874 -0.1483  0.1627
   36loPI   C1B  573  17.505   5.105   9.779  0.0743 -0.2022 -0.0830
   36loPI   C2B  574  17.513   5.263   9.365 -0.1098 -0.1206 -0.1375
   36loPI   C3B  575  17.544   5.400   8.945  0.3474 -0.0563 -0.1075
   36loPI   C4B  576  17.660   5.323   8.494 -0.0681 -0.0160  0.0075
   37loPI    C1  577  14.255   2.350  11.018  0.4438 -0.0017  0.0696
   37loPI    C2  578  14.127   2.340  11.396  0.0595 -0.0099 -0.0566
   37loPI    C3  579  14.371   2.633  11.276 -0.2228  0.2858  0.0741
   37loPI   PO4  580  14.005   2.264  10.873  0.0386  0.1424 -0.1132
   37loPI   GL1  581  13.736   2.182  10.378  0.1479  0.1476  0.1189
   37loPI   GL2  582  14.024   2.130  10.396  0.0016  0.0919  0.0451
   37loPI   C1A  583  13.575   2.040  10.009 -0.0492 -0.1817  0.0851
   37loPI   C2A  584  13.537   2.030   9.580  0.0341  0.1509  0.1195
   37loPI   C3A  585  13.654   2.063   9.062  0.1121  0.3357  0.1984
   37loPI   C4A  586  13.637   2.094   8.605  0.3640 -0.0139 -0.0785
   37loPI   C5A  587  13.597   2.194   8.117 -0.1961 -0.1428  0.0345
   37loPI   C6A  588  13.885   2.434   7.964  0.0702 -0.1367 -0.0726
   37loPI   C1B  589  14.049   1.788  10.044  0.0182  0.1508 -0.1021
   37loPI   C2B  590  14.005   1.874   9.596  0.0485  0.2943  0.3147
   37loPI   C3B  591  14.067   1.912   9.170 -0.4145 -0.2104 -0.1630
   37loPI   C4B  592  14.071   1.899   8.726 -0.1391 -0.1937 -0.0052
   38loPI    C1  593   8.510   0.452  10.699 -0.0563  0.0660 -0.2117
   38loPI    C2  594   8.642   0.776  10.893  0.2822 -0.1542 -0.0638
   38loPI    C3  595   8.333   0.568  11.039 -0.0161  0.1643 -0.2240
   38loPI   PO4  596   8.524   0.490  10.418  0.2121 -0.0672 -0.0576
   38loPI   GL1  597   8.330   0.619  10.095  0.3733  0.1402 -0.2930
   38loPI   GL2  598   8.238   0.301  10.006 -0.5618  0.4295  0.0503
   38loPI   C1A  599   8.474   0.615   9.722 -0.0413  0.1407 -0.3454
   38loPI   C2A  600   8.449   0.638   9.362 -0.2661  0.1269 -0.1700
   38loPI   C3A  601   8.334   0.567   8.931 -0.2209  0.1908  0.0762
   38loPI   C4A  602   8.294   0.559   8.517  0.0269 -0.0068  0.1422
   38loPI   C5A  603   8.355   0.490   8.064 -0.4081  0.0445 -0.0003
   38loPI   C6A  604   8.370   0.106   7.837  0.2235  0.2063  0.1187
   38loPI   C1B  605   8.307   0.137   9.592  0.0916  0.0560  0.3595
   38loPI   C2B  606   8.314   0.135   9.209 -0.0428  0.2377 -0.1083
   38loPI   C3B  607   8.449   0.055   8.834  0.1323 -0.1536  0.2121
   38loPI   C4B  608   8.516   0.068   8.395  0.0907  0.1739 -0.2378
   39loPI    C1  609  11.688  14.615  11.300 -0.0342 -0.1321 -0.0678
   39loPI    C2  610  11.851  14.632  11.665 -0.2316 -0.0123  0.0161
   39loPI    C3  611  11.465  14.724  11.613 -0.2272 -0.1137 -0.2097
   39loPI   PO4  612  11.891  14.395  11.217 -0.0649  0.1502  0.1683
   39loPI   GL1  613  11.851  14.242  10.806 -0.1699 -0.0400 -0.3437
   39loPI   GL2  614  12.114  14.221  10.587 -0.3163  0.0283  0.1421
   39loPI   C1A  615  11.545  14.232  10.388  0.2317  0.0222 -0.1332
   39loPI   C2A  616  11.652  14.156   9.937  0.0751 -0.0207  0.1971
   39loPI   C3A  617  11.616  14.214   9.567  0.0398 -0.0436 -0.0123
   39loPI   C4A  618  11.630  14.212   9.083 -0.2568  0.1359  0.1744
   39loPI   C5A  619  11.598  14.152   8.691 -0.0373  0.2212 -0.1745
   39loPI   C6A  620  11.782  13.927   8.400 -0.1696 -0.0103 -0.1329
   39loPI   C1B  621  12.203  14.043  10.210  0.1916 -0.3679  0.0412
   39loPI   C2B  622  12.112  14.003   9.762  0.1788 -0.0220  0.2570
   39loPI   C3B  623  12.091  14.000   9.305 -0.2659  0.1018 -0.0613
   39loPI   C4B  624  12.074  13.991   8.901  0.0885  0.0527  0.0719
   40loPI    C1  625  16.411   9.309  11.120 -0.0976  0.2691 -0.4065
   40loPI    C2  626  16.416   9.563  11.429 -0.2198 -0.2790  0.0613
   40loPI    C3  627  16.757   9.400  11.298 -0.1819 -0.1373 -0.0178
   40loPI   PO4  628  16.232   9.462  10.904 -0.0522  0.1443  0.0099
   40loPI   GL1  629  16.264   9.485  10.500 -0.0068  0.0304 -0.0386
   40loPI   GL2  630  16.075   9.653  10.346 -0.0693 -0.2490 -0.0199
   40loPI   C1A  631  16.523   9.425  10.159  0.0863 -0.2289 -0.0044
   40loPI   C2A  632  16.384   9.438   9.732 -0.1256 -0.2339  0.1167
   40loPI   C3A  633  16.370   9.519   9.249 -0.1510  0.4172  0.1885
   40loPI   C4A  634  16.320   9.535   8.831 -0.1921  0.2585 -0.2319
   40loPI   C5A  635  16.222   9.507   8.372 -0.0647 -0.1349 -0.1024
   40loPI   C6A  636  15.832   9.576   8.140  0.0391  0.1022 -0.0120
   40loPI   C1B  637  15.903   9.678   9.941  0.1634  0.1977  0.0452
   40loPI   C2B  638  15.894   9.655   9.503 -0.1772 -0.1980 -0.2564
   40loPI   C3B  639  15.853   9.721   9.114  0.3944 -0.1987  0.0425
   40loPI   C4B  640  15.783   9.689   8.672  0.0222  0.0389  0.1423
   41loPI    C1  641   2.996  16.478  10.503  0.2166  0.0573 -0.2009
   41loPI    C2  642   2.687  16.640  10.699  0.1693  0.0720 -0.2871
   41loPI    C3  643   3.061  16.714  10.819  0.1345 -0.0898 -0.0727
   41loPI   PO4  644   2.906  16.312  10.351  0.1282  0.0013  0.0692
   41loPI   GL1  645   2.915  16.071  10.113  0.0742  0.2455  0.2574
   41loPI   GL2  646   2.608  16.008  10.071 -0.2761  0.0575  0.2341
   41loPI   C1A  647   3.210  15.900   9.873  0.3008  0.0535 -0.2279
   41loPI   C2A  648   3.201  15.842   9.500 -0.3964  0.3213  0.2736
   41loPI   C3A  649   3.153  15.883   9.025  0.1223 -0.0039  0.1104
   41loPI   C4A  650   3.081  15.838   8.589 -0.1452  0.3575 -0.1325
   41loPI   C5A  651   3.429  15.967   8.258  0.3601 -0.3286 -0.1258
   41loPI   C6A  652   3.595  16.025   7.832 -0.2049 -0.1471 -0.1387
   41loPI   C1B  653   2.714  16.000   9.652  0.1965  0.1007 -0.1797
   41loPI   C2B  654   2.666  16.052   9.248 -0.0521  0.0948 -0.0544
   41loPI   C3B  655   2.690  15.984   8.845 -0.0954 -0.1654  0.1163
   41loPI   C4B  656   2.570  15.895   8.434  0.0090 -0.1780 -0.0087
   42loPI    C1  657  10.668   1.230  10.703 -0.0620 -0.1608 -0.1948
   42loPI    C2  658  10.877   1.250  11.044 -0.0781  0.0825 -0.1977
   42loPI    C3  659  10.855   0.905  10.843 -0.0964 -0.0713  0.0643
   42loPI   PO4  660  10.772   1.392  10.584  0.2191 -0.2930  0.1799
   42loPI   GL1  661  11.051   1.306  10.224  0.0687  0.0391 -0.1340
   42loPI   GL2  662  10.998   1.588  10.083 -0.2932  0.0115 -0.1066
   42loPI   C1A  663  11.079   1.092   9.821 -0.1053 -0.2684 -0.3271
   42loPI   C2A  664  11.156   1.033   9.426 -0.2027  0.2832  0.3102
   42loPI   C3A  665  11.067   1.066   9.019  0.0395  0.2544  0.0711
   42loPI   C4A  666  10.929   1.189   8.632 -0.1427  0.1214  0.0664
   42loPI   C5A  667  10.738   1.200   8.210 -0.1204 -0.1028  0.2086
   42loPI   C6A  668  10.406   1.411   8.011  0.0977  0.1778 -0.2757
   42loPI   C1B  669  11.015   1.628   9.788  0.1123  0.2026  0.1641
   42loPI   C2B  670  11.024   1.596   9.397 -0.1609  0.2603  0.2053
   42loPI   C3B  671  10.914   1.651   8.923 -0.3941 -0.0878  0.2504
   42loPI   C4B  672  10.853   1.651   8.412 -0.1083  0.0095 -0.1862
   43loPI    C1  673  12.166   2.349  11.444  0.0051  0.0641 -0.0911
   43loPI    C2  674  11.963   2.663  11.587  0.0587  0.0049  0.1169
   43loPI    C3  675  12.279   2.520  11.787  0.1946 -0.0181 -0.1116
   43loPI   PO4  676  12.127   2.351  11.170 -0.0383 -0.2185  0.2060
   43loPI   GL1  677  11.981   2.357  10.742  0.0997 -0.0005  0.1473
   43loPI   GL2  678  11.753   2.466  10.533 -0.1868  0.0076 -0.2770
   43loPI   C1A  679  12.137   2.056  10.395  0.0756 -0.0721  0.1423
   43loPI   C2A  680  12.229   2.044   9.925 -0.0170  0.2162 -0.2717
   43loPI   C3A  681  12.226   2.025   9.443  0.1845 -0.3784 -0.2092
   43loPI   C4A  682  12.278   1.996   9.082 -0.0322 -0.0611  0.1208
   43loPI   C5A  683  12.209   2.022   8.632  0.0298  0.1283 -0.1846
   43loPI   C6A  684  12.226   1.725   8.328 -0.0296 -0.0362 -0.1378
   43loPI   C1B  685  11.751   2.275  10.154 -0.1387 -0.0102  0.1151
   43loPI   C2B  686  11.754   2.217   9.711  0.1098 -0.0920 -0.1472
   43loPI   C3B  687  11.780   2.173   9.322 -0.0053  0.1743 -0.3052
   43loPI   C4B  688  11.811   2.194   8.883  0.1227  0.0980  0.0615
   44loPI    C1  689   6.162   1.682  10.743  0.1434  0.1470 -0.0433
   44loPI    C2  690   5.821   1.868  10.838  0.1197  0.1605 -0.1528
   44loPI    C3  691   6.138   1.895  11.080 -0.0501 -0.1068  0.1071
   44loPI   PO4  692   6.051   1.631  10.404 -0.2329 -0.3552  0.0079
   44loPI   GL1  693   5.896   1.656   9.994 -0.1671 -0.1808  0.1340
   44loPI   GL2  694   6.104   1.372   9.936  0.1455 -0.0328 -0.0726
   44loPI   C1A  695   6.275   1.847   9.718 -0.0539 -0.2147  0.0007
   44loPI   C2A  696   6.315   1.865   9.336  0.1956 -0.4552  0.2790
   44loPI   C3A  697   6.369   1.890   8.910 -0.2858  0.1840  0.1734
   44loPI   C4A  698   6.284   1.858   8.430 -0.1377 -0.1761  0.2190
   44loPI   C5A  699   6.329   1.888   7.995 -0.0641  0.0114  0.0023
   44loPI   C6A  700   6.321   2.179   7.693 -0.1794  0.0475  0.1054
   44loPI   C1B  701   6.001   1.432   9.465  0.0009 -0.0843  0.0681
   44loPI   C2B  702   5.973   1.572   9.016  0.2052 -0.0028 -0.1148
   44loPI   C3B  703   5.950   1.414   8.614  0.1091 -0.0497 -0.2433
   44loPI   C4B  704   5.859   1.591   8.221 -0.1701 -0.0241 -0.2779
   45loPI    C1  705   2.959  10.290  11.104  0.0562 -0.0235 -0.0571
   45loPI    C2  706   2.906   9.922  11.252 -0.0717  0.0563  0.0983
   45loPI    C3  707   2.941  10.234  11.499 -0.2245  0.1831 -0.0377
   45loPI   PO4  708   3.103  10.215  10.870  0.3938 -0.0879  0.1090
   45loPI   GL1  709   3.041  10.152  10.466 -0.1082 -0.1835  0.1055
   45loPI   GL2  710   2.797  10.275  10.267 -0.0104  0.2108  0.0999
   45loPI   C1A  711   3.257  10.187  10.084  0.2814  0.4198 -0.2279
   45loPI   C2A  712   3.328  10.175   9.607  0.0593 -0.1289  0.0737
   45loPI   C3A  713   3.262  10.159   9.155 -0.1114  0.1386 -0.0931
   45loPI   C4A  714   3.275  10.182   8.753  0.0271  0.1583 -0.1755
   45loPI   C5A  715   3.217  10.198   8.338 -0.0666  0.0569  0.0436
   45loPI   C6A  716   3.237   9.948   7.948  0.2633 -0.0565  0.1054
   45loPI   C1B  717   2.820  10.279   9.823  0.1141 -0.1472  0.0451
   45loPI   C2B  718   2.836  10.320   9.321 -0.2278 -0.0695 -0.1284
   45loPI   C3B  719   2.791  10.294   8.976 -0.0368 -0.0233 -0.2279
   45loPI   C4B  720   2.756  10.331   8.595  0.0773  0.0555  0.1383
   46loPI    C1  721   9.005  11.847  11.077  0.0699 -0.1085 -0.0692
   46loPI    C2  722   8.954  11.706  11.448 -0.4084  0.0892 -0.0521
   46loPI    C3  723   9.080  12.082  11.392  0.0568 -0.0674 -0.0966
   46loPI   PO4  724   8.923  11.714  10.947  0.3378 -0.0777  0.1786
   46loPI   GL1  725   8.603  11.712  10.657 -0.4574  0.2669 -0.0976
   46loPI   GL2  726   8.793  12.080  10.634 -0.0125 -0.0136  0.1888
   46loPI   C1A  727   8.423  11.601  10.362 -0.0403 -0.1324  0.1742
   46loPI   C2A  728   8.416  11.645   9.851 -0.0793  0.1693  0.0347
   46loPI   C3A  729   8.378  11.549   9.440  0.0320  0.2393  0.0548
   46loPI   C4A  730   8.447  11.516   9.010  0.5330 -0.0307 -0.1350
   46loPI   C5A  731   8.468  11.668   8.633 -0.3215  0.3891  0.1035
   46loPI   C6A  732   8.408  11.819   8.325 -0.0350 -0.0269  0.1055
   46loPI   C1B  733   8.791  11.985  10.150  0.1610  0.0651 -0.0836
   46loPI   C2B  734   8.807  11.879   9.645 -0.0132 -0.4378 -0.1005
   46loPI   C3B  735   8.798  11.871   9.179  0.0831 -0.0752  0.0155
   46loPI   C4B  736   8.827  12.025   8.723 -0.1569 -0.2034 -0.1195
   47loPI    C1  737  12.441   8.854  11.178 -0.1395 -0.0405 -0.1181
   47loPI    C2  738  12.771   8.771  11.389 -0.1109 -0.0661 -0.1727
   47loPI    C3  739  12.429   8.580  11.469 -0.1358  0.0271 -0.0539
   47loPI   PO4  740  12.520   8.879  10.919  0.2397  0.1855  0.2155
   47loPI   GL1  741  12.527   8.963  10.410  0.1356  0.0251  0.1342
   47loPI   GL2  742  12.657   9.236  10.432 -0.1874 -0.0406 -0.0572
   47loPI   C1A  743  12.428   9.135  10.016  0.1511 -0.0291 -0.1564
   47loPI   C2A  744  12.401   9.153   9.573 -0.0270  0.0042 -0.5223
   47loPI   C3A  745  12.296   9.089   9.180  0.1473 -0.4026  0.0808
   47loPI   C4A  746  12.290   9.194   8.716  0.2266  0.2064  0.1671
   47loPI   C5A  747  12.515   9.210   8.353  0.0785  0.0367  0.2522
   47loPI   C6A  748  12.899   8.972   8.297 -0.1349  0.2522  0.1144
   47loPI   C1B  749  12.849   9.432  10.007 -0.1001  0.0902 -0.0487
   47loPI   C2B  750  12.786   9.490   9.521  0.1452  0.1751 -0.0376
   47loPI   C3B  751  12.780   9.392   9.106  0.0789 -0.0795 -0.4033
   47loPI   C4B  752  12.787   9.420   8.679  0.0621  0.0132 -0.0572
   48loPI    C1  753   0.818   4.886  10.883  0.1343 -0.1774 -0.0682
   48loPI    C2  754   0.504   5.052  10.699  0.1891 -0.0815 -0.0757
   48loPI    C3  755   0.534   5.069  11.098  0.0300 -0.3586 -0.0492
   48loPI   PO4  756   1.075   4.839  10.634 -0.0570 -0.2677 -0.1368
   48loPI   GL1  757   1.208   4.680  10.281 -0.1228 -0.0299  0.0270
   48loPI   GL2  758   1.293   4.344  10.171  0.3788  0.2120  0.3126
   48loPI   C1A  759   1.374   4.932   9.849  0.2025  0.0768  0.0505
   48loPI   C2A  760   1.325   4.974   9.472 -0.2363  0.0637  0.0101
   48loPI   C3A  761   1.328   5.015   8.999  0.0793  0.0109  0.2616
   48loPI   C4A  762   1.388   4.853   8.442  0.0552 -0.2129  0.0479
   48loPI   C5A  763   1.046   4.904   8.150  0.0809 -0.0626  0.0526
   48loPI   C6A  764   1.135   4.690   7.748  0.0848  0.3496 -0.1504
   48loPI   C1B  765   1.356   4.378   9.764 -0.0028  0.0052  0.1488
   48loPI   C2B  766   1.440   4.405   9.300 -0.1317  0.1094  0.1110
   48loPI   C3B  767   1.460   4.346   8.896  0.0120 -0.1053  0.2901
   48loPI   C4B  768   1.543   4.291   8.519  0.1226  0.0327 -0.0744
   49loPI    C1  769  13.448   8.901  10.891  0.1738  0.0020  0.0712
   49loPI    C2  770  13.285   9.014  11.238  0.0734  0.2506 -0.0543
   49loPI    C3  771  13.051   8.939  10.922  0.1609 -0.0202 -0.0574
   49loPI   PO4  772  13.596   8.806  10.806  0.0764  0.3818 -0.0095
   49loPI   GL1  773  13.657   8.662  10.408  0.2566 -0.0084  0.2087
   49loPI   GL2  774  13.687   8.914  10.333  0.2857 -0.0748 -0.0044
   49loPI   C1A  775  13.411   8.689  10.029  0.3926 -0.0662  0.2071
   49loPI   C2A  776  13.324   8.743   9.528 -0.3528  0.1865 -0.0499
   49loPI   C3A  777  13.401   8.771   9.087  0.2077  0.4429  0.1000
   49loPI   C4A  778  13.368   8.741   8.677  0.1566 -0.0363 -0.0070
   49loPI   C5A  779  13.404   8.723   8.256 -0.1766 -0.0750  0.2308
   49loPI   C6A  780  13.253   8.979   7.963  0.0304  0.0614 -0.1280
   49loPI   C1B  781  13.774   9.006   9.933 -0.1309 -0.1035  0.2395
   49loPI   C2B  782  13.799   9.050   9.547 -0.1539 -0.0701  0.0550
   49loPI   C3B  783  13.779   9.079   9.109  0.3326 -0.0592  0.0050
   49loPI   C4B  784  13.757   9.085   8.683 -0.2052 -0.0713 -0.2498
   50loPI    C1  785   1.293  15.155  11.001  0.1636  0.0184  0.0249
   50loPI    C2  786   0.952  15.364  10.985  0.1485 -0.0135 -0.0849
   50loPI    C3  787   1.200  15.408  11.297 -0.0033 -0.0642  0.0444
   50loPI   PO4  788   1.334  15.217  10.689 -0.0498  0.1343 -0.0688
   50loPI   GL1  789   1.159  15.383  10.344  0.0838 -0.0360  0.1567
   50loPI   GL2  790   1.384  15.576  10.197  0.2291  0.0794 -0.2003
   50loPI   C1A  791   1.036  15.287   9.930  0.4605 -0.3906  0.1262
   50loPI   C2A  792   0.933  15.315   9.433  0.0036 -0.0145 -0.0298
   50loPI   C3A  793   0.993  15.124   8.986  0.1116 -0.0606 -0.1243
   50loPI   C4A  794   0.964  15.237   8.515 -0.0234  0.0613 -0.1526
   50loPI   C5A  795   0.867  15.359   8.064 -0.0245 -0.3742 -0.2295
   50loPI   C6A  796   0.700  15.571   7.778 -0.0526  0.0739  0.2883
   50loPI   C1B  797   1.406  15.623   9.737 -0.0929 -0.2220 -0.0678
   50loPI   C2B  798   1.369  15.704   9.349  0.1669  0.2971 -0.1447
   50loPI   C3B  799   1.355  15.531   8.942 -0.0118 -0.1664  0.0180
   50loPI   C4B  800   1.420  15.405   8.487  0.2597 -0.3091 -0.1420
   51loPI    C1  801   3.203  11.809  10.931 -0.2163 -0.1358  0.2147
   51loPI    C2  802   3.322  11.529  11.191  0.1012 -0.1359  0.0745
   51loPI    C3  803   3.416  11.913  11.253 -0.2308 -0.0720  0.2039
   51loPI   PO4  804   2.992  11.758  10.888 -0.1226 -0.3643 -0.0277
   51loPI   GL1  805   2.762  11.747  10.543  0.1645 -0.0991 -0.2221
   51loPI   GL2  806   2.986  11.667  10.385  0.0111 -0.2684 -0.1118
   51loPI   C1A  807   2.552  11.883  10.218  0.0735  0.0293 -0.0377
   51loPI   C2A  808   2.575  11.845   9.750 -0.0276 -0.1572  0.0451
   51loPI   C3A  809   2.517  11.818   9.445  0.2763 -0.3188 -0.0854
   51loPI   C4A  810   2.552  11.856   8.995  0.1829 -0.1464 -0.0515
   51loPI   C5A  811   2.511  11.831   8.505  0.0728 -0.1889  0.1510
   51loPI   C6A  812   2.356  12.167   8.223  0.4010 -0.0402 -0.1107
   51loPI   C1B  813   3.041  11.730   9.925 -0.0026  0.1018 -0.0747
   51loPI   C2B  814   2.980  11.664   9.451 -0.0623 -0.4026  0.3903
   51loPI   C3B  815   2.993  11.668   9.059 -0.0275 -0.1429 -0.0414
   51loPI   C4B  816   2.982  11.776   8.592  0.0012  0.0254  0.1298
   52loPI    C1  817  11.961  16.639  11.287 -0.3303 -0.3294  0.2125
   52loPI    C2  818  11.798  16.726  10.932 -0.0189  0.0559  0.1577
   52loPI    C3  819  11.707  16.382  11.115 -0.3870 -0.0270 -0.1687
   52loPI   PO4  820  12.233  16.641  11.290  0.0914  0.2072  0.0513
   52loPI   GL1  821  12.270  16.614  10.837  0.1627  0.1845 -0.2038
   52loPI   GL2  822  12.100  16.369  10.759 -0.0447 -0.2037  0.2672
   52loPI   C1A  823  12.447  16.718  10.464 -0.2100  0.0798 -0.6839
   52loPI   C2A  824  12.465  16.631  10.097 -0.3413 -0.1607 -0.4072
   52loPI   C3A  825  12.513  16.613   9.674  0.2110  0.2028 -0.0755
   52loPI   C4A  826  12.493  16.645   9.292  0.3903 -0.1513 -0.2039
   52loPI   C5A  827  12.511  16.694   8.860 -0.1331 -0.0252 -0.1806
   52loPI   C6A  828  12.731  16.628   8.415  0.0702 -0.2502 -0.0849
   52loPI   C1B  829  12.068  16.376  10.319 -0.0238 -0.0426 -0.0598
   52loPI   C2B  830  12.153  16.246   9.881 -0.0565 -0.2189  0.1282
   52loPI   C3B  831  12.064  16.254   9.461  0.1410 -0.2364  0.0032
   52loPI   C4B  832  12.098  16.273   8.958 -0.1618  0.2839  0.0262
   53loPI    C1  833  11.874   4.828  11.151  0.1499 -0.3253 -0.1193
   53loPI    C2  834  11.731   4.592  11.441 -0.1234 -0.0500 -0.0242
   53loPI    C3  835  11.868   4.957  11.530 -0.1884  0.0281 -0.2387
   53loPI   PO4  836  11.852   4.593  10.897 -0.2144 -0.1810 -0.2081
   53loPI   GL1  837  11.750   4.651  10.448  0.0491 -0.1319  0.0652
   53loPI   GL2  838  11.369   4.596  10.618  0.3237  0.0092 -0.0916
   53loPI   C1A  839  11.817   4.522  10.018 -0.2112  0.0391  0.0550
   53loPI   C2A  840  11.822   4.545   9.470 -0.0774 -0.2331 -0.0498
   53loPI   C3A  841  11.780   4.631   9.064  0.0898 -0.0209  0.0684
   53loPI   C4A  842  11.770   4.556   8.678 -0.1327 -0.1034  0.4579
   53loPI   C5A  843  11.586   4.567   8.286 -0.3968 -0.1549  0.1756
   53loPI   C6A  844  11.600   4.490   7.791 -0.0026  0.2989 -0.0675
   53loPI   C1B  845  11.307   4.648  10.090 -0.3425 -0.0332  0.1662
   53loPI   C2B  846  11.295   4.650   9.730 -0.1409  0.1813 -0.1497
   53loPI   C3B  847  11.360   4.770   9.319  0.0050  0.0402  0.0445
   53loPI   C4B  848  11.288   4.776   8.918 -0.2531  0.1783  0.1223
   54loPI    C1  849   7.527   2.257  10.661 -0.1476 -0.1246 -0.2155
   54loPI    C2  850   7.798   2.120  10.401 -0.0338 -0.3890  0.0367
   54loPI    C3  851   7.831   2.031  10.789 -0.0886  0.1659  0.1768
   54loPI   PO4  852   7.530   2.553  10.578  0.0708  0.1764  0.2312
   54loPI   GL1  853   7.416   2.699  10.196 -0.1621 -0.2745 -0.0729
   54loPI   GL2  854   7.068   2.697  10.221  0.0601  0.0104  0.0388
   54loPI   C1A  855   7.499   2.849   9.790 -0.1282 -0.1182  0.0269
   54loPI   C2A  856   7.505   2.924   9.395  0.0052 -0.1494 -0.0933
   54loPI   C3A  857   7.508   2.935   8.978 -0.1089 -0.0617 -0.1891
   54loPI   C4A  858   7.519   2.813   8.568  0.1671  0.0726 -0.0113
   54loPI   C5A  859   7.426   2.910   8.186 -0.1202  0.4394 -0.2237
   54loPI   C6A  860   7.090   3.104   8.078  0.0342  0.1148 -0.0089
   54loPI   C1B  861   6.981   2.957   9.835  0.0590  0.0554 -0.0032
   54loPI   C2B  862   7.039   3.054   9.372  0.2582 -0.3095 -0.1462
   54loPI   C3B  863   7.033   3.057   8.915 -0.1352 -0.0779 -0.0940
   54loPI   C4B  864   7.054   2.955   8.519  0.0283  0.0103 -0.0308
   55loPI    C1  865  17.007  12.817  11.048  0.0478 -0.2402  0.0770
   55loPI    C2  866  17.119  12.531  11.303 -0.1997 -0.2500  0.1776
   55loPI    C3  867  16.937  12.860  11.439  0.0086 -0.0809  0.0533
   55loPI   PO4  868  17.116  12.742  10.838 -0.0361 -0.0127 -0.4888
   55loPI   GL1  869  17.110  12.586  10.467 -0.3243  0.5576  0.3374
   55loPI   GL2  870  16.875  12.775  10.298  0.1604  0.0135  0.0116
   55loPI   C1A  871  17.251  12.501  10.074 -0.2497 -0.0861  0.2531
   55loPI   C2A  872  17.273  12.596   9.627  0.0985  0.0064  0.0033
   55loPI   C3A  873  17.168  12.546   9.185 -0.0312 -0.0851  0.3255
   55loPI   C4A  874  17.253  12.551   8.766 -0.2668 -0.2256  0.1113
   55loPI   C5A  875  17.146  12.326   8.368  0.0992 -0.0009 -0.0267
   55loPI   C6A  876  16.998  12.120   7.982  0.0998 -0.2186 -0.0491
   55loPI   C1B  877  16.689  12.793   9.947  0.1029 -0.3578  0.0458
   55loPI   C2B  878  16.753  12.736   9.512 -0.4191 -0.0482 -0.0979
   55loPI   C3B  879  16.723  12.763   9.067  0.2026  0.1276  0.0154
   55loPI   C4B  880  16.725  12.547   8.706 -0.3120 -0.3447 -0.0812
   56loPI    C1  881   2.414   1.770  10.449 -0.1342 -0.0424  0.0282
   56loPI    C2  882   2.022   1.850  10.453 -0.1162  0.0491 -0.0100
   56loPI    C3  883   2.185   1.629  10.744 -0.1524  0.2204  0.1421
   56loPI   PO4  884   2.498   1.648  10.232  0.1990  0.0826 -0.1589
   56loPI   GL1  885   2.274   1.703   9.973  0.0361 -0.1308  0.1054
   56loPI   GL2  886   2.224   1.961   9.992 -0.1029  0.3989  0.2201
   56loPI   C1A  887   2.304   1.613   9.559  0.1521 -0.0290  0.2018
   56loPI   C2A  888   2.214   1.649   9.094  0.1486  0.0154 -0.0791
   56loPI   C3A  889   2.290   1.598   8.705 -0.0902 -0.0842 -0.0728
   56loPI   C4A  890   2.356   1.595   8.326 -0.2126  0.2508 -0.0250
   56loPI   C5A  891   2.132   1.746   7.960 -0.0649  0.1415  0.2148
   56loPI   C6A  892   2.067   1.890   7.568  0.0435  0.0476 -0.0137
   56loPI   C1B  893   2.315   2.173   9.611  0.2141  0.2341  0.0725
   56loPI   C2B  894   2.203   2.092   9.252  0.0501 -0.0148  0.0612
   56loPI   C3B  895   2.200   2.113   8.840 -0.0788  0.0531 -0.0968
   56loPI   C4B  896   2.147   2.025   8.449  0.1849  0.1028  0.2169
   57loPI    C1  897   0.535   8.726  10.972 -0.2966  0.0664  0.1057
   57loPI    C2  898   0.493   8.329  10.998  0.0911  0.0212  0.1003
   57loPI    C3  899   0.683   8.530  11.287  0.1156  0.1695 -0.0169
   57loPI   PO4  900   0.632   8.668  10.641 -0.1052  0.1540 -0.0569
   57loPI   GL1  901   0.969   8.739  10.327  0.0552 -0.2228  0.0165
   57loPI   GL2  902   1.197   8.558  10.390  0.1703 -0.0526 -0.0578
   57loPI   C1A  903   0.904   8.598   9.941 -0.0834 -0.3024  0.1731
   57loPI   C2A  904   0.920   8.622   9.466  0.1435 -0.0126 -0.0822
   57loPI   C3A  905   0.913   8.573   9.003 -0.1422 -0.0510 -0.2093
   57loPI   C4A  906   0.927   8.530   8.544 -0.3231 -0.0645 -0.0318
   57loPI   C5A  907   1.105   8.643   8.146 -0.1455  0.1027 -0.1774
   57loPI   C6A  908   1.138   9.008   7.874 -0.0582 -0.2350  0.2832
   57loPI   C1B  909   1.411   8.443  10.164  0.0307 -0.0666  0.1322
   57loPI   C2B  910   1.356   8.471   9.738  0.1807  0.1038 -0.1922
   57loPI   C3B  911   1.371   8.440   9.285  0.2594 -0.0088 -0.1134
   57loPI   C4B  912   1.334   8.371   8.777  0.0797 -0.0354  0.1291
   58loPI    C1  913   9.866  10.176  10.760  0.2502 -0.2196 -0.2701
   58loPI    C2  914  10.102  10.498  10.780 -0.1645  0.0711  0.1700
   58loPI    C3  915  10.169  10.186  11.021 -0.1264  0.0808  0.1719
   58loPI   PO4  916   9.834  10.166  10.522  0.1191  0.0576 -0.2067
   58loPI   GL1  917   9.487  10.065  10.316 -0.3895  0.3458 -0.1693
   58loPI   GL2  918   9.192   9.884  10.444 -0.1065 -0.1108 -0.3418
   58loPI   C1A  919   9.518  10.234   9.915 -0.0402  0.1981  0.0939
   58loPI   C2A  920   9.534  10.234   9.454  0.3183 -0.0192  0.2371
   58loPI   C3A  921   9.461  10.179   9.003 -0.0669  0.2438  0.0774
   58loPI   C4A  922   9.491  10.265   8.594  0.1113  0.1243  0.2784
   58loPI   C5A  923   9.735  10.560   8.336 -0.0522  0.0434 -0.1614
   58loPI   C6A  924   9.834  10.769   7.957  0.1345 -0.1774  0.0376
   58loPI   C1B  925   9.127   9.927  10.027 -0.1331 -0.1856  0.4312
   58loPI   C2B  926   9.140   9.923   9.600 -0.0804  0.0282  0.2461
   58loPI   C3B  927   9.112   9.841   9.104 -0.1067 -0.2286 -0.1665
   58loPI   C4B  928   9.107   9.953   8.713  0.0084 -0.0330  0.2437
   59loPI    C1  929  15.155  10.593  11.129 -0.0545 -0.0022 -0.0033
   59loPI    C2  930  14.806  10.639  11.319 -0.0349  0.2103 -0.0169
   59loPI    C3  931  15.147  10.619  11.528 -0.0456  0.1027 -0.0096
   59loPI   PO4  932  15.172  10.720  10.927 -0.0408 -0.0229 -0.0968
   59loPI   GL1  933  14.952  10.814  10.577 -0.0067 -0.1423  0.1481
   59loPI   GL2  934  15.317  10.865  10.408 -0.1644 -0.1646  0.2700
   59loPI   C1A  935  14.844  10.574  10.111  0.1332  0.0496 -0.3591
   59loPI   C2A  936  14.829  10.527   9.668 -0.0328 -0.2298  0.0033
   59loPI   C3A  937  14.750  10.570   9.145  0.0213 -0.0182  0.1888
   59loPI   C4A  938  14.808  10.513   8.747 -0.0077  0.1738  0.0187
   59loPI   C5A  939  15.018  10.524   8.287  0.2610 -0.1414 -0.1921
   59loPI   C6A  940  14.928  10.333   7.982 -0.2112 -0.0429  0.1451
   59loPI   C1B  941  15.223  10.874   9.957 -0.1133 -0.0581 -0.0750
   59loPI   C2B  942  15.304  10.910   9.449  0.1758  0.2788 -0.1940
   59loPI   C3B  943  15.315  10.889   9.041  0.0770 -0.0968  0.0480
   59loPI   C4B  944  15.170  10.873   8.699  0.0081  0.0528  0.2026
   60loPI    C1  945  17.146  13.734  11.051  0.2402  0.1143  0.0177
   60loPI    C2  946  17.063  14.049  11.283  0.2897  0.0567  0.1142
   60loPI    C3  947  17.048  13.679  11.435 -0.0215 -0.0069 -0.0645
   60loPI   PO4  948  17.277  13.743  10.829  0.1707 -0.1383 -0.2144
   60loPI   GL1  949  17.443  14.008  10.484 -0.0918  0.0152 -0.0582
   60loPI   GL2  950  17.700  14.074  10.607  0.0357  0.1255 -0.0199
   60loPI   C1A  951  17.448  13.895  10.100  0.0175 -0.0700  0.1271
   60loPI   C2A  952  17.462  13.996   9.645  0.2410  0.3940 -0.3075
   60loPI   C3A  953  17.493  13.878   9.164 -0.1712 -0.0109  0.1777
   60loPI   C4A  954  17.368  13.888   8.746 -0.1314 -0.2306  0.4815
   60loPI   C5A  955  17.606  14.136   8.510 -0.0744 -0.1744  0.3469
   60loPI   C6A  956  18.086  14.305   8.438  0.0647  0.0625 -0.1787
   60loPI   C1B  957  17.828  14.205  10.121  0.0294 -0.1038  0.0439
   60loPI   C2B  958  17.850  14.285   9.743  0.2979 -0.1254  0.1603
   60loPI   C3B  959  17.865  14.206   9.419  0.2655  0.0743 -0.0599
   60loPI   C4B  960  17.820  14.197   8.943 -0.3074 -0.0509 -0.1472
   61loPI    C1  961   3.432   7.830  11.326  0.0180  0.0671 -0.0356
   61loPI    C2  962   3.453   8.219  11.417 -0.0985  0.0952 -0.1270
   61loPI    C3  963   3.308   7.959  11.683 -0.3549  0.1649 -0.1958
   61loPI   PO4  964   3.356   7.893  11.060 -0.1541  0.1735  0.1278
   61loPI   GL1  965   3.309   7.718  10.692 -0.3055  0.0182 -0.1461
   61loPI   GL2  966   3.246   8.072  10.590 -0.1827  0.0465  0.2071
   61loPI   C1A  967   3.079   7.511  10.400  0.0268  0.0236 -0.0210
   61loPI   C2A  968   3.199   7.455   9.962 -0.1228 -0.0610  0.0859
   61loPI   C3A  969   3.297   7.478   9.484 -0.2594  0.0989  0.1398
   61loPI   C4A  970   3.295   7.708   9.112  0.2986 -0.1009 -0.2126
   61loPI   C5A  971   3.319   7.678   8.766  0.0331  0.4016  0.0775
   61loPI   C6A  972   3.302   7.778   8.428  0.3072  0.0263 -0.0495
   61loPI   C1B  973   3.177   8.017  10.159  0.1467 -0.0467 -0.0701
   61loPI   C2B  974   3.120   7.985   9.681 -0.1072  0.2793  0.0811
   61loPI   C3B  975   3.108   8.213   9.206  0.1379 -0.3380 -0.0617
   61loPI   C4B  976   3.186   8.278   8.742 -0.0652  0.0114  0.3255
   62loPI    C1  977   8.098  10.905  11.167  0.1330  0.1402  0.0661
   62loPI    C2  978   8.146  11.154  11.477 -0.0360  0.0675  0.1521
   62loPI    C3  979   7.853  10.881  11.483  0.0469 -0.0267 -0.0120
   62loPI   PO4  980   8.056  11.030  10.976 -0.1006 -0.1123  0.0966
   62loPI   GL1  981   8.256  11.242  10.665 -0.1235 -0.1057  0.1039
   62loPI   GL2  982   8.531  11.089  10.349  0.2475 -0.3721  0.1720
   62loPI   C1A  983   8.028  11.231  10.218 -0.2792  0.1202 -0.0674
   62loPI   C2A  984   7.928  11.282   9.772 -0.0864  0.1065 -0.2495
   62loPI   C3A  985   7.994  11.252   9.375 -0.1370  0.2503 -0.0237
   62loPI   C4A  986   8.011  11.251   8.998  0.1140 -0.1227  0.0560
   62loPI   C5A  987   8.027  11.289   8.550 -0.3629  0.0278 -0.3000
   62loPI   C6A  988   7.798  11.097   8.292  0.3440  0.3674  0.0862
   62loPI   C1B  989   8.467  11.103   9.957  0.0117  0.1179 -0.1622
   62loPI   C2B  990   8.525  11.004   9.527  0.1316 -0.0491 -0.2945
   62loPI   C3B  991   8.531  11.058   9.070 -0.3027 -0.1387  0.0250
   62loPI   C4B  992   8.548  11.154   8.663  0.0448 -0.0770 -0.1063
   63loPI    C1  993  13.281   2.747  10.920  0.0423  0.1240 -0.0191
   63loPI    C2  994  12.988   2.500  11.033  0.0603  0.1492  0.0837
   63loPI    C3  995  13.082   2.815  11.261  0.1082  0.1910  0.0064
   63loPI   PO4  996  13.236   2.790  10.690  0.1435  0.1000 -0.1498
   63loPI   GL1  997  12.987   2.822  10.347 -0.3355 -0.1559  0.1462
   63loPI   GL2  998  12.675   2.918  10.377  0.0163 -0.2212 -0.0470
   63loPI   C1A  999  13.012   2.707   9.946 -0.1739 -0.2818 -0.1781
   63loPI   C2A 1000  13.049   2.783   9.522 -0.1153  0.2050  0.1384
   63loPI   C3A 1001  13.010   2.692   9.079  0.2149  0.0418  0.0396
   63loPI   C4A 1002  13.023   2.676   8.672  0.0816  0.1817 -0.0572
   63loPI   C5A 1003  12.996   2.716   8.254  0.1772 -0.0541  0.1177
   63loPI   C6A 1004  13.233   2.637   7.981 -0.0225  0.2866 -0.3086
   63loPI   C1B 1005  12.544   2.800  10.029 -0.0278 -0.1279  0.2703
   63loPI   C2B 1006  12.490   2.922   9.586 -0.0109 -0.2085  0.1343
   63loPI   C3B 1007  12.541   2.870   9.185  0.1735  0.2897 -0.2753
   63loPI   C4B 1008  12.464   2.889   8.741  0.2259  0.0088  0.0868
   64loPI    C1 1009   1.021   8.887  10.984 -0.1968  0.0189 -0.0265
   64loPI    C2 1010   0.887   9.264  10.990 -0.1441  0.0362  0.1064
   64loPI    C3 1011   0.914   9.056  11.331  0.1419  0.0245  0.0795
   64loPI   PO4 1012   1.180   8.853  10.817 -0.3203 -0.3460 -0.1150
   64loPI   GL1 1013   1.150   9.165  10.501  0.0291  0.0289  0.0605
   64loPI   GL2 1014   0.869   9.178  10.506  0.0607  0.3816 -0.0879
   64loPI   C1A 1015   1.465   8.995  10.225 -0.0154 -0.0093  0.1610
   64loPI   C2A 1016   1.354   9.003   9.842 -0.0839  0.3414 -0.0563
   64loPI   C3A 1017   1.288   8.940   9.487  0.4518 -0.0418  0.3123
   64loPI   C4A 1018   1.299   8.878   9.024 -0.0123  0.1680 -0.3894
   64loPI   C5A 1019   1.263   8.962   8.586  0.1347 -0.1997 -0.0180
   64loPI   C6A 1020   0.861   9.086   8.303 -0.0327  0.1613 -0.1938
   64loPI   C1B 1021   0.840   9.152  10.105 -0.2956 -0.1238  0.1474
   64loPI   C2B 1022   0.761   9.045   9.718 -0.2663  0.0815  0.0525
   64loPI   C3B 1023   0.778   9.053   9.298  0.0581 -0.3071 -0.0575
   64loPI   C4B 1024   0.805   9.066   8.785 -0.0531  0.1190  0.2692
   65loPI    C1 1025   0.359   3.304  10.558  0.1252  0.0371 -0.0328
   65loPI    C2 1026   0.057   3.451  10.776  0.0341  0.0199 -0.1465
   65loPI    C3 1027   0.354   3.252  10.954 -0.0762 -0.0557 -0.0461
   65loPI   PO4 1028   0.384   3.271  10.294 -0.0690  0.0781 -0.1036
   65loPI   GL1 1029   0.302   2.945   9.968  0.0833  0.0682 -0.1290
   65loPI   GL2 1030   0.599   2.883  10.050 -0.2052 -0.0133 -0.0854
   65loPI   C1A 1031   0.251   2.912   9.536 -0.1373  0.3559  0.0025
   65loPI   C2A 1032   0.151   2.877   9.109  0.1023  0.2678 -0.2641
   65loPI   C3A 1033   0.282   2.709   8.706  0.1482  0.1195 -0.1330
   65loPI   C4A 1034   0.348   2.600   8.260 -0.1954  0.3769 -0.0423
   65loPI   C5A 1035   0.743   2.762   7.971  0.2730 -0.1593 -0.0615
   65loPI   C6A 1036   1.154   3.140   7.855 -0.1515 -0.0141 -0.2999
   65loPI   C1B 1037   0.715   2.777   9.586  0.1160 -0.0431 -0.2741
   65loPI   C2B 1038   0.790   2.689   9.171  0.3433  0.0969  0.0559
   65loPI   C3B 1039   0.827   2.585   8.777 -0.1987 -0.2776  0.0903
   65loPI   C4B 1040   0.828   2.426   8.385  0.1770 -0.2487  0.3121
   66loPI    C1 1041  15.856  11.956  11.242  0.1290  0.0629  0.1589
   66loPI    C2 1042  15.849  11.923  11.641  0.0997 -0.3532  0.1281
   66loPI    C3 1043  16.133  11.736  11.430  0.1649 -0.0671 -0.0431
   66loPI   PO4 1044  15.726  12.180  11.239  0.1357 -0.0790  0.0423
   66loPI   GL1 1045  15.648  12.354  10.879  0.1327 -0.0099  0.1559
   66loPI   GL2 1046  15.930  12.046  10.703  0.2479  0.0190 -0.2052
   66loPI   C1A 1047  15.530  12.228  10.422 -0.2145 -0.0877  0.0733
   66loPI   C2A 1048  15.445  12.179   9.948 -0.2085 -0.1735  0.0546
   66loPI   C3A 1049  15.508  12.309   9.548  0.0357 -0.4401  0.1612
   66loPI   C4A 1050  15.494  12.226   9.126 -0.1329 -0.1246 -0.0661
   66loPI   C5A 1051  15.455  12.201   8.737  0.1428 -0.3232 -0.0590
   66loPI   C6A 1052  15.712  11.977   8.416  0.0968  0.0292  0.1898
   66loPI   C1B 1053  15.950  12.076  10.250  0.0989 -0.0036  0.1071
   66loPI   C2B 1054  16.000  12.068   9.790  0.1802  0.0202 -0.0324
   66loPI   C3B 1055  15.963  12.132   9.371  0.0224  0.2308  0.3875
   66loPI   C4B 1056  15.917  12.004   8.908 -0.2214  0.1602  0.0613
   67loPI    C1 1057   7.303  12.044  11.333 -0.2759 -0.2405  0.1348
   67loPI    C2 1058   7.022  11.872  11.561 -0.1442 -0.0992  0.4086
   67loPI    C3 1059   7.029  12.270  11.519 -0.1188 -0.1186  0.2204
   67loPI   PO4 1060   7.261  11.958  11.132 -0.0293  0.1403  0.0066
   67loPI   GL1 1061   7.246  12.082  10.709 -0.0493 -0.0063  0.2771
   67loPI   GL2 1062   6.875  12.188  10.617 -0.2186 -0.0705  0.1647
   67loPI   C1A 1063   7.526  11.974  10.425  0.0821  0.2861 -0.0247
   67loPI   C2A 1064   7.528  12.007  10.003 -0.1510  0.1628  0.2217
   67loPI   C3A 1065   7.442  11.937   9.560 -0.2890 -0.0237 -0.3490
   67loPI   C4A 1066   7.535  11.897   9.114  0.0520 -0.2067 -0.0028
   67loPI   C5A 1067   7.556  12.114   8.700 -0.2843  0.2683  0.0212
   67loPI   C6A 1068   7.283  12.030   8.414  0.1138  0.0670  0.0265
   67loPI   C1B 1069   7.050  12.180  10.234  0.2759 -0.4137  0.3981
   67loPI   C2B 1070   6.986  12.156   9.837  0.0677  0.1093  0.0822
   67loPI   C3B 1071   6.995  12.147   9.383 -0.0340 -0.2632 -0.2797
   67loPI   C4B 1072   7.017  12.162   8.885  0.0590  0.0008  0.2196
   68loPI    C1 1073   3.314   9.706  10.937  0.0487  0.2410 -0.2752
   68loPI    C2 1074   3.519   9.407  10.769 -0.1558  0.0157 -0.1309
   68loPI    C3 1075   3.526   9.456  11.166 -0.0673  0.2479 -0.1592
   68loPI   PO4 1076   3.109   9.682  10.781 -0.0276 -0.0759 -0.0626
   68loPI   GL1 1077   3.263   9.663  10.352 -0.0687  0.0664  0.0431
   68loPI   GL2 1078   3.394   9.343  10.249  0.2211 -0.2103 -0.0055
   68loPI   C1A 1079   2.928   9.808  10.054 -0.1216 -0.3444  0.2831
   68loPI   C2A 1080   2.865   9.784   9.635 -0.4284 -0.2685 -0.2643
   68loPI   C3A 1081   2.871   9.748   9.224 -0.1023  0.0496  0.1602
   68loPI   C4A 1082   2.862   9.836   8.842  0.2503  0.0278  0.2090
   68loPI   C5A 1083   2.791   9.856   8.378  0.0803 -0.0488 -0.1234
   68loPI   C6A 1084   2.806  10.164   8.091  0.3518  0.2342 -0.2263
   68loPI   C1B 1085   3.433   9.677   9.913 -0.0948 -0.2117 -0.2700
   68loPI   C2B 1086   3.394   9.642   9.446  0.2050 -0.2015  0.2050
   68loPI   C3B 1087   3.383   9.634   9.018  0.2062 -0.1777  0.1532
   68loPI   C4B 1088   3.280   9.672   8.549  0.0844 -0.1510 -0.0965
   69loPI    C1 1089   8.904  14.812  11.185  0.3836 -0.1778  0.2965
   69loPI    C2 1090   8.873  14.455  11.364 -0.0938 -0.3284 -0.0654
   69loPI    C3 1091   8.563  14.708  11.367  0.0798 -0.1098 -0.2133
   69loPI   PO4 1092   9.062  14.759  10.962  0.3137  0.0756  0.0452
   69loPI   GL1 1093   8.959  14.651  10.571  0.3493 -0.1688  0.2600
   69loPI   GL2 1094   9.083  15.014  10.471 -0.2906  0.6657  0.1414
   69loPI   C1A 1095   8.958  14.406  10.198  0.0814  0.3155 -0.0669
   69loPI   C2A 1096   9.003  14.285   9.857 -0.2557  0.0844 -0.0719
   69loPI   C3A 1097   8.914  14.317   9.453 -0.0526 -0.2387  0.0614
   69loPI   C4A 1098   8.885  14.145   8.991 -0.1338 -0.2129  0.2626
   69loPI   C5A 1099   8.851  14.246   8.560  0.1533  0.0626 -0.0772
   69loPI   C6A 1100   8.708  14.449   8.277  0.2718  0.0471  0.2495
   69loPI   C1B 1101   8.878  14.901  10.104 -0.0695 -0.1974 -0.0398
   69loPI   C2B 1102   8.868  14.799   9.589  0.1835  0.1419 -0.3588
   69loPI   C3B 1103   8.864  14.737   9.133 -0.2835 -0.1961 -0.0077
   69loPI   C4B 1104   8.919  14.760   8.648  0.1711 -0.1848 -0.1439
   70loPI    C1 1105  15.210  12.821  11.177  0.1221  0.1206 -0.0137
   70loPI    C2 1106  15.443  13.038  11.420  0.1658 -0.1499  0.1907
   70loPI    C3 1107  15.462  12.638  11.428 -0.0626 -0.1683 -0.0343
   70loPI   PO4 1108  15.301  12.907  10.917 -0.0437 -0.0938  0.1698
   70loPI   GL1 1109  15.169  13.004  10.553 -0.2136  0.0339 -0.0482
   70loPI   GL2 1110  15.339  13.282  10.593 -0.4331 -0.2285 -0.0149
   70loPI   C1A 1111  14.974  12.940  10.046 -0.1108  0.0414  0.0833
   70loPI   C2A 1112  15.023  12.917   9.567  0.1236 -0.0279 -0.2077
   70loPI   C3A 1113  14.948  12.969   9.146 -0.0671  0.0394 -0.2029
   70loPI   C4A 1114  14.833  12.835   8.744 -0.2124  0.2061 -0.2170
   70loPI   C5A 1115  14.713  12.696   8.324  0.0081 -0.0661  0.1552
   70loPI   C6A 1116  14.427  12.492   8.065 -0.0929 -0.0006 -0.3348
   70loPI   C1B 1117  15.438  13.326  10.144  0.5148 -0.2584  0.1652
   70loPI   C2B 1118  15.325  13.238   9.730  0.1088 -0.0865  0.1527
   70loPI   C3B 1119  15.344  13.248   9.318  0.4398 -0.1120  0.0049
   70loPI   C4B 1120  15.273  13.235   8.893 -0.0363  0.1508  0.3538
   71loPI    C1 1121  16.088   3.028  10.663  0.2250 -0.0753  0.0786
   71loPI    C2 1122  16.033   2.686  10.863 -0.3488  0.0428  0.1417
   71loPI    C3 1123  16.223   2.992  11.038 -0.3082 -0.0613  0.2816
   71loPI   PO4 1124  15.929   2.979  10.458 -0.1888 -0.3395 -0.0629
   71loPI   GL1 1125  16.043   2.717  10.017  0.0124  0.3938  0.2521
   71loPI   GL2 1126  16.215   2.677   9.885  0.2918  0.3930  0.0545
   71loPI   C1A 1127  15.783   2.716   9.645  0.2024 -0.1987 -0.1761
   71loPI   C2A 1128  15.698   2.750   9.197 -0.0268 -0.0916  0.1342
   71loPI   C3A 1129  15.815   2.692   8.732 -0.4009 -0.1621  0.1734
   71loPI   C4A 1130  15.936   2.510   8.281 -0.1954  0.1032 -0.0331
   71loPI   C5A 1131  16.139   2.326   7.955 -0.1726 -0.2382 -0.2145
   71loPI   C6A 1132  16.492   2.380   7.607  0.4351  0.0822 -0.0213
   71loPI   C1B 1133  16.326   2.569   9.458 -0.2215 -0.1045  0.2634
   71loPI   C2B 1134  16.257   2.489   9.039  0.1361  0.2559 -0.1809
   71loPI   C3B 1135  16.329   2.528   8.587  0.2056 -0.0641  0.0673
   71loPI   C4B 1136  16.470   2.677   8.152 -0.0239  0.0436 -0.1100
   72loPI    C1 1137   1.806   5.203  11.192 -0.0727 -0.2499  0.0620
   72loPI    C2 1138   1.870   5.533  11.409 -0.1868 -0.0613 -0.1865
   72loPI    C3 1139   1.916   5.172  11.576  0.0068  0.0777  0.0684
   72loPI   PO4 1140   1.664   5.363  10.961 -0.1411  0.0247  0.0140
   72loPI   GL1 1141   1.842   5.480  10.546 -0.0240  0.0962  0.0499
   72loPI   GL2 1142   2.199   5.580  10.487 -0.2898 -0.1431 -0.0821
   72loPI   C1A 1143   1.805   5.200  10.194 -0.0316 -0.1127  0.0057
   72loPI   C2A 1144   1.712   5.314   9.787  0.3342 -0.1245  0.1271
   72loPI   C3A 1145   1.783   5.312   9.312  0.0508 -0.0451 -0.0001
   72loPI   C4A 1146   1.765   5.374   8.878 -0.1473  0.2653  0.0393
   72loPI   C5A 1147   1.882   5.345   8.467  0.0566  0.2908  0.2072
   72loPI   C6A 1148   1.754   5.130   8.117  0.0356  0.2403 -0.0575
   72loPI   C1B 1149   2.120   5.590  10.006 -0.0344  0.1787  0.0671
   72loPI   C2B 1150   2.171   5.512   9.522  0.3367  0.2157  0.1996
   72loPI   C3B 1151   2.131   5.676   9.173  0.0463  0.2398 -0.0067
   72loPI   C4B 1152   2.230   5.680   8.724  0.0466 -0.1129  0.1945
   73loPI    C1 1153   8.123  12.212  11.310  0.1036  0.1312 -0.1141
   73loPI    C2 1154   7.801  12.183  11.545  0.0820 -0.1034 -0.1694
   73loPI    C3 1155   8.166  12.188  11.707  0.0630 -0.1508 -0.1249
   73loPI   PO4 1156   8.082  12.068  11.160  0.0019 -0.1084 -0.1745
   73loPI   GL1 1157   8.157  12.014  10.682 -0.0317  0.4006  0.2994
   73loPI   GL2 1158   7.945  12.301  10.632 -0.0856 -0.0765  0.0597
   73loPI   C1A 1159   7.924  11.740  10.370 -0.0712  0.0556  0.2594
   73loPI   C2A 1160   7.950  11.786   9.924 -0.0130  0.0911  0.1130
   73loPI   C3A 1161   7.932  11.742   9.530  0.0213 -0.0198 -0.0630
   73loPI   C4A 1162   7.964  11.736   9.188  0.2069 -0.1846 -0.3250
   73loPI   C5A 1163   7.960  11.744   8.792  0.0290  0.0865  0.1548
   73loPI   C6A 1164   7.895  11.979   8.401  0.0481 -0.2001 -0.1408
   73loPI   C1B 1165   7.858  12.297  10.217 -0.2392  0.1353 -0.0059
   73loPI   C2B 1166   7.907  12.302   9.823  0.1201 -0.0968  0.1313
   73loPI   C3B 1167   7.826  12.207   9.362  0.2417  0.3116 -0.0804
   73loPI   C4B 1168   7.904  12.341   8.998  0.0931 -0.1390 -0.1281
   74loPI    C1 1169  10.006   3.014  10.617  0.1844 -0.0388 -0.1389
   74loPI    C2 1170  10.024   3.410  10.560  0.0506 -0.0044  0.0495
   74loPI    C3 1171   9.733   3.254  10.787  0.1503 -0.2033  0.0421
   74loPI   PO4 1172  10.117   2.930  10.314 -0.2187 -0.1665 -0.0151
   74loPI   GL1 1173  10.156   3.197   9.962  0.0200  0.1395  0.0515
   74loPI   GL2 1174  10.175   3.550  10.125  0.2342  0.0268 -0.2424
   74loPI   C1A 1175  10.292   3.272   9.525  0.0243  0.2890 -0.0526
   74loPI   C2A 1176  10.250   3.255   9.134  0.0206 -0.0664 -0.1196
   74loPI   C3A 1177  10.168   3.359   8.704 -0.5190 -0.1251  0.1260
   74loPI   C4A 1178  10.162   3.286   8.323  0.1213 -0.1016 -0.0492
   74loPI   C5A 1179  10.378   3.060   8.012  0.1646  0.0944  0.0350
   74loPI   C6A 1180  10.432   2.983   7.539 -0.1728  0.1654 -0.3072
   74loPI   C1B 1181  10.166   3.766   9.797 -0.0968  0.1302 -0.0939
   74loPI   C2B 1182  10.166   3.763   9.298 -0.1557 -0.2544 -0.1838
   74loPI   C3B 1183  10.127   3.821   8.850  0.0407  0.0602  0.1426
   74loPI   C4B 1184  10.111   3.828   8.346 -0.1293  0.2458 -0.0968
   75loPI    C1 1185   9.422  15.546  11.134  0.1480 -0.1758  0.3687
   75loPI    C2 1186   9.791  15.685  11.065  0.0378 -0.0943 -0.0847
   75loPI    C3 1187   9.737  15.375  11.312  0.3990 -0.0519  0.0528
   75loPI   PO4 1188   9.298  15.669  10.930  0.2173  0.3624 -0.1799
   75loPI   GL1 1189   9.217  15.520  10.473 -0.0776  0.1241 -0.0748
   75loPI   GL2 1190   9.180  15.838  10.348  0.0599  0.0390  0.1451
   75loPI   C1A 1191   9.169  15.340  10.094 -0.0751  0.2179  0.1818
   75loPI   C2A 1192   9.194  15.146   9.729  0.0674  0.3026 -0.0170
   75loPI   C3A 1193   9.243  15.057   9.352 -0.3740  0.0606  0.0088
   75loPI   C4A 1194   9.187  15.066   8.920 -0.1228 -0.0025  0.0861
   75loPI   C5A 1195   9.339  14.948   8.497  0.0172 -0.0568  0.1455
   75loPI   C6A 1196   9.281  14.821   8.042 -0.0723  0.1030  0.2871
   75loPI   C1B 1197   9.201  15.767   9.843 -0.5471  0.1465  0.0607
   75loPI   C2B 1198   9.170  15.652   9.522 -0.1200  0.1126 -0.0107
   75loPI   C3B 1199   9.136  15.570   9.085 -0.1521  0.2438 -0.2316
   75loPI   C4B 1200   9.198  15.598   8.649 -0.0013 -0.0912  0.1280
   76loPI    C1 1201  13.519   2.300  10.986 -0.1468  0.2676  0.1172
   76loPI    C2 1202  13.717   2.063  11.241 -0.2681  0.0330 -0.0036
   76loPI    C3 1203  13.532   2.391  11.375  0.0095  0.1315  0.1451
   76loPI   PO4 1204  13.367   2.078  10.758  0.1235  0.2614  0.1351
   76loPI   GL1 1205  13.265   2.233  10.305 -0.1030 -0.1631  0.2694
   76loPI   GL2 1206  13.401   2.508  10.231 -0.0633 -0.0927  0.0466
   76loPI   C1A 1207  13.059   2.215   9.976 -0.1115 -0.2360 -0.0582
   76loPI   C2A 1208  13.059   2.278   9.558  0.2575  0.0477  0.3017
   76loPI   C3A 1209  13.127   2.169   9.108  0.1820  0.1022 -0.1681
   76loPI   C4A 1210  13.098   2.146   8.721 -0.1328 -0.0546 -0.0446
   76loPI   C5A 1211  13.154   2.242   8.320  0.1229  0.0262 -0.1845
   76loPI   C6A 1212  13.102   2.052   7.957  0.1462  0.0356 -0.1404
   76loPI   C1B 1213  13.438   2.596   9.751  0.3887  0.2525  0.0986
   76loPI   C2B 1214  13.426   2.533   9.270  0.1063  0.1058 -0.0675
   76loPI   C3B 1215  13.500   2.528   8.842  0.3451  0.1758 -0.0462
   76loPI   C4B 1216  13.468   2.639   8.427  0.0593  0.0690  0.1437
   77loPI    C1 1217   0.480   9.587  11.055 -0.1773 -0.0881 -0.2440
   77loPI    C2 1218   0.441   9.213  11.191  0.0432  0.0048  0.0869
   77loPI    C3 1219   0.309   9.520  11.410 -0.0507  0.1293 -0.1403
   77loPI   PO4 1220   0.526   9.529  10.766  0.1496  0.0187  0.2820
   77loPI   GL1 1221   0.516   9.678  10.392 -0.1747 -0.1324 -0.0531
   77loPI   GL2 1222   0.195   9.741  10.209 -0.0189 -0.0709 -0.2301
   77loPI   C1A 1223   0.628   9.645   9.976 -0.3308 -0.0115  0.4034
   77loPI   C2A 1224   0.678   9.540   9.501  0.2528  0.2192 -0.0658
   77loPI   C3A 1225   0.754   9.589   9.111  0.0708  0.2117 -0.2273
   77loPI   C4A 1226   0.633   9.531   8.607  0.0203 -0.1494  0.0883
   77loPI   C5A 1227   0.570   9.496   8.188  0.1109  0.1649  0.4092
   77loPI   C6A 1228   0.943   9.550   7.882 -0.1523  0.1869  0.1244
   77loPI   C1B 1229   0.156   9.770   9.683  0.0515 -0.0510  0.2124
   77loPI   C2B 1230   0.267   9.783   9.305  0.1901  0.0063 -0.1869
   77loPI   C3B 1231   0.323   9.756   8.927 -0.0031 -0.1100  0.3334
   77loPI   C4B 1232   0.177   9.671   8.459 -0.0346  0.3469 -0.0982
   78loPI    C1 1233   0.382  17.401  10.853  0.1385  0.0011 -0.0179
   78loPI    C2 1234   0.618  17.499  11.161 -0.0710  0.0205  0.1387
   78loPI    C3 1235   0.446  17.138  11.147  0.0720 -0.0422 -0.0423
   78loPI   PO4 1236   0.486  17.422  10.590 -0.0609  0.0149  0.0486
   78loPI   GL1 1237   0.448  17.507  10.214 -0.0809 -0.2186  0.3417
   78loPI   GL2 1238   0.743  17.304  10.209  0.2149  0.1488 -0.2972
   78loPI   C1A 1239   0.230  17.493   9.910 -0.0963  0.0387  0.2236
   78loPI   C2A 1240   0.234  17.516   9.498 -0.1836 -0.0023  0.4614
   78loPI   C3A 1241   0.248  17.437   9.058  0.0223  0.0724 -0.0394
   78loPI   C4A 1242   0.261  17.417   8.644 -0.1599  0.1014  0.1245
   78loPI   C5A 1243   0.513  17.366   8.253  0.0422 -0.3146  0.1864
   78loPI   C6A 1244   0.918  17.402   7.970  0.2604 -0.2316 -0.3301
   78loPI   C1B 1245   0.720  17.348   9.736  0.0172 -0.1306  0.0948
   78loPI   C2B 1246   0.668  17.317   9.291  0.0851  0.0648  0.0756
   78loPI   C3B 1247   0.712  17.253   8.792  0.1198 -0.0313 -0.0453
   78loPI   C4B 1248   0.837  17.038   8.408 -0.1594 -0.2198  0.0578
   79loPI    C1 1249  13.137   0.752  10.886  0.2823 -0.0758 -0.1028
   79loPI    C2 1250  13.438   0.594  11.096  0.1277 -0.2655 -0.0202
   79loPI    C3 1251  13.434   0.986  11.016  0.0945 -0.1539  0.4967
   79loPI   PO4 1252  13.143   0.658  10.622 -0.3479 -0.1370 -0.0283
   79loPI   GL1 1253  13.362   0.673  10.160  0.0256 -0.0653 -0.0098
   79loPI   GL2 1254  13.565   0.581  10.309 -0.2344 -0.0949  0.2056
   79loPI   C1A 1255  13.455   0.691   9.776 -0.0121 -0.1675 -0.1131
   79loPI   C2A 1256  13.455   0.590   9.411 -0.1038 -0.0539  0.0421
   79loPI   C3A 1257  13.466   0.734   9.066  0.3315 -0.0049 -0.0815
   79loPI   C4A 1258  13.412   0.747   8.642  0.3032  0.0690 -0.1833
   79loPI   C5A 1259  13.338   0.665   8.256 -0.0949  0.0162  0.0780
   79loPI   C6A 1260  12.988   0.597   8.016  0.0134 -0.2323 -0.0245
   79loPI   C1B 1261  13.480   0.202   9.984  0.0205  0.2151  0.2761
   79loPI   C2B 1262  13.595   0.184   9.608 -0.2105  0.0318  0.0922
   79loPI   C3B 1263  13.516   0.211   9.062  0.1220 -0.1217  0.1478
   79loPI   C4B 1264  13.480   0.261   8.676 -0.0853  0.0529  0.3525
   80loPI    C1 1265  16.247   3.876  10.538  0.1893 -0.0459  0.1452
   80loPI    C2 1266  16.316   4.254  10.649 -0.0742  0.0880 -0.1339
   80loPI    C3 1267  16.011   4.051  10.809  0.1235 -0.0409  0.0849
   80loPI   PO4 1268  16.236   3.924  10.231  0.0021 -0.0887  0.1784
   80loPI   GL1 1269  15.964   4.038   9.968 -0.1240 -0.0229  0.1764
   80loPI   GL2 1270  15.800   3.695   9.948 -0.2109 -0.2467 -0.0933
   80loPI   C1A 1271  15.958   4.013   9.546  0.1339 -0.1900 -0.2070
   80loPI   C2A 1272  15.974   4.088   9.102 -0.1091 -0.0633 -0.0684
   80loPI   C3A 1273  16.013   4.141   8.697  0.2582  0.3542  0.0515
   80loPI   C4A 1274  15.804   4.138   8.289 -0.0579 -0.1448 -0.0993
   80loPI   C5A 1275  15.458   4.073   8.076 -0.0476  0.0532  0.2107
   80loPI   C6A 1276  14.984   4.198   8.159  0.0149 -0.0196  0.1532
   80loPI   C1B 1277  15.556   3.677   9.555  0.1121  0.0653 -0.2852
   80loPI   C2B 1278  15.533   3.732   9.128  0.3513 -0.1482 -0.0679
   80loPI   C3B 1279  15.580   3.746   8.751 -0.0989  0.0583 -0.1954
   80loPI   C4B 1280  15.659   3.674   8.354  0.0142  0.0602  0.0628
   81loPI    C1 1281   0.887  10.662  10.811  0.0288  0.0560  0.0065
   81loPI    C2 1282   0.768  10.577  11.183  0.2133 -0.0566  0.0408
   81loPI    C3 1283   0.990  10.902  11.113 -0.1329  0.1699 -0.0276
   81loPI   PO4 1284   0.710  10.695  10.671  0.2132 -0.1780  0.1729
   81loPI   GL1 1285   0.681  10.538  10.317 -0.1384 -0.4123  0.3643
   81loPI   GL2 1286   1.011  10.605  10.078 -0.1467 -0.4119  0.1625
   81loPI   C1A 1287   0.572  10.745   9.868 -0.0588  0.0144 -0.0631
   81loPI   C2A 1288   0.495  10.676   9.428  0.3270 -0.2852  0.0985
   81loPI   C3A 1289   0.471  10.647   8.872  0.0593  0.3169 -0.2466
   81loPI   C4A 1290   0.473  10.665   8.425 -0.0422 -0.0504 -0.1671
   81loPI   C5A 1291   0.585  10.430   7.990 -0.0487  0.1628  0.0635
   81loPI   C6A 1292   1.042  10.463   7.732  0.1244  0.0756  0.0492
   81loPI   C1B 1293   0.918  10.427   9.704  0.1002 -0.1148  0.1488
   81loPI   C2B 1294   0.959  10.510   9.225  0.0896  0.1399  0.0837
   81loPI   C3B 1295   1.041  10.492   8.825  0.1694  0.1778 -0.1768
   81loPI   C4B 1296   1.047  10.459   8.504 -0.1553 -0.2237  0.3111
   82loPI    C1 1297   8.287   2.839  10.472  0.0383  0.2125 -0.0115
   82loPI    C2 1298   8.187   3.003  10.823 -0.2754 -0.2474  0.1237
   82loPI    C3 1299   8.556   2.860  10.767 -0.1114  0.1588  0.1303
   82loPI   PO4 1300   8.227   3.017  10.302 -0.3527 -0.1538 -0.0399
   82loPI   GL1 1301   8.175   3.000   9.948 -0.3281 -0.2039 -0.2259
   82loPI   GL2 1302   8.056   2.800   9.731 -0.3603  0.1538  0.0911
   82loPI   C1A 1303   8.315   3.094   9.460  0.2072 -0.4844 -0.1810
   82loPI   C2A 1304   8.358   3.030   9.021 -0.3233  0.0895 -0.0257
   82loPI   C3A 1305   8.290   3.041   8.565  0.3299 -0.0388 -0.3523
   82loPI   C4A 1306   8.247   3.319   8.123  0.1691  0.2798 -0.0375
   82loPI   C5A 1307   8.327   3.674   7.936 -0.0370 -0.0564  0.1316
   82loPI   C6A 1308   8.332   4.037   7.750 -0.1513 -0.3963  0.0156
   82loPI   C1B 1309   7.958   2.758   9.260 -0.1327  0.2894  0.0855
   82loPI   C2B 1310   7.941   2.708   8.816 -0.0476  0.1648 -0.1817
   82loPI   C3B 1311   8.025   2.576   8.383 -0.0051  0.0567 -0.1226
   82loPI   C4B 1312   8.410   2.719   8.122  0.2228 -0.1762 -0.1823
   83loPI    C1 1313  12.790  10.811  11.287  0.0013  0.3905  0.0847
   83loPI    C2 1314  12.650  11.041  11.583 -0.0691  0.1834  0.2141
   83loPI    C3 1315  12.750  10.660  11.655 -0.0083  0.1551 -0.0108
   83loPI   PO4 1316  12.651  10.746  11.049 -0.1489 -0.3835 -0.2702
   83loPI   GL1 1317  12.446  10.742  10.643 -0.0082  0.0602 -0.1148
   83loPI   GL2 1318  12.182  10.534  10.505 -0.1938 -0.3585 -0.1465
   83loPI   C1A 1319  12.561  10.484  10.228  0.1168  0.4003 -0.2582
   83loPI   C2A 1320  12.685  10.443   9.845 -0.1246 -0.3192  0.2245
   83loPI   C3A 1321  12.694  10.425   9.389  0.1510  0.4082 -0.2731
   83loPI   C4A 1322  12.577  10.438   8.983  0.2928  0.0268  0.0241
   83loPI   C5A 1323  12.594  10.412   8.512  0.0248  0.0157 -0.0661
   83loPI   C6A 1324  12.832  10.524   8.182 -0.0912  0.2869  0.0325
   83loPI   C1B 1325  12.139  10.624  10.077 -0.0253 -0.3901 -0.2261
   83loPI   C2B 1326  12.240  10.645   9.678 -0.2602 -0.0358  0.1968
   83loPI   C3B 1327  12.127  10.680   9.237  0.0848  0.3082 -0.1407
   83loPI   C4B 1328  12.203  10.718   8.807 -0.0268 -0.0956  0.1792
   84loPI    C1 1329   7.347   9.336  11.149 -0.0817  0.1018  0.0716
   84loPI    C2 1330   7.023   9.122  11.244 -0.0751  0.1007  0.0913
   84loPI    C3 1331   7.237   9.300  11.532  0.4158 -0.5754  0.1695
   84loPI   PO4 1332   7.323   9.478  10.950  0.0708  0.1450 -0.2591
   84loPI   GL1 1333   7.542   9.452  10.620  0.0674  0.2734  0.1027
   84loPI   GL2 1334   7.411   9.154  10.550 -0.5389  0.1516  0.0336
   84loPI   C1A 1335   7.396   9.585  10.234  0.0587  0.0273  0.0482
   84loPI   C2A 1336   7.404   9.496   9.851 -0.1374 -0.0425 -0.2084
   84loPI   C3A 1337   7.458   9.634   9.464  0.3287 -0.1283 -0.0429
   84loPI   C4A 1338   7.425   9.557   8.959 -0.0217  0.4408 -0.1173
   84loPI   C5A 1339   7.283   9.607   8.547  0.0693  0.0529  0.0913
   84loPI   C6A 1340   6.990   9.382   8.419  0.0091 -0.0865  0.0229
   84loPI   C1B 1341   7.418   9.073  10.038  0.0427 -0.0096 -0.2506
   84loPI   C2B 1342   7.479   9.033   9.531 -0.0911 -0.0749 -0.0155
   84loPI   C3B 1343   7.438   9.101   9.106 -0.1447  0.1352  0.2084
   84loPI   C4B 1344   7.315   9.032   8.730  0.2504  0.2139 -0.0544
   85loPI    C1 1345   1.923  11.515  11.148 -0.1340 -0.2781  0.2146
   85loPI    C2 1346   2.024  11.649  11.511  0.1096  0.0486  0.0310
   85loPI    C3 1347   2.269  11.403  11.314  0.0926  0.0666 -0.0126
   85loPI   PO4 1348   1.688  11.630  11.085  0.1056 -0.0255 -0.0584
   85loPI   GL1 1349   1.578  11.806  10.657 -0.1580 -0.3839  0.1540
   85loPI   GL2 1350   1.530  12.032  10.505 -0.5728 -0.2021 -0.0833
   85loPI   C1A 1351   1.689  11.724  10.155 -0.1508 -0.0618 -0.2476
   85loPI   C2A 1352   1.603  11.707   9.698 -0.0216  0.2577 -0.1684
   85loPI   C3A 1353   1.689  11.611   9.319 -0.0406  0.0117  0.1307
   85loPI   C4A 1354   1.647  11.620   8.805 -0.0999 -0.1366  0.1407
   85loPI   C5A 1355   1.567  11.532   8.402 -0.0451  0.0967  0.0573
   85loPI   C6A 1356   1.353  11.169   8.160 -0.0193  0.0592 -0.1754
   85loPI   C1B 1357   1.589  12.248  10.136  0.3077 -0.2284  0.1818
   85loPI   C2B 1358   1.662  12.217   9.790 -0.0040  0.0453  0.1759
   85loPI   C3B 1359   1.568  12.148   9.384  0.2379  0.1949  0.2213
   85loPI   C4B 1360   1.538  12.099   8.942  0.0828  0.3265  0.0280
   86loPI    C1 1361  17.072  13.274  10.840 -0.0734  0.3831 -0.0441
   86loPI    C2 1362  16.827  13.332  11.150 -0.0684  0.2704 -0.0186
   86loPI    C3 1363  17.212  13.245  11.214 -0.1755 -0.2572 -0.0436
   86loPI   PO4 1364  16.959  13.158  10.658 -0.1216 -0.1161  0.0088
   86loPI   GL1 1365  17.090  13.282  10.317  0.1766 -0.1127  0.2911
   86loPI   GL2 1366  17.148  13.577  10.345 -0.0061  0.2143  0.1502
   86loPI   C1A 1367  17.192  13.103   9.925 -0.1538  0.2473 -0.1424
   86loPI   C2A 1368  17.094  13.026   9.472  0.0080 -0.1380  0.0651
   86loPI   C3A 1369  17.080  13.067   9.091 -0.1043 -0.3137  0.1029
   86loPI   C4A 1370  17.034  13.042   8.612  0.1702 -0.0576  0.0252
   86loPI   C5A 1371  17.041  12.832   8.321 -0.1144  0.1343 -0.4288
   86loPI   C6A 1372  17.134  12.957   7.874 -0.0568  0.0181  0.1277
   86loPI   C1B 1373  17.015  13.602   9.895  0.4364 -0.1304 -0.4665
   86loPI   C2B 1374  17.068  13.737   9.437  0.0205  0.0331 -0.1595
   86loPI   C3B 1375  17.031  13.528   9.017  0.1564  0.1770 -0.1009
   86loPI   C4B 1376  17.072  13.549   8.581 -0.1767 -0.1898 -0.0556
   87loPI    C1 1377   8.733   2.478  10.470  0.1596  0.0275  0.1189
   87loPI    C2 1378   8.747   2.143  10.688  0.0926 -0.0876 -0.0515
   87loPI    C3 1379   8.937   2.472  10.814  0.0691 -0.1575  0.1703
   87loPI   PO4 1380   8.825   2.364  10.247  0.1760  0.0933  0.0709
   87loPI   GL1 1381   8.947   2.606   9.912 -0.0480  0.0842  0.1368
   87loPI   GL2 1382   8.997   2.312   9.780  0.1262 -0.0975 -0.0676
   87loPI   C1A 1383   8.978   2.761   9.546  0.1518  0.2640 -0.2740
   87loPI   C2A 1384   8.901   2.797   9.048 -0.0249 -0.0998  0.0898
   87loPI   C3A 1385   8.783   2.807   8.719  0.0937 -0.0166  0.1379
   87loPI   C4A 1386   8.850   2.863   8.343  0.2991  0.4256  0.0483
   87loPI   C5A 1387   8.941   2.855   7.919  0.2511  0.0936  0.0136
   87loPI   C6A 1388   9.064   2.952   7.628  0.0368 -0.1395  0.0333
   87loPI   C1B 1389   9.084   2.324   9.303  0.1689  0.0923  0.2808
   87loPI   C2B 1390   8.950   2.259   8.886 -0.2122 -0.2719  0.3687
   87loPI   C3B 1391   8.923   2.151   8.461  0.0237 -0.1193  0.3781
   87loPI   C4B 1392   8.994   2.406   8.190 -0.1194 -0.0072  0.1978
   88loPI    C1 1393   4.768   3.615  10.802  0.1857  0.0885 -0.0827
   88loPI    C2 1394   5.075   3.454  11.000  0.1398 -0.0542 -0.1264
   88loPI    C3 1395   4.934   3.812  11.108  0.3368  0.0234 -0.1219
   88loPI   PO4 1396   4.810   3.638  10.546 -0.1557  0.0337 -0.0831
   88loPI   GL1 1397   4.827   3.934  10.315  0.2196 -0.3576  0.1811
   88loPI   GL2 1398   5.123   3.905  10.220  0.0423  0.0527 -0.0436
   88loPI   C1A 1399   4.621   4.045   9.926  0.1018  0.1380  0.0812
   88loPI   C2A 1400   4.575   4.031   9.400 -0.1233  0.0268 -0.0272
   88loPI   C3A 1401   4.558   3.927   8.866  0.1209 -0.2108 -0.0248
   88loPI   C4A 1402   4.581   4.034   8.496  0.1463 -0.2696  0.0847
   88loPI   C5A 1403   4.883   4.131   8.309 -0.0420 -0.0528  0.2343
   88loPI   C6A 1404   5.291   4.139   8.154  0.0877 -0.2399 -0.1003
   88loPI   C1B 1405   5.017   3.791   9.849  0.0808  0.1608  0.3658
   88loPI   C2B 1406   5.096   3.816   9.404 -0.1077 -0.3080 -0.0007
   88loPI   C3B 1407   5.107   3.807   8.927 -0.1889  0.1141 -0.1201
   88loPI   C4B 1408   5.273   3.715   8.455 -0.0129  0.1135  0.2616
   89loPI    C1 1409   6.659  13.146  11.193  0.1320 -0.3094  0.0532
   89loPI    C2 1410   6.501  13.167  11.560  0.1910 -0.1027  0.0684
   89loPI    C3 1411   6.588  13.502  11.360 -0.2471 -0.2047 -0.3123
   89loPI   PO4 1412   6.537  12.969  11.060  0.2982 -0.1740 -0.0547
   89loPI   GL1 1413   6.546  13.054  10.636 -0.1232 -0.0109 -0.0762
   89loPI   GL2 1414   6.924  13.107  10.631  0.1519  0.3389 -0.1186
   89loPI   C1A 1415   6.514  12.863  10.269  0.1140  0.1758 -0.2541
   89loPI   C2A 1416   6.412  12.856   9.711 -0.0693  0.1595  0.3368
   89loPI   C3A 1417   6.417  12.918   9.199 -0.2115 -0.2095  0.1509
   89loPI   C4A 1418   6.358  12.895   8.767  0.1341  0.0379  0.1064
   89loPI   C5A 1419   6.577  12.783   8.345 -0.1691 -0.3508 -0.3227
   89loPI   C6A 1420   6.759  12.998   8.013 -0.2183  0.1027 -0.0067
   89loPI   C1B 1421   6.939  13.220  10.218 -0.0198 -0.1339  0.1293
   89loPI   C2B 1422   6.827  13.075   9.796  0.0788  0.1296  0.0352
   89loPI   C3B 1423   6.783  13.152   9.395  0.2525  0.1456 -0.0043
   89loPI   C4B 1424   6.798  13.183   8.998  0.0133 -0.3998 -0.0871
   90loPI    C1 1425   2.327  16.956  10.619 -0.1191  0.0011 -0.1358
   90loPI    C2 1426   2.436  17.172  10.300 -0.0241  0.0450 -0.0741
   90loPI    C3 1427   2.384  17.351  10.654  0.1982 -0.0541  0.0106
   90loPI   PO4 1428   2.103  16.789  10.483  0.0342  0.1704 -0.0620
   90loPI   GL1 1429   2.009  16.622  10.093 -0.0743  0.1901 -0.2150
   90loPI   GL2 1430   1.761  16.421  10.122  0.0986  0.0061  0.2402
   90loPI   C1A 1431   2.119  16.750   9.619  0.1623 -0.3206  0.2173
   90loPI   C2A 1432   2.137  16.758   9.125  0.0592 -0.0389 -0.0754
   90loPI   C3A 1433   2.151  16.712   8.765  0.1058  0.0642 -0.0253
   90loPI   C4A 1434   2.062  16.655   8.357  0.1780  0.0401  0.0565
   90loPI   C5A 1435   2.011  16.540   7.985  0.2904 -0.1020  0.0676
   90loPI   C6A 1436   1.642  16.442   7.628 -0.2137  0.0761 -0.1072
   90loPI   C1B 1437   1.686  16.427   9.698  0.1162 -0.0501 -0.1588
   90loPI   C2B 1438   1.685  16.415   9.282 -0.0584  0.0093 -0.3200
   90loPI   C3B 1439   1.704  16.400   8.903  0.2339  0.0550 -0.0352
   90loPI   C4B 1440   1.617  16.364   8.512 -0.1829  0.0852  0.0237
   91loPI    C1 1441  12.263   5.149  11.320 -0.0043  0.1216 -0.1351
   91loPI    C2 1442  12.621   4.973  11.352 -0.0161  0.1154 -0.0320
   91loPI    C3 1443  12.532   5.289  11.580 -0.1738 -0.0491  0.1378
   91loPI   PO4 1444  12.254   5.282  11.009  0.3595 -0.0456  0.3366
   91loPI   GL1 1445  12.012   5.020  10.598 -0.1916 -0.0576  0.1456
   91loPI   GL2 1446  11.852   5.142  10.432  0.2729  0.0828  0.2778
   91loPI   C1A 1447  12.197   4.800  10.202  0.1088  0.1641 -0.1575
   91loPI   C2A 1448  12.259   4.877   9.782 -0.1769  0.1296 -0.0442
   91loPI   C3A 1449  12.188   4.957   9.306 -0.0280 -0.0802 -0.0623
   91loPI   C4A 1450  12.136   4.954   8.932  0.0006 -0.2085 -0.1168
   91loPI   C5A 1451  12.091   4.870   8.460 -0.1420  0.1443  0.0962
   91loPI   C6A 1452  11.820   5.044   8.220  0.2141  0.1651  0.0084
   91loPI   C1B 1453  12.176   5.362  10.112  0.0775 -0.0840 -0.0658
   91loPI   C2B 1454  12.213   5.421   9.770  0.2345  0.1422 -0.0310
   91loPI   C3B 1455  12.025   5.418   9.427  0.0853  0.1137 -0.1182
   91loPI   C4B 1456  12.074   5.426   9.088 -0.2213 -0.3235  0.1492
   92loPI    C1 1457   1.115   0.150  10.932  0.1709  0.0570 -0.0151
   92loPI    C2 1458   1.031   0.529  11.028  0.0881  0.0138  0.0851
   92loPI    C3 1459   1.333   0.340  11.209  0.0853  0.0097  0.0854
   92loPI   PO4 1460   1.101   0.192  10.640  0.1018  0.0263  0.2007
   92loPI   GL1 1461   1.223   0.153  10.221  0.0839  0.0158  0.0529
   92loPI   GL2 1462   1.080  -0.132  10.154 -0.1469  0.1084  0.2640
   92loPI   C1A 1463   1.125   0.214   9.832  0.0004 -0.0147 -0.2777
   92loPI   C2A 1464   1.086   0.175   9.504  0.1344 -0.1416 -0.0873
   92loPI   C3A 1465   1.038   0.101   9.033 -0.0017  0.2106  0.2165
   92loPI   C4A 1466   1.153   0.074   8.545 -0.0725 -0.2479  0.3284
   92loPI   C5A 1467   1.496  -0.096   8.192 -0.3185 -0.1175 -0.2076
   92loPI   C6A 1468   1.835  -0.225   7.945 -0.1749  0.0927  0.1771
   92loPI   C1B 1469   1.138  -0.314   9.738  0.0872  0.0132  0.1411
   92loPI   C2B 1470   1.075  -0.301   9.282 -0.0356 -0.1480  0.1017
   92loPI   C3B 1471   1.142  -0.387   8.777 -0.0863  0.0814  0.0959
   92loPI   C4B 1472   1.211  -0.443   8.388  0.1444 -0.2114  0.0704
   93loPI    C1 1473   8.604  11.179  10.951 -0.0886 -0.1330 -0.0383
   93loPI    C2 1474   8.616  10.926  11.262 -0.2058 -0.0896  0.0021
   93loPI    C3 1475   8.579  11.320  11.325 -0.0008 -0.0593 -0.0600
   93loPI   PO4 1476   8.752  11.103  10.807  0.0498 -0.0833 -0.1036
   93loPI   GL1 1477   8.989  11.335  10.548  0.2070 -0.1893  0.0399
   93loPI   GL2 1478   9.237  11.206  10.324  0.0834 -0.1130 -0.1269
   93loPI   C1A 1479   8.822  11.454  10.103  0.0797  0.1929 -0.1721
   93loPI   C2A 1480   8.830  11.404   9.692 -0.2289 -0.0492  0.0421
   93loPI   C3A 1481   8.948  11.385   9.239 -0.0045  0.2132  0.1028
   93loPI   C4A 1482   8.927  11.420   8.905 -0.3890 -0.0904  0.1533
   93loPI   C5A 1483   8.962  11.516   8.454  0.1290  0.1085  0.0058
   93loPI   C6A 1484   8.795  11.498   8.070  0.0420 -0.1424  0.0328
   93loPI   C1B 1485   9.350  11.231   9.949  0.0227  0.0984  0.2091
   93loPI   C2B 1486   9.397  11.217   9.511  0.1458 -0.0641  0.1397
   93loPI   C3B 1487   9.403  11.249   9.076  0.1178 -0.0970  0.0404
   93loPI   C4B 1488   9.417  11.323   8.738 -0.1384  0.0142 -0.2444
   94loPI    C1 1489  10.393  14.329  11.107 -0.1216 -0.2680  0.1680
   94loPI    C2 1490  10.541  14.114  11.409  0.1643 -0.0785  0.1661
   94loPI    C3 1491  10.525  14.513  11.437  0.1497 -0.0632 -0.0495
   94loPI   PO4 1492  10.500  14.331  10.891  0.1907 -0.0051  0.1043
   94loPI   GL1 1493  10.379  14.315  10.564  0.2372  0.2575  0.3454
   94loPI   GL2 1494  10.624  14.609  10.495  0.0275  0.2005 -0.2643
   94loPI   C1A 1495  10.253  14.304  10.092  0.0146 -0.2880 -0.1601
   94loPI   C2A 1496  10.265  14.205   9.729 -0.1658 -0.1529  0.2667
   94loPI   C3A 1497  10.258  14.211   9.342 -0.1492  0.0167  0.2979
   94loPI   C4A 1498  10.225  14.177   8.939  0.0036 -0.0258  0.0016
   94loPI   C5A 1499  10.193  14.168   8.492  0.0684  0.2366 -0.3685
   94loPI   C6A 1500  10.524  14.291   8.169  0.0107  0.0161  0.0560
   94loPI   C1B 1501  10.645  14.589  10.141 -0.1606  0.1307  0.0818
   94loPI   C2B 1502  10.661  14.496   9.664  0.0188  0.0184  0.2520
   94loPI   C3B 1503  10.639  14.513   9.090  0.0532 -0.1954 -0.1451
   94loPI   C4B 1504  10.619  14.517   8.617 -0.0125 -0.0606  0.2741
   95loPI    C1 1505   8.366   1.319  10.837 -0.0648 -0.2696 -0.2429
   95loPI    C2 1506   8.482   1.555  11.138  0.0876 -0.1892 -0.3632
   95loPI    C3 1507   8.461   1.159  11.191 -0.2955 -0.1418 -0.1212
   95loPI   PO4 1508   8.378   1.426  10.590  0.2129 -0.1658 -0.2340
   95loPI   GL1 1509   8.355   1.375  10.190 -0.1514  0.0758  0.0911
   95loPI   GL2 1510   8.082   1.378  10.050 -0.2734 -0.1896 -0.0371
   95loPI   C1A 1511   8.448   1.113   9.831 -0.1649 -0.0191  0.0683
   95loPI   C2A 1512   8.248   1.110   9.476  0.2086 -0.0501  0.1046
   95loPI   C3A 1513   8.288   1.186   9.072 -0.1233 -0.0427 -0.1855
   95loPI   C4A 1514   8.169   0.999   8.634  0.2448 -0.0714  0.2655
   95loPI   C5A 1515   8.050   0.898   8.169 -0.0417  0.0686  0.1600
   95loPI   C6A 1516   8.029   1.041   7.758 -0.2535  0.1205 -0.0533
   95loPI   C1B 1517   7.801   1.390   9.548  0.2397  0.2093 -0.1289
   95loPI   C2B 1518   7.814   1.257   9.218 -0.2333 -0.1682 -0.0494
   95loPI   C3B 1519   7.776   1.211   8.881 -0.3652 -0.0318  0.0718
   95loPI   C4B 1520   7.672   1.345   8.528  0.4474 -0.0535 -0.1064
   96loPI    C1 1521   9.943  13.087  11.017 -0.2079 -0.0315 -0.0831
   96loPI    C2 1522   9.653  13.134  11.289 -0.0431 -0.2532  0.1348
   96loPI    C3 1523   9.969  13.379  11.290 -0.2961  0.0863 -0.1990
   96loPI   PO4 1524   9.864  13.056  10.810 -0.0287  0.3817  0.0366
   96loPI   GL1 1525   9.768  13.184  10.459  0.1661 -0.0660 -0.0909
   96loPI   GL2 1526   9.558  12.864  10.426  0.0289 -0.1591  0.0809
   96loPI   C1A 1527   9.943  13.328  10.085  0.2292 -0.0879  0.0131
   96loPI   C2A 1528   9.961  13.320   9.749  0.0278  0.0719 -0.2373
   96loPI   C3A 1529   9.874  13.392   9.357 -0.1297  0.2789  0.0946
   96loPI   C4A 1530   9.993  13.411   8.956  0.1518 -0.2444 -0.0540
   96loPI   C5A 1531   9.975  13.450   8.566  0.3419  0.0662 -0.1817
   96loPI   C6A 1532  10.152  13.666   8.224 -0.1362  0.1507  0.4130
   96loPI   C1B 1533   9.533  13.034  10.081 -0.0045  0.1789 -0.1862
   96loPI   C2B 1534   9.481  12.973   9.634 -0.1355 -0.1682  0.2466
   96loPI   C3B 1535   9.479  13.082   9.223 -0.1310  0.1216  0.0076
   96loPI   C4B 1536   9.645  13.117   8.837 -0.1287 -0.0146  0.1578
   97loPI    C1 1537  12.937   4.641  10.929  0.1303 -0.2966 -0.2512
   97loPI    C2 1538  12.733   4.431  11.202 -0.2206 -0.1511 -0.3954
   97loPI    C3 1539  13.133   4.427  11.205 -0.2180 -0.1863  0.0915
   97loPI   PO4 1540  12.789   4.601  10.713  0.4402 -0.0661 -0.3158
   97loPI   GL1 1541  12.803   4.496  10.300  0.1272  0.0612 -0.3701
   97loPI   GL2 1542  12.737   4.231  10.307 -0.0064  0.0330 -0.1465
   97loPI   C1A 1543  12.681   4.677   9.896 -0.0236 -0.2139 -0.4075
   97loPI   C2A 1544  12.636   4.782   9.491  0.2231  0.3388 -0.0455
   97loPI   C3A 1545  12.629   4.697   9.113 -0.3119  0.2005 -0.2079
   97loPI   C4A 1546  12.561   4.762   8.614  0.0394 -0.2740  0.4074
   97loPI   C5A 1547  12.692   4.817   8.243  0.1834 -0.1133  0.1685
   97loPI   C6A 1548  12.847   4.702   7.811  0.0570 -0.2853  0.4108
   97loPI   C1B 1549  12.829   4.209   9.807 -0.2871 -0.1477 -0.3474
   97loPI   C2B 1550  12.708   4.209   9.330 -0.0126  0.1950  0.4895
   97loPI   C3B 1551  12.761   4.236   8.987  0.0495 -0.1524 -0.1208
   97loPI   C4B 1552  12.683   4.265   8.585  0.1829  0.1184  0.0895
   98loPI    C1 1553  13.222   3.878  10.989 -0.1958  0.0911 -0.0076
   98loPI    C2 1554  12.900   3.929  11.220 -0.0876  0.1464  0.1327
   98loPI    C3 1555  13.201   3.697  11.345 -0.1435 -0.0395 -0.0700
   98loPI   PO4 1556  13.179   4.056  10.824  0.1293 -0.1949  0.0828
   98loPI   GL1 1557  13.216   4.265  10.482 -0.0722 -0.2499 -0.0888
   98loPI   GL2 1558  13.337   4.563  10.562 -0.3645  0.2018 -0.3590
   98loPI   C1A 1559  13.255   4.115   9.977 -0.6125  0.1768 -0.1151
   98loPI   C2A 1560  13.228   4.113   9.507  0.2462 -0.0016  0.1234
   98loPI   C3A 1561  13.220   4.017   9.113  0.0079 -0.2689 -0.0370
   98loPI   C4A 1562  13.143   4.102   8.665 -0.2793  0.1275 -0.1294
   98loPI   C5A 1563  13.151   4.289   8.237  0.0054  0.1749 -0.3209
   98loPI   C6A 1564  13.351   4.449   7.903  0.4533 -0.0131 -0.1361
   98loPI   C1B 1565  13.210   4.588  10.084  0.1694 -0.2010 -0.1019
   98loPI   C2B 1566  13.107   4.603   9.644  0.0007  0.3623  0.0735
   98loPI   C3B 1567  13.127   4.521   9.179  0.1350 -0.0693 -0.0527
   98loPI   C4B 1568  13.052   4.613   8.763  0.1526 -0.0063  0.0554
   99loPI    C1 1569  11.232  14.686  11.183  0.1625 -0.0019 -0.1564
   99loPI    C2 1570  11.069  15.020  11.331  0.3138  0.0049 -0.0021
   99loPI    C3 1571  11.001  14.669  11.509  0.4037 -0.0031  0.0170
   99loPI   PO4 1572  11.339  14.772  10.956 -0.1254  0.3698  0.0802
   99loPI   GL1 1573  11.266  14.795  10.481 -0.1961  0.4216 -0.1365
   99loPI   GL2 1574  10.986  14.932  10.454 -0.0051  0.3923  0.1118
   99loPI   C1A 1575  11.474  14.664  10.173  0.0003 -0.0960 -0.2243
   99loPI   C2A 1576  11.566  14.690   9.782  0.0838  0.3194 -0.3552
   99loPI   C3A 1577  11.533  14.664   9.342  0.1287 -0.0116 -0.1833
   99loPI   C4A 1578  11.522  14.670   8.937  0.0567  0.0973  0.0674
   99loPI   C5A 1579  11.485  14.729   8.537 -0.0300 -0.0425 -0.2958
   99loPI   C6A 1580  11.511  14.688   8.106 -0.0478  0.2249 -0.1437
   99loPI   C1B 1581  11.079  14.822   9.996  0.3585 -0.1975  0.1834
   99loPI   C2B 1582  11.058  14.800   9.643 -0.1820  0.2007 -0.0047
   99loPI   C3B 1583  11.010  14.803   9.157  0.0533  0.2271  0.1443
   99loPI   C4B 1584  10.981  14.828   8.724 -0.0841 -0.0191 -0.2083
  100loPI    C1 1585   1.359   9.269  11.090 -0.2067 -0.1844  0.2582
  100loPI    C2 1586   1.412   9.590  11.322 -0.0951 -0.0185  0.0074
  100loPI    C3 1587   1.425   9.224  11.482  0.3033  0.0783  0.2109
  100loPI   PO4 1588   1.491   9.405  10.797  0.2348 -0.0453  0.0578
  100loPI   GL1 1589   1.471   9.527  10.347 -0.0510 -0.0667 -0.0067
  100loPI   GL2 1590   1.165   9.556  10.140  0.0958  0.3597  0.0034
  100loPI   C1A 1591   1.651   9.373  10.004 -0.2578  0.1508 -0.2879
  100loPI   C2A 1592   1.621   9.327   9.603 -0.0673 -0.1595 -0.2560
  100loPI   C3A 1593   1.632   9.262   9.164  0.3808 -0.1108 -0.1768
  100loPI   C4A 1594   1.686   9.242   8.786 -0.0937  0.2135 -0.2738
  100loPI   C5A 1595   1.654   9.187   8.344 -0.2659 -0.2058  0.0245
  100loPI   C6A 1596   1.629   8.903   8.019  0.3369 -0.1658 -0.3316
  100loPI   C1B 1597   1.145   9.413   9.748 -0.1267 -0.0866  0.1532
  100loPI   C2B 1598   1.172   9.424   9.324  0.0699 -0.3165  0.0185
  100loPI   C3B 1599   1.240   9.456   8.861  0.1365 -0.0321  0.0074
  100loPI   C4B 1600   1.187   9.443   8.411  0.2304  0.5033  0.0986
  101loPI    C1 1601   2.123  10.125  10.974  0.1066 -0.0561 -0.2026
  101loPI    C2 1602   2.443  10.276  11.161  0.2415 -0.2690 -0.2578
  101loPI    C3 1603   2.080  10.311  11.325  0.3190 -0.1968 -0.0997
  101loPI   PO4 1604   2.179  10.097  10.794 -0.0824 -0.1489 -0.0166
  101loPI   GL1 1605   2.235  10.286  10.434 -0.0714 -0.1166 -0.0211
  101loPI   GL2 1606   2.015  10.132  10.286 -0.1127 -0.2830 -0.2345
  101loPI   C1A 1607   2.297  10.517  10.097  0.0025  0.3605 -0.2598
  101loPI   C2A 1608   2.359  10.499   9.685 -0.0663 -0.0367  0.1901
  101loPI   C3A 1609   2.355  10.443   9.294  0.0446  0.3318  0.3957
  101loPI   C4A 1610   2.302  10.409   8.872  0.1220 -0.0342  0.2495
  101loPI   C5A 1611   2.312  10.432   8.458 -0.0153  0.0876  0.1420
  101loPI   C6A 1612   2.274  10.075   8.148  0.1732  0.1819 -0.0073
  101loPI   C1B 1613   1.986  10.127   9.864  0.2797  0.0004 -0.0009
  101loPI   C2B 1614   1.934  10.069   9.462  0.1108 -0.0810  0.2306
  101loPI   C3B 1615   1.940  10.142   9.021  0.1304  0.0977  0.2511
  101loPI   C4B 1616   1.895  10.130   8.561 -0.0015 -0.2914 -0.0608
  102loPI    C1 1617   2.461  14.204  11.197  0.0917  0.0779 -0.1732
  102loPI    C2 1618   2.103  14.115  11.042 -0.0316 -0.0306  0.1651
  102loPI    C3 1619   2.130  14.261  11.414  0.2866 -0.1751  0.2028
  102loPI   PO4 1620   2.535  14.308  11.070  0.1148 -0.0827  0.0934
  102loPI   GL1 1621   2.502  14.536  10.725 -0.1746  0.2261  0.0979
  102loPI   GL2 1622   2.684  14.620  10.620  0.4487  0.2580  0.3477
  102loPI   C1A 1623   2.159  14.306  10.446 -0.1665  0.0567 -0.0921
  102loPI   C2A 1624   2.123  14.383   9.992 -0.2825 -0.1251  0.0934
  102loPI   C3A 1625   2.064  14.350   9.548 -0.1991  0.2373 -0.2646
  102loPI   C4A 1626   2.091  14.355   9.104  0.0500  0.1784  0.1486
  102loPI   C5A 1627   2.061  14.231   8.682 -0.2146 -0.1224 -0.2807
  102loPI   C6A 1628   1.818  14.383   8.368  0.0782  0.0673 -0.0316
  102loPI   C1B 1629   3.040  14.509  10.307 -0.0088  0.2800 -0.3325
  102loPI   C2B 1630   3.018  14.569   9.857 -0.0759  0.1224 -0.0274
  102loPI   C3B 1631   3.015  14.526   9.477 -0.3029  0.3137  0.2161
  102loPI   C4B 1632   2.975  14.471   9.126 -0.1979 -0.3137 -0.2370
  103loPI    C1 1633   3.160  12.270  11.124  0.4071 -0.0810 -0.1412
  103loPI    C2 1634   2.965  12.473  11.408  0.3480 -0.0364 -0.2137
  103loPI    C3 1635   2.926  12.076  11.384  0.0891 -0.0047 -0.3641
  103loPI   PO4 1636   3.126  12.428  10.911 -0.1126 -0.2123 -0.0192
  103loPI   GL1 1637   3.162  12.180  10.541 -0.2354 -0.1499  0.4361
  103loPI   GL2 1638   3.445  11.997  10.424 -0.2692  0.0449 -0.2377
  103loPI   C1A 1639   3.008  12.226  10.152  0.0409 -0.0332  0.0456
  103loPI   C2A 1640   2.929  12.212   9.717 -0.0697  0.0062  0.1849
  103loPI   C3A 1641   2.863  12.151   9.292  0.2518  0.3904 -0.0448
  103loPI   C4A 1642   2.918  12.206   8.877  0.1111 -0.0410 -0.0149
  103loPI   C5A 1643   3.010  12.207   8.391 -0.0691  0.0658  0.0975
  103loPI   C6A 1644   2.808  12.118   8.030 -0.0453  0.0483  0.1042
  103loPI   C1B 1645   3.494  12.140  10.022  0.0027 -0.0437  0.1877
  103loPI   C2B 1646   3.477  12.051   9.610  0.2334 -0.3033 -0.1053
  103loPI   C3B 1647   3.367  11.984   9.154 -0.1286  0.1269 -0.0103
  103loPI   C4B 1648   3.415  12.042   8.674 -0.0070 -0.0469 -0.0464
  104loPI    C1 1649  12.569  14.301  11.094 -0.2180  0.1707 -0.0600
  104loPI    C2 1650  12.699  14.060  11.386  0.0198  0.2273 -0.1165
  104loPI    C3 1651  12.332  14.219  11.405 -0.1098 -0.0737 -0.0395
  104loPI   PO4 1652  12.604  14.224  10.831  0.2912  0.3454 -0.0947
  104loPI   GL1 1653  12.575  14.323  10.417 -0.0825 -0.0624  0.0213
  104loPI   GL2 1654  12.977  14.141  10.299 -0.1736 -0.0154  0.1163
  104loPI   C1A 1655  12.550  14.296   9.915  0.1252 -0.0066 -0.2296
  104loPI   C2A 1656  12.463  14.332   9.500 -0.3385 -0.0107 -0.1562
  104loPI   C3A 1657  12.435  14.344   9.081  0.0603 -0.1407 -0.0223
  104loPI   C4A 1658  12.429  14.218   8.682  0.0034 -0.1810 -0.1186
  104loPI   C5A 1659  12.275  14.000   8.322 -0.2996 -0.2450 -0.0998
  104loPI   C6A 1660  12.118  13.525   8.116  0.2174  0.0764 -0.1737
  104loPI   C1B 1661  13.010  14.122   9.800  0.1362 -0.2384 -0.0664
  104loPI   C2B 1662  12.900  14.205   9.372 -0.0154 -0.1405  0.0118
  104loPI   C3B 1663  12.867  14.120   8.899 -0.3986 -0.1113  0.1994
  104loPI   C4B 1664  12.898  14.073   8.477 -0.2620  0.1059  0.1823
  105loPI    C1 1665  16.310  15.317  11.128  0.2256  0.0791 -0.0337
  105loPI    C2 1666  16.079  15.153  11.411  0.0787  0.0053 -0.1948
  105loPI    C3 1667  16.451  15.271  11.500 -0.0404  0.1821  0.0829
  105loPI   PO4 1668  16.158  15.525  11.060 -0.1796  0.3289  0.1343
  105loPI   GL1 1669  15.995  15.531  10.689 -0.0915  0.2966  0.1103
  105loPI   GL2 1670  15.651  15.579  10.594 -0.0448  0.3288 -0.1321
  105loPI   C1A 1671  15.898  15.451  10.230  0.3109 -0.0285 -0.0857
  105loPI   C2A 1672  15.882  15.514   9.783 -0.0113  0.1558 -0.0105
  105loPI   C3A 1673  15.855  15.477   9.323 -0.0034 -0.1471 -0.0948
  105loPI   C4A 1674  15.812  15.337   8.974 -0.2331 -0.0718 -0.0193
  105loPI   C5A 1675  15.721  15.339   8.551 -0.2899 -0.3503 -0.0586
  105loPI   C6A 1676  15.408  15.316   8.300  0.0769  0.2259  0.3584
  105loPI   C1B 1677  15.499  15.688  10.143 -0.1250  0.1035  0.1877
  105loPI   C2B 1678  15.439  15.656   9.733 -0.1101  0.0285  0.1572
  105loPI   C3B 1679  15.358  15.603   9.359 -0.0425  0.0372  0.2796
  105loPI   C4B 1680  15.348  15.540   8.857  0.1195  0.1606 -0.1250
  106loPI    C1 1681  15.973   9.037  11.066 -0.0076  0.0398 -0.0579
  106loPI    C2 1682  15.894   8.780  11.362  0.0011  0.1771  0.0647
  106loPI    C3 1683  16.088   9.121  11.439  0.1697  0.1276 -0.1314
  106loPI   PO4 1684  15.907   8.859  10.860 -0.0006  0.2145 -0.1996
  106loPI   GL1 1685  15.508   8.840  10.585  0.0882  0.2570  0.0697
  106loPI   GL2 1686  15.259   9.033  10.544 -0.5558  0.1069  0.0188
  106loPI   C1A 1687  15.732   8.794  10.237  0.0202  0.5281 -0.0225
  106loPI   C2A 1688  15.639   8.817   9.776 -0.1511  0.2160  0.1986
  106loPI   C3A 1689  15.616   8.836   9.350  0.1848  0.2161 -0.1219
  106loPI   C4A 1690  15.602   8.862   8.956 -0.1572  0.4283  0.0561
  106loPI   C5A 1691  15.662   8.872   8.558  0.1312 -0.1605 -0.0679
  106loPI   C6A 1692  15.943   9.087   8.293  0.0588  0.2274  0.0571
  106loPI   C1B 1693  15.230   9.026  10.066  0.1500 -0.2002  0.0526
  106loPI   C2B 1694  15.167   9.004   9.579  0.0743  0.1493  0.0124
  106loPI   C3B 1695  15.143   9.020   9.184 -0.2159 -0.1004 -0.2786
  106loPI   C4B 1696  15.180   9.024   8.697 -0.2002  0.0711  0.1647
  107loPI    C1 1697  13.565   8.006  11.148 -0.1569 -0.0528  0.0812
  107loPI    C2 1698  13.904   8.191  11.253 -0.2633  0.0836  0.1890
  107loPI    C3 1699  13.737   7.924  11.500 -0.0546 -0.2389 -0.0107
  107loPI   PO4 1700  13.638   7.884  10.889  0.0394 -0.1668 -0.1336
  107loPI   GL1 1701  13.619   8.079  10.461  0.2227  0.3499  0.0428
  107loPI   GL2 1702  13.542   7.742  10.392 -0.4140  0.0976 -0.1543
  107loPI   C1A 1703  13.555   8.196  10.098 -0.3110 -0.0412  0.0443
  107loPI   C2A 1704  13.503   8.277   9.727 -0.0077 -0.0794  0.1967
  107loPI   C3A 1705  13.526   8.210   9.349  0.1754 -0.0134  0.0886
  107loPI   C4A 1706  13.469   8.258   8.961 -0.1214  0.2940 -0.0601
  107loPI   C5A 1707  13.455   8.298   8.488  0.3457 -0.1943  0.1996
  107loPI   C6A 1708  13.490   8.211   7.996 -0.2303 -0.0265  0.0931
  107loPI   C1B 1709  13.619   7.723   9.960  0.1129  0.2781  0.1053
  107loPI   C2B 1710  13.582   7.686   9.532 -0.1019 -0.0404  0.0293
  107loPI   C3B 1711  13.595   7.737   9.095 -0.1470  0.0200 -0.0708
  107loPI   C4B 1712  13.568   7.835   8.677 -0.1747 -0.0517 -0.2184
  108loPI    C1 1713   6.171   9.039  11.245 -0.2271  0.1953 -0.2758
  108loPI    C2 1714   6.228   9.214  11.600 -0.1739 -0.0206 -0.1763
  108loPI    C3 1715   5.857   9.148  11.467 -0.1984 -0.3085  0.0266
  108loPI   PO4 1716   6.248   9.153  11.081 -0.1022  0.1740  0.1992
  108loPI   GL1 1717   5.995   9.223  10.774  0.0667 -0.1463  0.1270
  108loPI   GL2 1718   5.744   9.410  10.568 -0.1062 -0.2305 -0.0563
  108loPI   C1A 1719   6.129   9.181  10.246  0.0439 -0.2438 -0.0442
  108loPI   C2A 1720   6.132   9.107   9.864  0.1997  0.2011  0.1228
  108loPI   C3A 1721   6.151   9.127   9.476 -0.1583  0.1703  0.1057
  108loPI   C4A 1722   6.201   9.075   9.021 -0.1460 -0.3436 -0.1620
  108loPI   C5A 1723   6.281   9.169   8.532  0.0575 -0.4120 -0.0641
  108loPI   C6A 1724   6.133   9.100   8.107 -0.0580 -0.0443 -0.0010
  108loPI   C1B 1725   5.690   9.331  10.083 -0.2307  0.2695  0.1034
  108loPI   C2B 1726   5.700   9.283   9.669 -0.2817 -0.0728  0.1024
  108loPI   C3B 1727   5.739   9.294   9.166 -0.2123  0.0185  0.0542
  108loPI   C4B 1728   5.761   9.182   8.717  0.3085  0.0511  0.0706
  109loPI    C1 1729   6.624   5.339  11.050  0.0007 -0.1718 -0.2187
  109loPI    C2 1730   6.930   5.462  10.824 -0.0444  0.0511 -0.1608
  109loPI    C3 1731   6.999   5.312  11.188 -0.0001  0.0509 -0.1692
  109loPI   PO4 1732   6.464   5.122  10.941  0.1491  0.0363  0.0451
  109loPI   GL1 1733   6.528   4.921  10.581  0.0448 -0.2050  0.2344
  109loPI   GL2 1734   6.267   4.802  10.309 -0.0980 -0.1744  0.1687
  109loPI   C1A 1735   6.611   5.106  10.129 -0.0183 -0.2120 -0.0242
  109loPI   C2A 1736   6.702   5.118   9.793 -0.4082 -0.0028 -0.0122
  109loPI   C3A 1737   6.734   5.119   9.339 -0.0823 -0.0125 -0.0463
  109loPI   C4A 1738   6.706   5.141   8.896  0.0425  0.2355  0.0905
  109loPI   C5A 1739   6.668   5.227   8.478 -0.1867  0.0288  0.2756
  109loPI   C6A 1740   6.533   4.986   8.123  0.3539  0.3949  0.1984
  109loPI   C1B 1741   6.260   4.699   9.873 -0.0253 -0.2050 -0.1623
  109loPI   C2B 1742   6.249   4.755   9.469  0.0535 -0.0726 -0.0564
  109loPI   C3B 1743   6.299   4.735   8.991  0.1963 -0.1530 -0.3721
  109loPI   C4B 1744   6.319   4.894   8.578 -0.1164  0.2509 -0.2000
  110loPI    C1 1745   5.542  13.600  11.240 -0.0832 -0.0081  0.1230
  110loPI    C2 1746   5.725  13.572  11.595 -0.2689 -0.1725  0.2080
  110loPI    C3 1747   5.416  13.822  11.548  0.1156  0.2808  0.0008
  110loPI   PO4 1748   5.746  13.697  11.009 -0.1185  0.1168  0.0733
  110loPI   GL1 1749   5.872  13.677  10.607 -0.0276 -0.1168 -0.0578
  110loPI   GL2 1750   5.563  13.456  10.501 -0.1988  0.2408  0.1544
  110loPI   C1A 1751   5.937  13.582  10.200  0.1784 -0.3011  0.2238
  110loPI   C2A 1752   5.832  13.542   9.752  0.0398  0.1250  0.1198
  110loPI   C3A 1753   5.859  13.577   9.367 -0.2145 -0.2365  0.0848
  110loPI   C4A 1754   5.705  13.547   8.961 -0.0090  0.1183 -0.1732
  110loPI   C5A 1755   5.813  13.564   8.498 -0.0469 -0.0386  0.0366
  110loPI   C6A 1756   5.755  13.329   8.124  0.1052 -0.2179  0.1508
  110loPI   C1B 1757   5.568  13.281  10.102 -0.1744 -0.0823  0.1383
  110loPI   C2B 1758   5.478  13.229   9.679  0.1963 -0.0550  0.0461
  110loPI   C3B 1759   5.437  13.188   9.217 -0.0823 -0.3420  0.3643
  110loPI   C4B 1760   5.303  13.210   8.766 -0.1114  0.1051 -0.2161
  111loPI    C1 1761   5.165   8.658  11.169  0.0141  0.1063 -0.1964
  111loPI    C2 1762   5.451   8.702  11.446 -0.0546 -0.0518 -0.0991
  111loPI    C3 1763   5.200   8.391  11.464 -0.1271 -0.0054 -0.2795
  111loPI   PO4 1764   5.214   8.711  10.942 -0.0265 -0.3704 -0.0620
  111loPI   GL1 1765   5.488   8.647  10.664 -0.0857  0.3866 -0.4956
  111loPI   GL2 1766   5.698   8.861  10.481  0.0354 -0.1707  0.0693
  111loPI   C1A 1767   5.434   8.528  10.249  0.0769  0.2554 -0.0807
  111loPI   C2A 1768   5.429   8.496   9.870 -0.0758  0.1003 -0.3826
  111loPI   C3A 1769   5.412   8.483   9.415 -0.0951  0.0947 -0.0563
  111loPI   C4A 1770   5.429   8.419   8.945  0.4376 -0.1966 -0.0958
  111loPI   C5A 1771   5.348   8.357   8.542 -0.1411 -0.1278  0.0528
  111loPI   C6A 1772   5.347   8.167   8.061  0.1568 -0.0784  0.3248
  111loPI   C1B 1773   5.778   8.838  10.056 -0.1958 -0.0378  0.2040
  111loPI   C2B 1774   5.765   8.802   9.668  0.2113 -0.1786  0.0446
  111loPI   C3B 1775   5.820   8.813   9.201  0.4684  0.1278 -0.0283
  111loPI   C4B 1776   5.848   8.683   8.782  0.1233 -0.1260 -0.0759
  112loPI    C1 1777   4.498  17.946  10.526  0.2420 -0.0295 -0.0791
  112loPI    C2 1778   4.514  18.185  10.846  0.2376 -0.0723 -0.0468
  112loPI    C3 1779   4.523  17.788  10.893 -0.2146 -0.0903 -0.0685
  112loPI   PO4 1780   4.381  18.080  10.280 -0.1028  0.1111 -0.3909
  112loPI   GL1 1781   4.390  17.906   9.975 -0.0995  0.0666  0.2299
  112loPI   GL2 1782   4.684  17.860   9.811 -0.0562  0.1026  0.1228
  112loPI   C1A 1783   3.978  17.859   9.736  0.3051  0.0054 -0.0390
  112loPI   C2A 1784   3.865  17.833   9.320 -0.0009 -0.3266 -0.1319
  112loPI   C3A 1785   3.910  17.896   8.890 -0.2892  0.0319  0.0392
  112loPI   C4A 1786   3.883  17.859   8.436  0.1704 -0.3246  0.1596
  112loPI   C5A 1787   3.604  17.923   7.935  0.2311  0.1569 -0.4278
  112loPI   C6A 1788   3.598  17.678   7.661  0.1791  0.0673  0.0647
  112loPI   C1B 1789   4.688  17.826   9.351  0.2628  0.4202 -0.0007
  112loPI   C2B 1790   4.685  17.969   8.930 -0.3228 -0.2619 -0.4006
  112loPI   C3B 1791   4.780  17.952   8.458 -0.0830  0.4176  0.2218
  112loPI   C4B 1792   4.990  17.919   7.983  0.2675 -0.2289 -0.4072
  113loPI    C1 1793  17.705  12.067  10.872 -0.1169 -0.1345  0.1315
  113loPI    C2 1794  17.832  11.836  11.173  0.0997 -0.0707  0.0908
  113loPI    C3 1795  17.535  12.097  11.233 -0.0145 -0.2214  0.1873
  113loPI   PO4 1796  17.942  12.126  10.790  0.0656 -0.1149 -0.1904
  113loPI   GL1 1797  18.040  12.100  10.370 -0.2750 -0.3095  0.1015
  113loPI   GL2 1798  18.130  11.807  10.444  0.0429  0.0212 -0.1436
  113loPI   C1A 1799  18.135  12.188   9.961  0.4455 -0.0594 -0.1541
  113loPI   C2A 1800  18.238  12.133   9.599  0.3271  0.0271 -0.1231
  113loPI   C3A 1801  18.176  12.153   9.173 -0.0722  0.2456  0.1169
  113loPI   C4A 1802  18.122  12.155   8.784 -0.0651 -0.0165 -0.2817
  113loPI   C5A 1803  18.175  11.999   8.415 -0.1113  0.0793  0.3170
  113loPI   C6A 1804  18.331  11.634   8.201 -0.2939  0.1208 -0.1037
  113loPI   C1B 1805  18.212  11.727  10.008 -0.2687 -0.1257 -0.0600
  113loPI   C2B 1806  18.248  11.641   9.592 -0.2868 -0.2152  0.1073
  113loPI   C3B 1807  18.247  11.665   9.207 -0.2864 -0.1444 -0.2517
  113loPI   C4B 1808  18.200  11.641   8.742 -0.3573 -0.1305 -0.1538
  114loPI    C1 1809   4.044  17.798  10.854 -0.1250  0.0757 -0.1342
  114loPI    C2 1810   3.926  17.883  11.227 -0.1246 -0.1614 -0.0783
  114loPI    C3 1811   4.038  18.178  10.980  0.0299 -0.0161  0.1604
  114loPI   PO4 1812   3.890  17.619  10.749 -0.3452  0.1958 -0.3279
  114loPI   GL1 1813   3.651  17.586  10.202 -0.0126  0.0017 -0.2308
  114loPI   GL2 1814   3.423  17.614   9.944 -0.0348  0.1557  0.3885
  114loPI   C1A 1815   3.894  17.312  10.024 -0.0805 -0.1001  0.1444
  114loPI   C2A 1816   3.823  17.336   9.658 -0.1244 -0.0196  0.0571
  114loPI   C3A 1817   3.921  17.177   9.203 -0.2705 -0.0843  0.0052
  114loPI   C4A 1818   3.862  17.329   8.831  0.3706  0.1631  0.0454
  114loPI   C5A 1819   3.807  17.359   8.412 -0.0126  0.1988  0.1337
  114loPI   C6A 1820   3.855  17.406   7.986 -0.1942  0.1151 -0.1241
  114loPI   C1B 1821   3.398  17.636   9.498  0.0895 -0.0149 -0.1763
  114loPI   C2B 1822   3.433  17.550   9.133 -0.0318 -0.3842 -0.4231
  114loPI   C3B 1823   3.489  17.620   8.757 -0.0888 -0.1663  0.0569
  114loPI   C4B 1824   3.358  17.650   8.388  0.0889 -0.2256 -0.4005
  115loPI    C1 1825   5.687  12.790  11.139  0.0717 -0.2190 -0.0378
  115loPI    C2 1826   5.341  12.924  11.288  0.1088  0.0053 -0.1504
  115loPI    C3 1827   5.678  13.130  11.348  0.2304 -0.2306 -0.0114
  115loPI   PO4 1828   5.637  12.707  10.906  0.1733 -0.1545 -0.0013
  115loPI   GL1 1829   5.851  12.469  10.603  0.4268  0.0132 -0.2920
  115loPI   GL2 1830   6.065  12.549  10.417 -0.3257 -0.2560 -0.0053
  115loPI   C1A 1831   5.712  12.242  10.286 -0.2027  0.0547 -0.0525
  115loPI   C2A 1832   5.664  12.165   9.830 -0.0449  0.2866  0.1580
  115loPI   C3A 1833   5.644  12.232   9.380 -0.0561  0.2620  0.2864
  115loPI   C4A 1834   5.686  12.095   8.935  0.0545  0.1842  0.0750
  115loPI   C5A 1835   5.590  12.074   8.457 -0.2008  0.1460 -0.1719
  115loPI   C6A 1836   5.456  11.764   8.055 -0.1119 -0.2549 -0.0467
  115loPI   C1B 1837   6.020  12.504  10.004  0.1578 -0.0135 -0.0360
  115loPI   C2B 1838   6.014  12.563   9.612  0.0523 -0.1863 -0.0249
  115loPI   C3B 1839   6.039  12.540   9.167 -0.1967 -0.1869 -0.1429
  115loPI   C4B 1840   5.951  12.515   8.789 -0.2016  0.5765  0.1574
  116loPI    C1 1841   4.333  15.174  10.946  0.0243 -0.1648 -0.3189
  116loPI    C2 1842   4.099  15.046  11.244 -0.0784  0.4508 -0.1194
  116loPI    C3 1843   4.494  14.991  11.263 -0.1337  0.0117 -0.1332
  116loPI   PO4 1844   4.337  15.142  10.647 -0.0514  0.1542 -0.1822
  116loPI   GL1 1845   4.453  15.285  10.295 -0.1564  0.0788 -0.3100
  116loPI   GL2 1846   4.455  15.613  10.256 -0.1676  0.0404 -0.0043
  116loPI   C1A 1847   4.198  15.136   9.956  0.0962 -0.1162  0.0026
  116loPI   C2A 1848   4.204  15.044   9.419 -0.2218 -0.1582 -0.4030
  116loPI   C3A 1849   4.160  15.042   8.971  0.1574 -0.1860 -0.0667
  116loPI   C4A 1850   4.216  14.930   8.555 -0.0178 -0.0926 -0.3664
  116loPI   C5A 1851   4.154  14.895   8.166 -0.0951  0.1058  0.0880
  116loPI   C6A 1852   4.093  14.793   7.696 -0.2731  0.0973  0.0099
  116loPI   C1B 1853   4.081  15.613   9.942 -0.0674 -0.0501  0.0125
  116loPI   C2B 1854   4.112  15.566   9.472  0.1925  0.1320 -0.0030
  116loPI   C3B 1855   4.092  15.569   8.982  0.0782 -0.1574  0.1636
  116loPI   C4B 1856   4.108  15.409   8.581  0.2017  0.0249  0.2599
  117loPI    C1 1857  16.258   7.172  10.873  0.0112  0.1331 -0.0736
  117loPI    C2 1858  16.568   7.143  11.125 -0.0098 -0.0389 -0.0664
  117loPI    C3 1859  16.225   6.953  11.206 -0.1175  0.1480 -0.0759
  117loPI   PO4 1860  16.368   7.113  10.638  0.4614  0.0625 -0.2781
  117loPI   GL1 1861  16.497   7.116  10.327  0.0281 -0.1559 -0.0477
  117loPI   GL2 1862  16.802   6.949  10.270  0.1070  0.1894  0.1091
  117loPI   C1A 1863  16.408   7.192   9.958 -0.2155 -0.1097 -0.0767
  117loPI   C2A 1864  16.313   7.198   9.549  0.3303  0.2384  0.0176
  117loPI   C3A 1865  16.267   7.219   9.114  0.2385 -0.1187  0.1737
  117loPI   C4A 1866  16.255   7.223   8.703  0.0758 -0.1415  0.0820
  117loPI   C5A 1867  16.205   7.279   8.302  0.0302 -0.1828 -0.1926
  117loPI   C6A 1868  16.048   7.629   8.035  0.0125 -0.0403  0.1268
  117loPI   C1B 1869  16.860   7.001   9.790  0.3340  0.1825 -0.0184
  117loPI   C2B 1870  16.729   7.049   9.352 -0.0037  0.2371 -0.3865
  117loPI   C3B 1871  16.758   7.051   8.885 -0.0053 -0.0231  0.1470
  117loPI   C4B 1872  16.720   7.035   8.425 -0.2500 -0.1203  0.1258
  118loPI    C1 1873   8.912   6.136  11.111 -0.0967  0.2385  0.0324
  118loPI    C2 1874   9.060   5.772  11.185 -0.1517  0.2261  0.0827
  118loPI    C3 1875   9.177   6.085  11.406 -0.0167  0.2603 -0.0352
  118loPI   PO4 1876   8.884   6.152  10.888 -0.2739  0.0309 -0.2016
  118loPI   GL1 1877   8.998   6.059  10.543  0.1799 -0.0300  0.2930
  118loPI   GL2 1878   8.880   5.771  10.543 -0.3692 -0.0171 -0.1598
  118loPI   C1A 1879   8.839   6.135  10.161  0.0664  0.1393 -0.1279
  118loPI   C2A 1880   8.903   6.221   9.793 -0.2258 -0.0695  0.1287
  118loPI   C3A 1881   8.853   6.159   9.399  0.2282 -0.1203 -0.1194
  118loPI   C4A 1882   8.722   6.174   8.967  0.1898  0.2311 -0.1596
  118loPI   C5A 1883   8.734   6.234   8.616  0.4097  0.0494  0.2398
  118loPI   C6A 1884   8.972   6.327   8.247  0.2551 -0.3866 -0.1104
  118loPI   C1B 1885   8.945   5.607  10.110  0.0845 -0.0336  0.0794
  118loPI   C2B 1886   8.909   5.723   9.709 -0.2711 -0.2319 -0.2424
  118loPI   C3B 1887   8.876   5.661   9.335 -0.1269 -0.0982  0.0737
  118loPI   C4B 1888   8.837   5.669   8.853 -0.0750  0.0381  0.1806
  119loPI    C1 1889  15.306   8.261  11.192  0.1735  0.1192 -0.0070
  119loPI    C2 1890  15.386   8.021  11.501 -0.0727 -0.0408 -0.0644
  119loPI    C3 1891  15.612   8.344  11.435  0.3337 -0.3151 -0.0521
  119loPI   PO4 1892  15.392   8.143  10.924  0.1314 -0.0171 -0.1029
  119loPI   GL1 1893  15.387   8.250  10.558 -0.0130  0.3669  0.0277
  119loPI   GL2 1894  15.271   7.928  10.503  0.0999 -0.1318  0.1048
  119loPI   C1A 1895  15.337   8.536  10.156 -0.2840  0.0124 -0.1053
  119loPI   C2A 1896  15.242   8.534   9.748  0.3028 -0.1663  0.0109
  119loPI   C3A 1897  15.223   8.540   9.314 -0.1170 -0.2745  0.1162
  119loPI   C4A 1898  15.174   8.527   8.857  0.0055 -0.1168  0.0639
  119loPI   C5A 1899  15.144   8.547   8.482 -0.1044  0.0521  0.0035
  119loPI   C6A 1900  15.315   8.140   8.226 -0.0005  0.0402 -0.0223
  119loPI   C1B 1901  15.390   8.054  10.024  0.0294  0.1901 -0.0191
  119loPI   C2B 1902  15.304   8.055   9.552 -0.1291  0.0036  0.1572
  119loPI   C3B 1903  15.308   8.058   9.120 -0.3488 -0.0140 -0.2051
  119loPI   C4B 1904  15.256   8.040   8.717  0.0592 -0.3756 -0.1396
  120loPI    C1 1905  15.725  13.448  11.263  0.1333 -0.0792  0.0676
  120loPI    C2 1906  15.605  13.828  11.295  0.3688 -0.0111  0.1658
  120loPI    C3 1907  15.399  13.538  11.476  0.0105  0.0301 -0.1627
  120loPI   PO4 1908  15.700  13.387  11.030  0.1611 -0.0861  0.0376
  120loPI   GL1 1909  15.826  13.232  10.639 -0.2429  0.2676 -0.0508
  120loPI   GL2 1910  16.154  13.012  10.597  0.0037 -0.0332 -0.1334
  120loPI   C1A 1911  15.826  13.119  10.231  0.0455 -0.1896 -0.2437
  120loPI   C2A 1912  15.788  13.041   9.924 -0.0444 -0.0747  0.2538
  120loPI   C3A 1913  15.805  13.209   9.544  0.2259  0.2489  0.3022
  120loPI   C4A 1914  15.747  13.089   9.112 -0.1760 -0.2895  0.0907
  120loPI   C5A 1915  15.777  13.082   8.763  0.0042  0.0195 -0.2220
  120loPI   C6A 1916  15.594  13.065   8.383 -0.0901 -0.0022 -0.2545
  120loPI   C1B 1917  16.284  12.915  10.193 -0.1053 -0.0827 -0.3505
  120loPI   C2B 1918  16.215  12.882   9.736  0.2884 -0.0014  0.1291
  120loPI   C3B 1919  16.275  12.937   9.262 -0.1210 -0.2290 -0.2327
  120loPI   C4B 1920  16.199  12.805   8.796  0.1562 -0.1496 -0.0335
  121loPI    C1 1921  16.766  10.820  11.088 -0.0328  0.1172 -0.0239
  121loPI    C2 1922  16.603  10.458  11.131  0.1124  0.0313 -0.1817
  121loPI    C3 1923  16.857  10.597  11.407 -0.2623  0.1883  0.0929
  121loPI   PO4 1924  16.748  10.859  10.842 -0.3454 -0.0690  0.0701
  121loPI   GL1 1925  16.571  11.071  10.587  0.2664 -0.0374  0.2106
  121loPI   GL2 1926  16.210  11.221  10.529 -0.1355  0.1071  0.1383
  121loPI   C1A 1927  16.621  10.883  10.144  0.2398  0.0110  0.0280
  121loPI   C2A 1928  16.624  10.889   9.703  0.1171 -0.0286  0.1105
  121loPI   C3A 1929  16.584  10.835   9.274  0.1238 -0.2702  0.1788
  121loPI   C4A 1930  16.672  10.855   8.843 -0.1008 -0.1504 -0.1034
  121loPI   C5A 1931  16.586  10.684   8.462 -0.1192 -0.0096  0.1968
  121loPI   C6A 1932  16.489  10.636   8.057  0.0778  0.1643 -0.0412
  121loPI   C1B 1933  16.154  11.072  10.050  0.2102 -0.1311 -0.0440
  121loPI   C2B 1934  16.131  11.078   9.548 -0.1440  0.1856  0.4356
  121loPI   C3B 1935  16.160  11.005   9.070 -0.0308  0.1846  0.0203
  121loPI   C4B 1936  16.098  11.006   8.700 -0.1543 -0.3027  0.0429
  122loPI    C1 1937  12.147   5.830  11.060  0.0599  0.2428  0.1931
  122loPI    C2 1938  12.279   5.720  11.421  0.0542  0.2892  0.2094
  122loPI    C3 1939  12.140   6.090  11.364  0.0661  0.2856  0.1567
  122loPI   PO4 1940  12.273   5.827  10.893  0.0254  0.1611 -0.2079
  122loPI   GL1 1941  12.262   5.945  10.552  0.1459  0.1463 -0.1137
  122loPI   GL2 1942  12.058   5.812  10.332 -0.1001 -0.3808 -0.1439
  122loPI   C1A 1943  12.374   6.234  10.307 -0.1627  0.0767  0.1016
  122loPI   C2A 1944  12.440   6.312   9.948  0.2001 -0.0155  0.0775
  122loPI   C3A 1945  12.465   6.259   9.476  0.1176 -0.0002 -0.0606
  122loPI   C4A 1946  12.356   6.266   8.996  0.0003 -0.0195  0.2639
  122loPI   C5A 1947  12.409   6.176   8.565 -0.2538  0.0334 -0.2714
  122loPI   C6A 1948  12.260   5.880   8.198 -0.1673  0.1356 -0.4122
  122loPI   C1B 1949  12.111   5.943   9.870 -0.5084  0.4006  0.0159
  122loPI   C2B 1950  12.025   5.894   9.452 -0.0511  0.1329 -0.0274
  122loPI   C3B 1951  11.991   5.977   9.046  0.3314  0.1306  0.1223
  122loPI   C4B 1952  12.004   5.928   8.627  0.3161 -0.2690 -0.1105
  123loPI    C1 1953   4.604  12.554  11.158 -0.1701 -0.2135  0.2637
  123loPI    C2 1954   4.938  12.564  11.379 -0.0384  0.0752  0.0585
  123loPI    C3 1955   4.610  12.756  11.504 -0.0649 -0.0349  0.1596
  123loPI   PO4 1956   4.625  12.584  10.891 -0.2165 -0.1242  0.2092
  123loPI   GL1 1957   4.646  12.451  10.528 -0.1683 -0.1781  0.0775
  123loPI   GL2 1958   4.855  12.660  10.439 -0.0993  0.1075  0.2473
  123loPI   C1A 1959   4.399  12.326  10.179  0.0215  0.0922 -0.3765
  123loPI   C2A 1960   4.360  12.239   9.761 -0.1718 -0.0542  0.0950
  123loPI   C3A 1961   4.337  12.171   9.396 -0.0742  0.1157 -0.1958
  123loPI   C4A 1962   4.273  12.171   8.928 -0.0265  0.2392  0.2285
  123loPI   C5A 1963   4.223  12.155   8.502 -0.1242  0.1486 -0.1317
  123loPI   C6A 1964   4.108  12.505   8.238  0.0349  0.0079  0.1048
  123loPI   C1B 1965   4.770  12.560   9.984 -0.1538 -0.1066  0.0178
  123loPI   C2B 1966   4.682  12.548   9.507  0.0150  0.0296  0.3215
  123loPI   C3B 1967   4.566  12.525   9.106  0.0594 -0.0580 -0.0345
  123loPI   C4B 1968   4.653  12.430   8.745  0.3132 -0.1568 -0.0550
  124loPI    C1 1969   8.309   7.422  11.352 -0.1099  0.0633  0.0809
  124loPI    C2 1970   8.594   7.351  11.623 -0.0059 -0.2278 -0.1008
  124loPI    C3 1971   8.260   7.130  11.621 -0.1026 -0.0828 -0.0746
  124loPI   PO4 1972   8.386   7.408  11.110  0.0975  0.0280 -0.2451
  124loPI   GL1 1973   8.516   7.286  10.728 -0.2395 -0.0283  0.0513
  124loPI   GL2 1974   8.565   7.001  10.621 -0.0949 -0.1389  0.1911
  124loPI   C1A 1975   8.220   7.420  10.341  0.0148 -0.0760  0.0069
  124loPI   C2A 1976   8.179   7.221   9.916 -0.1958 -0.0058 -0.0076
  124loPI   C3A 1977   8.245   7.425   9.506 -0.3003 -0.0455  0.1347
  124loPI   C4A 1978   8.214   7.380   9.065 -0.2992 -0.1622 -0.1398
  124loPI   C5A 1979   8.260   7.267   8.663 -0.0342  0.1128  0.3380
  124loPI   C6A 1980   8.235   7.124   8.320  0.0186 -0.2368 -0.1064
  124loPI   C1B 1981   8.620   7.143  10.193 -0.0465  0.0087 -0.2702
  124loPI   C2B 1982   8.752   7.095   9.722 -0.0918 -0.3622 -0.1124
  124loPI   C3B 1983   8.657   7.150   9.316 -0.1626 -0.0541  0.2366
  124loPI   C4B 1984   8.673   7.218   8.883  0.3583  0.1924  0.2663
  125loPI    C1 1985   5.760   7.224  11.578 -0.2023 -0.0140 -0.2675
  125loPI    C2 1986   5.631   6.865  11.699 -0.0617  0.0122 -0.0345
  125loPI    C3 1987   5.802   7.115  11.961 -0.0900  0.2198 -0.2116
  125loPI   PO4 1988   5.896   7.150  11.378  0.0058 -0.0675 -0.2408
  125loPI   GL1 1989   5.725   7.002  10.917 -0.0849  0.1558 -0.2019
  125loPI   GL2 1990   5.488   7.106  10.711 -0.0767 -0.2311  0.1034
  125loPI   C1A 1991   6.060   6.918  10.578  0.1127 -0.0874  0.0074
  125loPI   C2A 1992   6.123   6.779  10.144  0.0363 -0.0248 -0.0509
  125loPI   C3A 1993   6.050   6.719   9.780  0.2933 -0.2221  0.1152
  125loPI   C4A 1994   6.073   6.802   9.344  0.1560  0.0019  0.3522
  125loPI   C5A 1995   6.131   6.784   8.915 -0.2258 -0.3145  0.3313
  125loPI   C6A 1996   6.360   6.994   8.632 -0.1190 -0.2253  0.2301
  125loPI   C1B 1997   5.575   7.040  10.315  0.0015  0.2096 -0.0419
  125loPI   C2B 1998   5.607   6.987   9.870 -0.2252  0.0566  0.0939
  125loPI   C3B 1999   5.611   6.973   9.451 -0.1332  0.3912  0.1107
  125loPI   C4B 2000   5.625   6.959   9.009 -0.1370 -0.2407  0.1646
  126loPI    C1 2001   4.675   8.040  11.305 -0.0109  0.1489 -0.0316
  126loPI    C2 2002   4.741   8.421  11.205  0.2526  0.1428  0.1108
  126loPI    C3 2003   4.706   8.318  11.590 -0.1430  0.0709  0.0601
  126loPI   PO4 2004   4.705   7.956  11.025 -0.1142 -0.1883 -0.0133
  126loPI   GL1 2005   4.685   8.206  10.717  0.5038  0.1221 -0.2132
  126loPI   GL2 2006   4.848   8.428  10.713  0.1264 -0.1548 -0.1710
  126loPI   C1A 2007   4.570   7.925  10.403 -0.2485 -0.0123 -0.1784
  126loPI   C2A 2008   4.550   7.914   9.942  0.2434  0.0704 -0.0564
  126loPI   C3A 2009   4.529   7.898   9.520  0.0945 -0.3108  0.1857
  126loPI   C4A 2010   4.594   7.882   9.078 -0.0877  0.1108 -0.2363
  126loPI   C5A 2011   4.697   8.001   8.566  0.0025  0.2248  0.0170
  126loPI   C6A 2012   4.815   8.298   8.439  0.2792 -0.2525 -0.1595
  126loPI   C1B 2013   5.000   8.230  10.350 -0.1591  0.6671 -0.0299
  126loPI   C2B 2014   4.974   8.204   9.877  0.0945 -0.0026  0.0309
  126loPI   C3B 2015   4.990   8.183   9.444  0.4001 -0.1343 -0.0235
  126loPI   C4B 2016   5.005   8.161   9.016  0.1740  0.1826 -0.3171
  127loPI    C1 2017   3.887  11.968  11.215 -0.2865  0.0462  0.0816
  127loPI    C2 2018   3.872  11.655  11.463  0.2396  0.1230  0.2234
  127loPI    C3 2019   3.901  12.025  11.610  0.0492  0.2090  0.0499
  127loPI   PO4 2020   4.044  11.899  11.049  0.1332 -0.1837  0.1497
  127loPI   GL1 2021   4.015  11.859  10.613 -0.0555  0.2909  0.1608
  127loPI   GL2 2022   4.069  11.514  10.470  0.2044  0.1107  0.2580
  127loPI   C1A 2023   3.913  11.919  10.224  0.1512 -0.0312  0.0284
  127loPI   C2A 2024   3.975  11.924   9.822 -0.0685 -0.0811  0.0268
  127loPI   C3A 2025   3.936  11.836   9.391 -0.0924  0.2163  0.0127
  127loPI   C4A 2026   3.852  11.747   8.999  0.1207 -0.0616  0.2812
  127loPI   C5A 2027   3.899  11.774   8.625 -0.3581 -0.0463  0.2443
  127loPI   C6A 2028   3.674  11.736   8.341  0.0782 -0.1194 -0.1132
  127loPI   C1B 2029   3.965  11.487  10.068 -0.2329 -0.1998 -0.1186
  127loPI   C2B 2030   3.976  11.346   9.616  0.1480  0.0522 -0.2876
  127loPI   C3B 2031   3.990  11.359   9.200  0.3900 -0.2598 -0.1273
  127loPI   C4B 2032   4.002  11.277   8.805 -0.0820  0.1998 -0.1216
  128loPI    C1 2033  16.932   8.960  11.098 -0.1252  0.1338  0.0015
  128loPI    C2 2034  17.148   9.093  11.407 -0.0747  0.0810 -0.0109
  128loPI    C3 2035  17.177   8.710  11.292  0.0346  0.1411 -0.1873
  128loPI   PO4 2036  17.017   9.198  10.900  0.1798  0.1566  0.0253
  128loPI   GL1 2037  17.240   9.163  10.497  0.0366  0.0563  0.0925
  128loPI   GL2 2038  16.996   9.299  10.418 -0.0452  0.3839 -0.2306
  128loPI   C1A 2039  17.428   9.119  10.051 -0.0262 -0.0452 -0.0376
  128loPI   C2A 2040  17.345   9.124   9.508  0.1752  0.1537 -0.0590
  128loPI   C3A 2041  17.352   9.159   9.066 -0.0519 -0.0709  0.1782
  128loPI   C4A 2042  17.237   9.229   8.606 -0.1706 -0.1222 -0.1111
  128loPI   C5A 2043  17.319   9.190   8.195  0.0814  0.2983 -0.1327
  128loPI   C6A 2044  17.651   9.135   7.965  0.1334  0.0255  0.0900
  128loPI   C1B 2045  16.954   9.325   9.843 -0.1876 -0.1178 -0.0994
  128loPI   C2B 2046  16.843   9.367   9.328 -0.0904  0.2791  0.2747
  128loPI   C3B 2047  16.783   9.378   8.823 -0.0920  0.3663  0.1231
  128loPI   C4B 2048  16.697   9.427   8.405 -0.1837 -0.1610 -0.4207
  129loPI    C1 2049  10.374   0.818  10.778  0.0000  0.0314  0.1439
  129loPI    C2 2050  10.048   1.016  10.899  0.1239  0.2076  0.1938
  129loPI    C3 2051  10.397   1.071  11.087  0.2042  0.0929  0.0803
  129loPI   PO4 2052  10.345   0.759  10.528  0.0169 -0.0999 -0.1626
  129loPI   GL1 2053  10.412   0.498  10.204 -0.5258 -0.2350  0.1890
  129loPI   GL2 2054  10.156   0.368  10.023  0.1319 -0.0660  0.0312
  129loPI   C1A 2055  10.603   0.617   9.919 -0.3406 -0.0928  0.2121
  129loPI   C2A 2056  10.740   0.594   9.476 -0.0137 -0.1287  0.0374
  129loPI   C3A 2057  10.694   0.680   8.997 -0.2914 -0.0495  0.0126
  129loPI   C4A 2058  10.642   0.768   8.508 -0.0022 -0.1848 -0.2892
  129loPI   C5A 2059  10.683   0.615   7.964 -0.0741 -0.0251  0.0361
  129loPI   C6A 2060  10.696   0.524   7.506 -0.0857  0.2240 -0.1692
  129loPI   C1B 2061  10.356   0.271   9.574  0.0300  0.0359 -0.3588
  129loPI   C2B 2062  10.416   0.278   9.193  0.0300  0.1895  0.0179
  129loPI   C3B 2063  10.297   0.443   8.736  0.0181  0.3146 -0.3377
  129loPI   C4B 2064  10.264   0.455   8.230  0.1819  0.2626 -0.2176
  130loPI    C1 2065   3.260  10.987  11.130 -0.0119  0.0403  0.0089
  130loPI    C2 2066   3.168  11.021  11.518  0.0190  0.1433  0.0074
  130loPI    C3 2067   3.167  10.662  11.343 -0.1346  0.1136  0.0682
  130loPI   PO4 2068   3.027  11.151  11.031  0.2348 -0.0983 -0.3182
  130loPI   GL1 2069   2.989  11.228  10.705 -0.4007 -0.0839  0.0063
  130loPI   GL2 2070   3.308  11.389  10.663 -0.1030 -0.1511  0.1068
  130loPI   C1A 2071   3.076  11.108  10.214  0.1302 -0.0169 -0.1848
  130loPI   C2A 2072   3.163  11.165   9.781 -0.0664 -0.0355 -0.2832
  130loPI   C3A 2073   3.135  11.202   9.257 -0.0082  0.2792  0.0251
  130loPI   C4A 2074   3.051  11.154   8.848 -0.1795  0.1703  0.0815
  130loPI   C5A 2075   3.164  11.266   8.425  0.1948 -0.1003 -0.1817
  130loPI   C6A 2076   3.371  11.544   8.027 -0.0500 -0.0301 -0.2709
  130loPI   C1B 2077   3.489  11.491  10.240 -0.0921 -0.3606 -0.1554
  130loPI   C2B 2078   3.538  11.515   9.809 -0.0624 -0.0372 -0.2521
  130loPI   C3B 2079   3.536  11.537   9.390 -0.4476  0.0798  0.2451
  130loPI   C4B 2080   3.405  11.528   8.877  0.1938  0.0250 -0.1513
  131loPI    C1 2081  14.180   7.975  10.865  0.1023 -0.0809 -0.2535
  131loPI    C2 2082  14.322   7.602  10.848  0.0025 -0.1328  0.0111
  131loPI    C3 2083  14.554   7.898  10.983 -0.0124 -0.1501  0.0752
  131loPI   PO4 2084  14.051   7.946  10.609  0.1077 -0.0117  0.1305
  131loPI   GL1 2085  14.079   7.657  10.244  0.1944 -0.1422  0.1200
  131loPI   GL2 2086  14.084   7.978  10.138  0.0016 -0.1663  0.3118
  131loPI   C1A 2087  14.074   7.513   9.826  0.1740  0.0044  0.2475
  131loPI   C2A 2088  14.038   7.519   9.338  0.2250 -0.2827  0.0772
  131loPI   C3A 2089  13.999   7.560   8.862  0.1802  0.0977  0.2294
  131loPI   C4A 2090  14.075   7.471   8.384 -0.1369  0.1083 -0.1816
  131loPI   C5A 2091  14.318   7.223   8.088  0.1925 -0.0373 -0.1993
  131loPI   C6A 2092  14.249   6.820   7.954 -0.2191 -0.0586 -0.0619
  131loPI   C1B 2093  13.929   8.031   9.709 -0.1037 -0.2486 -0.2292
  131loPI   C2B 2094  13.962   8.056   9.251 -0.0276 -0.0471  0.2084
  131loPI   C3B 2095  13.953   8.043   8.871 -0.1692 -0.2624 -0.1480
  131loPI   C4B 2096  13.946   7.984   8.410  0.2614  0.0743  0.0187
  132loPI    C1 2097   4.699  14.537  10.996 -0.0774 -0.2149  0.1325
  132loPI    C2 2098   5.017  14.354  11.155 -0.0145 -0.1991  0.0255
  132loPI    C3 2099   4.933  14.731  11.256  0.1622 -0.1091 -0.1571
  132loPI   PO4 2100   4.712  14.525  10.728 -0.1674 -0.2311 -0.1273
  132loPI   GL1 2101   4.834  14.423  10.357 -0.0403  0.0247 -0.1313
  132loPI   GL2 2102   4.827  14.225  10.266 -0.2650  0.1072 -0.1181
  132loPI   C1A 2103   4.839  14.405   9.837 -0.1958  0.3124  0.2392
  132loPI   C2A 2104   4.805  14.306   9.396  0.1122  0.3045 -0.1018
  132loPI   C3A 2105   4.734  14.432   9.020 -0.0349  0.0211  0.0079
  132loPI   C4A 2106   4.503  14.430   8.603 -0.0505  0.1179 -0.1396
  132loPI   C5A 2107   4.088  14.430   8.427 -0.0415  0.1579 -0.0065
  132loPI   C6A 2108   3.753  14.579   8.440  0.1797  0.0306  0.0537
  132loPI   C1B 2109   4.944  13.908   9.938  0.1458  0.1063  0.1297
  132loPI   C2B 2110   4.839  13.796   9.447 -0.3639  0.1292 -0.0895
  132loPI   C3B 2111   4.838  13.945   8.995 -0.1500  0.3455 -0.1140
  132loPI   C4B 2112   4.788  13.790   8.492 -0.0001  0.0722 -0.2562
  133loPI    C1 2113  11.820   6.098  10.777 -0.1494  0.0563 -0.1331
  133loPI    C2 2114  11.577   6.415  10.767 -0.0713  0.1305  0.2038
  133loPI    C3 2115  11.700   6.268  11.118  0.1930 -0.0432  0.0422
  133loPI   PO4 2116  11.720   5.977  10.603 -0.1227  0.0564  0.0168
  133loPI   GL1 2117  11.573   6.115  10.245 -0.2760  0.1787  0.0494
  133loPI   GL2 2118  11.311   6.094  10.337  0.3296 -0.2917 -0.3672
  133loPI   C1A 2119  11.613   6.072   9.825 -0.0167  0.2526  0.2088
  133loPI   C2A 2120  11.520   6.088   9.457  0.2128 -0.1183  0.1058
  133loPI   C3A 2121  11.518   6.131   8.954 -0.0676 -0.3095 -0.0807
  133loPI   C4A 2122  11.519   6.131   8.549  0.0035 -0.1922  0.2106
  133loPI   C5A 2123  11.153   6.170   8.217 -0.3106 -0.0955  0.2658
  133loPI   C6A 2124  10.919   6.494   8.159  0.2314  0.1071 -0.2677
  133loPI   C1B 2125  11.226   5.853   9.907 -0.0164  0.1511 -0.0162
  133loPI   C2B 2126  11.127   5.688   9.488  0.3093 -0.1292 -0.0554
  133loPI   C3B 2127  11.154   5.778   9.068 -0.1190  0.0250 -0.0829
  133loPI   C4B 2128  11.126   5.856   8.639  0.0200 -0.0771 -0.1891
  134loPI    C1 2129  13.484  11.172  11.239 -0.2113 -0.0771 -0.2607
  134loPI    C2 2130  13.474  11.097  11.631  0.1625 -0.0747 -0.2478
  134loPI    C3 2131  13.135  11.100  11.420 -0.0519  0.0133  0.0903
  134loPI   PO4 2132  13.737  11.092  11.131  0.0839  0.0558 -0.3755
  134loPI   GL1 2133  13.865  11.082  10.783  0.0246  0.2843 -0.1075
  134loPI   GL2 2134  14.091  10.967  10.700 -0.2611  0.0097 -0.0726
  134loPI   C1A 2135  13.801  11.439  10.393 -0.3086 -0.2588 -0.1138
  134loPI   C2A 2136  13.834  11.466   9.915  0.0281  0.0355  0.1318
  134loPI   C3A 2137  13.883  11.514   9.386 -0.2948 -0.0768 -0.0792
  134loPI   C4A 2138  13.770  11.462   8.842 -0.0366  0.0473 -0.0168
  134loPI   C5A 2139  13.830  11.223   8.523 -0.2350  0.0816 -0.2651
  134loPI   C6A 2140  13.752  11.329   8.127 -0.0083 -0.3329 -0.1923
  134loPI   C1B 2141  13.933  10.969  10.312 -0.0091  0.1417 -0.0771
  134loPI   C2B 2142  13.878  10.902   9.838 -0.0098 -0.1602 -0.1905
  134loPI   C3B 2143  13.900  10.938   9.406 -0.0738  0.0247 -0.0437
  134loPI   C4B 2144  13.909  10.976   8.954  0.0652 -0.1362  0.1376
  135loPI    C1 2145  15.740   9.879  11.002 -0.2833 -0.1183 -0.1651
  135loPI    C2 2146  15.880   9.569  11.212  0.1569  0.0932 -0.1332
  135loPI    C3 2147  15.743   9.893  11.402 -0.1521 -0.0123 -0.1691
  135loPI   PO4 2148  15.801   9.875  10.699  0.5161 -0.0088 -0.2262
  135loPI   GL1 2149  15.798  10.099  10.235 -0.2285  0.0609 -0.4708
  135loPI   GL2 2150  16.081  10.254  10.415  0.0180 -0.1750 -0.0471
  135loPI   C1A 2151  15.861  10.224   9.845  0.1735  0.1520 -0.0549
  135loPI   C2A 2152  15.850  10.211   9.385 -0.1542  0.0285 -0.3266
  135loPI   C3A 2153  15.757  10.244   8.943  0.1352 -0.2635 -0.2326
  135loPI   C4A 2154  15.777  10.296   8.472 -0.2163 -0.0870  0.0625
  135loPI   C5A 2155  16.004  10.729   8.289 -0.0396  0.0794 -0.2194
  135loPI   C6A 2156  16.255  11.079   8.144 -0.1786 -0.1467  0.3462
  135loPI   C1B 2157  16.319  10.010  10.065  0.1416  0.2038 -0.1891
  135loPI   C2B 2158  16.320   9.992   9.703 -0.2309 -0.0241 -0.1283
  135loPI   C3B 2159  16.292   9.974   9.294  0.0503  0.0503 -0.1771
  135loPI   C4B 2160  16.186  10.030   8.843  0.0948  0.0304  0.4230
  136loPI    C1 2161  13.908  15.265  11.242 -0.0277 -0.0354  0.0515
  136loPI    C2 2162  13.599  15.512  11.304 -0.1313 -0.1317 -0.0767
  136loPI    C3 2163  13.931  15.549  11.523 -0.2194 -0.0034  0.0366
  136loPI   PO4 2164  13.921  15.255  10.932  0.1831  0.2735 -0.2034
  136loPI   GL1 2165  13.695  15.227  10.574  0.1025  0.1435  0.2262
  136loPI   GL2 2166  13.492  15.075  10.539 -0.1710 -0.2257  0.1802
  136loPI   C1A 2167  13.626  15.252  10.118 -0.1017 -0.0270  0.1448
  136loPI   C2A 2168  13.690  15.227   9.602  0.2257 -0.0899 -0.2396
  136loPI   C3A 2169  13.707  15.259   9.200  0.1313 -0.2438 -0.0113
  136loPI   C4A 2170  13.641  15.298   8.660  0.1615 -0.0352 -0.0088
  136loPI   C5A 2171  13.690  15.365   8.244  0.0737 -0.0717  0.1923
  136loPI   C6A 2172  13.854  15.436   7.774 -0.2809  0.2143 -0.0413
  136loPI   C1B 2173  13.272  14.913  10.214  0.0463 -0.1442  0.0807
  136loPI   C2B 2174  13.333  14.914   9.793  0.0173 -0.1454 -0.0905
  136loPI   C3B 2175  13.264  14.918   9.352 -0.0617 -0.3342  0.0726
  136loPI   C4B 2176  13.235  15.047   8.914  0.4293  0.1810 -0.2217
  137loPI    C1 2177   1.999  14.987  11.286  0.0731 -0.0849  0.1636
  137loPI    C2 2178   2.165  15.225  11.561 -0.0256  0.0130  0.1392
  137loPI    C3 2179   1.954  14.904  11.674 -0.0084  0.0146  0.1759
  137loPI   PO4 2180   2.188  15.136  11.057  0.2015 -0.0578 -0.0053
  137loPI   GL1 2181   2.310  14.969  10.640  0.2077  0.0738  0.1523
  137loPI   GL2 2182   2.065  14.893  10.496 -0.1933 -0.2067  0.1568
  137loPI   C1A 2183   2.453  14.698  10.161  0.2156  0.0737 -0.0637
  137loPI   C2A 2184   2.501  14.710   9.782 -0.4967  0.2143 -0.2339
  137loPI   C3A 2185   2.414  14.665   9.339  0.1777  0.1875 -0.0516
  137loPI   C4A 2186   2.467  14.605   8.897 -0.0380  0.2007 -0.1793
  137loPI   C5A 2187   2.404  14.596   8.454  0.1166  0.2549 -0.1468
  137loPI   C6A 2188   2.260  14.482   8.066  0.1469  0.0576 -0.2033
  137loPI   C1B 2189   2.015  14.857  10.056  0.2380  0.2099 -0.0294
  137loPI   C2B 2190   1.977  14.856   9.500 -0.1854  0.2125  0.1126
  137loPI   C3B 2191   1.930  14.914   9.067  0.0488  0.2201  0.0836
  137loPI   C4B 2192   1.961  14.826   8.651 -0.2148 -0.0594  0.1153
  138loPI    C1 2193  13.375  14.649  11.083  0.0260  0.1847 -0.3055
  138loPI    C2 2194  13.392  15.047  11.119 -0.0969  0.1529  0.1710
  138loPI    C3 2195  13.647  14.817  11.325  0.1391 -0.0129 -0.2931
  138loPI   PO4 2196  13.353  14.651  10.839 -0.3958 -0.3158 -0.1199
  138loPI   GL1 2197  13.544  14.518  10.493  0.1485 -0.1410 -0.0638
  138loPI   GL2 2198  13.804  14.718  10.375 -0.0668  0.0204  0.0796
  138loPI   C1A 2199  13.379  14.410  10.053  0.1163 -0.0760 -0.0166
  138loPI   C2A 2200  13.407  14.425   9.630 -0.0350  0.0521  0.2410
  138loPI   C3A 2201  13.272  14.449   9.217  0.3787  0.0735 -0.0129
  138loPI   C4A 2202  13.262  14.450   8.755  0.0038 -0.0768 -0.2471
  138loPI   C5A 2203  13.205  14.524   8.324 -0.1541  0.0763 -0.1854
  138loPI   C6A 2204  13.269  14.584   7.820 -0.0223 -0.2459  0.0978
  138loPI   C1B 2205  13.761  14.770   9.939  0.0979 -0.2123  0.1097
  138loPI   C2B 2206  13.716  14.771   9.431 -0.4216  0.1342 -0.1637
  138loPI   C3B 2207  13.687  14.751   9.064  0.1068 -0.0912  0.1831
  138loPI   C4B 2208  13.833  14.720   8.642 -0.2817 -0.0814  0.1550
  139loPI    C1 2209   3.152   4.950  11.209 -0.2058 -0.0727  0.0318
  139loPI    C2 2210   3.346   4.810  11.529 -0.1786  0.0081  0.0509
  139loPI    C3 2211   2.949   4.860  11.541 -0.2136 -0.2413 -0.0178
  139loPI   PO4 2212   3.284   4.807  10.984 -0.2125  0.0362 -0.0799
  139loPI   GL1 2213   3.305   4.842  10.588  0.2540 -0.0378 -0.1264
  139loPI   GL2 2214   3.112   4.749  10.404 -0.0340  0.1693 -0.0194
  139loPI   C1A 2215   3.612   4.883  10.312  0.1871 -0.0453  0.2188
  139loPI   C2A 2216   3.512   4.943   9.909 -0.1057 -0.1073 -0.1078
  139loPI   C3A 2217   3.577   4.994   9.473 -0.1623  0.0867 -0.0066
  139loPI   C4A 2218   3.542   4.955   9.024  0.0583  0.0669  0.1953
  139loPI   C5A 2219   3.644   4.976   8.579  0.3035 -0.2917  0.2007
  139loPI   C6A 2220   3.528   5.083   8.143 -0.1888  0.0109  0.0499
  139loPI   C1B 2221   3.156   4.624  10.062  0.3156 -0.2473 -0.2507
  139loPI   C2B 2222   3.184   4.640   9.654 -0.0458 -0.1111 -0.2774
  139loPI   C3B 2223   3.250   4.672   9.256  0.2592  0.2244  0.0705
  139loPI   C4B 2224   3.281   4.650   8.732  0.1113  0.2552 -0.1873
  140loPI    C1 2225   2.105  17.637  11.092 -0.1565 -0.1911 -0.3514
  140loPI    C2 2226   2.240  17.267  11.163 -0.2312 -0.1762 -0.1246
  140loPI    C3 2227   1.938  17.415  11.380  0.0819  0.1766  0.0833
  140loPI   PO4 2228   1.983  17.608  10.849 -0.1487 -0.0455 -0.1723
  140loPI   GL1 2229   2.144  17.661  10.400  0.1443 -0.1324  0.0731
  140loPI   GL2 2230   1.971  17.414  10.354  0.3484  0.1234 -0.2472
  140loPI   C1A 2231   2.008  17.676   9.908 -0.0775 -0.0033  0.3302
  140loPI   C2A 2232   2.014  17.700   9.521  0.1034  0.0045 -0.2268
  140loPI   C3A 2233   1.988  17.715   9.108  0.2499  0.3847  0.0481
  140loPI   C4A 2234   2.188  17.646   8.621  0.0951  0.0662 -0.2984
  140loPI   C5A 2235   2.290  17.477   8.256  0.1215 -0.1922 -0.1921
  140loPI   C6A 2236   2.238  17.346   7.885  0.0192  0.1842  0.2300
  140loPI   C1B 2237   2.069  17.164   9.987 -0.1003 -0.1730  0.2810
  140loPI   C2B 2238   1.986  17.184   9.442  0.0749  0.0187  0.4192
  140loPI   C3B 2239   2.164  17.257   8.982  0.3558 -0.1844  0.0362
  140loPI   C4B 2240   2.147  17.157   8.613 -0.0511  0.3183  0.1688
  141loPI    C1 2241  11.189  12.202  11.296  0.0216 -0.0625 -0.0017
  141loPI    C2 2242  10.941  12.516  11.281  0.1384  0.0377  0.1358
  141loPI    C3 2243  10.803  12.158  11.394  0.0195  0.0543  0.0447
  141loPI   PO4 2244  11.307  12.101  11.076  0.0098  0.2943  0.2213
  141loPI   GL1 2245  11.253  12.068  10.602 -0.0588  0.1408  0.0648
  141loPI   GL2 2246  11.041  11.853  10.448 -0.4176  0.2503 -0.2165
  141loPI   C1A 2247  11.340  12.288  10.225  0.0267 -0.1207 -0.0466
  141loPI   C2A 2248  11.400  12.232   9.782  0.0382  0.2077 -0.1588
  141loPI   C3A 2249  11.397  12.340   9.345 -0.1437 -0.1511 -0.2167
  141loPI   C4A 2250  11.516  12.314   8.973 -0.0137 -0.1404  0.3104
  141loPI   C5A 2251  11.520  12.459   8.504 -0.0598  0.0935  0.0766
  141loPI   C6A 2252  11.431  12.683   8.077 -0.0925  0.4452  0.0403
  141loPI   C1B 2253  11.062  11.927   9.935  0.1748 -0.1399  0.0004
  141loPI   C2B 2254  11.064  11.989   9.458  0.0746 -0.1217  0.1788
  141loPI   C3B 2255  11.100  12.025   8.952  0.0713 -0.1439 -0.0110
  141loPI   C4B 2256  11.080  12.076   8.546 -0.0192 -0.0845  0.1026
  142loPI    C1 2257   8.679  12.195  11.179  0.1995 -0.0900  0.0495
  142loPI    C2 2258   8.511  11.842  11.265 -0.0766  0.0758  0.2046
  142loPI    C3 2259   8.628  12.086  11.560 -0.0959  0.2120  0.1007
  142loPI   PO4 2260   8.573  12.309  11.021  0.2866  0.1381 -0.0625
  142loPI   GL1 2261   8.447  12.432  10.621  0.0272  0.1442  0.2145
  142loPI   GL2 2262   8.745  12.544  10.406  0.3254 -0.0308  0.2566
  142loPI   C1A 2263   8.348  12.176  10.266  0.0013 -0.0774 -0.0340
  142loPI   C2A 2264   8.417  12.119   9.853 -0.1638  0.0615 -0.1162
  142loPI   C3A 2265   8.343  12.081   9.485  0.0436  0.3321  0.0307
  142loPI   C4A 2266   8.325  12.100   9.027 -0.1109  0.0253  0.0644
  142loPI   C5A 2267   8.284  12.232   8.626 -0.2177  0.0596 -0.0670
  142loPI   C6A 2268   8.548  12.384   8.229 -0.0475 -0.0138  0.0850
  142loPI   C1B 2269   8.730  12.511  10.027  0.1940 -0.0106  0.3125
  142loPI   C2B 2270   8.719  12.492   9.569  0.1752 -0.0072 -0.0750
  142loPI   C3B 2271   8.701  12.429   9.118 -0.1083  0.1452 -0.0246
  142loPI   C4B 2272   8.792  12.568   8.674  0.3310 -0.0403 -0.0328
  143loPI    C1 2273  16.693   5.534  11.065  0.2634 -0.2506  0.0335
  143loPI    C2 2274  16.668   5.789  11.372 -0.1593  0.0324 -0.2242
  143loPI    C3 2275  16.704   5.396  11.440  0.0092  0.1126  0.1800
  143loPI   PO4 2276  16.575   5.625  10.901 -0.0374 -0.0654 -0.2057
  143loPI   GL1 2277  16.576   5.821  10.606 -0.2525 -0.2577  0.1517
  143loPI   GL2 2278  16.850   5.589  10.460 -0.1248  0.0518  0.1068
  143loPI   C1A 2279  16.564   6.151  10.253 -0.1130  0.1473 -0.0292
  143loPI   C2A 2280  16.483   6.131   9.788 -0.1864 -0.2518  0.1210
  143loPI   C3A 2281  16.527   6.130   9.390  0.3024  0.0056  0.2773
  143loPI   C4A 2282  16.428   6.198   8.884 -0.0301  0.2111  0.2826
  143loPI   C5A 2283  16.334   6.215   8.426  0.1246 -0.2131  0.1412
  143loPI   C6A 2284  16.456   5.905   8.113 -0.1576 -0.0955 -0.0953
  143loPI   C1B 2285  16.623   5.570  10.066 -0.0571  0.0505 -0.1743
  143loPI   C2B 2286  16.522   5.642   9.590 -0.0181  0.2010 -0.1598
  143loPI   C3B 2287  16.545   5.693   9.136  0.0048  0.0296  0.1185
  143loPI   C4B 2288  16.503   5.760   8.623 -0.0008  0.0882  0.0843
  144loPI    C1 2289  13.163  13.964  11.292  0.1186  0.0247  0.2542
  144loPI    C2 2290  13.460  14.200  11.419  0.1397  0.2188 -0.1386
  144loPI    C3 2291  13.097  14.354  11.352  0.0909  0.0904 -0.1727
  144loPI   PO4 2292  13.261  13.824  11.085  0.1613  0.1332 -0.0526
  144loPI   GL1 2293  13.371  13.792  10.710 -0.1291  0.1747  0.3222
  144loPI   GL2 2294  13.113  13.650  10.603 -0.3346 -0.0133  0.1097
  144loPI   C1A 2295  13.523  13.974  10.294 -0.0725 -0.1123 -0.4208
  144loPI   C2A 2296  13.506  14.003   9.860 -0.2200  0.1201 -0.2802
  144loPI   C3A 2297  13.403  13.918   9.473 -0.1638  0.0443  0.4024
  144loPI   C4A 2298  13.327  13.929   9.075 -0.0056  0.2118 -0.1100
  144loPI   C5A 2299  13.365  13.946   8.695 -0.2491 -0.2516  0.1177
  144loPI   C6A 2300  13.319  14.070   8.200  0.2618  0.1269 -0.0330
  144loPI   C1B 2301  13.122  13.613  10.153  0.1191 -0.0187 -0.0027
  144loPI   C2B 2302  13.108  13.620   9.733  0.1475  0.3048 -0.0742
  144loPI   C3B 2303  12.975  13.651   9.285 -0.0098  0.1577  0.1399
  144loPI   C4B 2304  12.947  13.651   8.743 -0.0856 -0.0398 -0.0573
  145loPI    C1 2305  11.239   7.446  11.359 -0.1452 -0.1364 -0.0251
  145loPI    C2 2306  11.303   7.834  11.431  0.0842 -0.1703 -0.0391
  145loPI    C3 2307  10.968   7.659  11.562  0.0086  0.0171  0.0213
  145loPI   PO4 2308  11.223   7.382  11.040 -0.0575 -0.0932 -0.1389
  145loPI   GL1 2309  11.402   7.346  10.658 -0.0720 -0.0453  0.2987
  145loPI   GL2 2310  11.548   7.298  10.482  0.5822 -0.1303 -0.0892
  145loPI   C1A 2311  11.267   7.679  10.348  0.2152 -0.0037 -0.2441
  145loPI   C2A 2312  11.350   7.612   9.977  0.0489  0.1562 -0.1414
  145loPI   C3A 2313  11.314   7.615   9.569  0.0050  0.1128  0.1417
  145loPI   C4A 2314  11.380   7.675   9.137 -0.1124 -0.2792  0.0887
  145loPI   C5A 2315  11.349   7.567   8.771  0.1893 -0.1038  0.0478
  145loPI   C6A 2316  11.337   7.280   8.407 -0.0012  0.0228 -0.0137
  145loPI   C1B 2317  11.444   7.144  10.178  0.0409 -0.0767  0.2254
  145loPI   C2B 2318  11.414   7.146   9.741 -0.2518 -0.1816  0.0827
  145loPI   C3B 2319  11.450   7.170   9.346  0.0959 -0.0241 -0.3205
  145loPI   C4B 2320  11.377   7.078   8.883  0.1541  0.0261 -0.1923
  146loPI    C1 2321  15.327   2.314  10.684 -0.0984 -0.0019  0.0560
  146loPI    C2 2322  15.615   2.405  10.947 -0.0936 -0.3390  0.1727
  146loPI    C3 2323  15.288   2.209  11.068 -0.3674  0.0222  0.0371
  146loPI   PO4 2324  15.459   2.123  10.493  0.2622 -0.4444  0.2581
  146loPI   GL1 2325  15.373   1.899  10.156  0.1125  0.0144 -0.0243
  146loPI   GL2 2326  15.215   1.596  10.373  0.1476  0.0368 -0.1260
  146loPI   C1A 2327  15.557   1.843   9.787  0.0237 -0.0501 -0.4093
  146loPI   C2A 2328  15.515   1.777   9.341  0.0509  0.5155  0.0192
  146loPI   C3A 2329  15.499   1.786   8.903  0.2299 -0.1685  0.1523
  146loPI   C4A 2330  15.419   1.990   8.395  0.2546  0.0943 -0.2772
  146loPI   C5A 2331  15.365   2.359   8.206 -0.0102  0.2354  0.1819
  146loPI   C6A 2332  15.544   2.673   7.973  0.0496  0.1371  0.1693
  146loPI   C1B 2333  15.002   1.600   9.931  0.4376  0.1168  0.2575
  146loPI   C2B 2334  15.077   1.464   9.453 -0.0412 -0.1936 -0.1539
  146loPI   C3B 2335  15.098   1.476   9.037 -0.2224 -0.1224 -0.1599
  146loPI   C4B 2336  15.021   1.609   8.604 -0.4198 -0.1518  0.0941
  147loPI    C1 2337   1.883   5.855  10.910  0.2048  0.0365 -0.1529
  147loPI    C2 2338   2.102   5.523  10.946 -0.0366 -0.0921  0.1826
  147loPI    C3 2339   2.163   5.830  11.194 -0.2734 -0.1530  0.3192
  147loPI   PO4 2340   1.890   6.001  10.657  0.1642  0.1057  0.2573
  147loPI   GL1 2341   1.890   5.963  10.286  0.0860  0.2492  0.1216
  147loPI   GL2 2342   1.613   5.719  10.138 -0.2895  0.3240 -0.1509
  147loPI   C1A 2343   2.151   6.088   9.847  0.0516  0.0612  0.0486
  147loPI   C2A 2344   2.108   6.091   9.477  0.0367  0.4260  0.0186
  147loPI   C3A 2345   2.161   6.129   9.043  0.0392 -0.0986  0.0161
  147loPI   C4A 2346   2.320   6.316   8.569  0.0260 -0.0006 -0.1170
  147loPI   C5A 2347   2.736   6.474   8.278  0.1345  0.3098  0.0032
  147loPI   C6A 2348   2.924   6.982   8.214  0.0974 -0.0305 -0.1727
  147loPI   C1B 2349   1.747   5.840   9.732  0.0178 -0.0692 -0.1947
  147loPI   C2B 2350   1.682   5.819   9.241 -0.0283  0.0536 -0.1751
  147loPI   C3B 2351   1.738   5.909   8.808  0.1402 -0.1933 -0.1769
  147loPI   C4B 2352   1.978   5.900   8.387  0.1537 -0.0170  0.0222
  148loPI    C1 2353  10.728   6.381  11.247 -0.3574 -0.0647 -0.1726
  148loPI    C2 2354  10.613   6.087  11.493  0.1529 -0.1762 -0.0555
  148loPI    C3 2355  10.905   6.337  11.603  0.0688  0.0631 -0.3614
  148loPI   PO4 2356  10.838   6.264  11.052 -0.1165  0.1204  0.0038
  148loPI   GL1 2357  10.832   6.231  10.627 -0.0779  0.1136 -0.0939
  148loPI   GL2 2358  10.561   6.096  10.621  0.1173  0.0302 -0.2485
  148loPI   C1A 2359  10.643   6.327  10.172 -0.1080 -0.0985  0.1234
  148loPI   C2A 2360  10.589   6.376   9.807  0.0168  0.1071  0.2131
  148loPI   C3A 2361  10.652   6.510   9.309  0.1982 -0.1617 -0.1178
  148loPI   C4A 2362  10.578   6.463   8.843  0.1096  0.0530 -0.0032
  148loPI   C5A 2363  10.476   6.504   8.432  0.2737  0.2062  0.1002
  148loPI   C6A 2364  10.248   6.350   8.032 -0.0693  0.2199  0.1352
  148loPI   C1B 2365  10.774   5.805  10.409  0.0182  0.0832  0.0249
  148loPI   C2B 2366  10.727   5.852   9.922  0.0287 -0.1442  0.0273
  148loPI   C3B 2367  10.691   5.895   9.431 -0.0644  0.3259  0.1565
  148loPI   C4B 2368  10.660   6.011   9.030  0.0956 -0.0600 -0.0409
  149loPI    C1 2369  14.844   3.733  10.877 -0.1487  0.2537 -0.0522
  149loPI    C2 2370  14.776   3.413  11.107  0.2475  0.1814 -0.0293
  149loPI    C3 2371  14.788   3.777  11.271 -0.1210  0.2028 -0.0424
  149loPI   PO4 2372  14.767   3.681  10.666 -0.1245  0.1513 -0.1006
  149loPI   GL1 2373  14.930   3.604  10.309  0.0227 -0.1331  0.1210
  149loPI   GL2 2374  15.157   3.637  10.275 -0.1480  0.3093  0.0791
  149loPI   C1A 2375  14.776   3.501   9.840 -0.1166  0.1773 -0.0183
  149loPI   C2A 2376  14.633   3.551   9.442 -0.0442 -0.0154 -0.2006
  149loPI   C3A 2377  14.652   3.563   8.961 -0.1211 -0.0441  0.0192
  149loPI   C4A 2378  14.677   3.717   8.563  0.2060  0.0816 -0.0840
  149loPI   C5A 2379  14.492   4.066   8.297 -0.0733 -0.3419  0.1816
  149loPI   C6A 2380  14.073   4.271   8.407 -0.3189  0.2087  0.2412
  149loPI   C1B 2381  15.283   3.399   9.946  0.1006 -0.2136 -0.1139
  149loPI   C2B 2382  15.130   3.339   9.524  0.2302  0.1108  0.1496
  149loPI   C3B 2383  15.193   3.383   9.061  0.2863 -0.0935 -0.0076
  149loPI   C4B 2384  15.312   3.344   8.575 -0.0711 -0.2532 -0.1541
  150loPI    C1 2385  10.712   0.124  11.093  0.0808  0.0576  0.1369
  150loPI    C2 2386  10.982   0.420  11.096  0.2259 -0.0727  0.1035
  150loPI    C3 2387  10.593   0.503  11.144  0.2503  0.1375 -0.0444
  150loPI   PO4 2388  10.811  -0.041  10.858 -0.1967  0.2039  0.2220
  150loPI   GL1 2389  11.011  -0.182  10.413  0.2202  0.6299 -0.2288
  150loPI   GL2 2390  10.757   0.060  10.253 -0.0730 -0.2136  0.2300
  150loPI   C1A 2391  10.925  -0.337   9.959  0.3206 -0.2579  0.0145
  150loPI   C2A 2392  10.912  -0.359   9.477  0.2184  0.0370 -0.2501
  150loPI   C3A 2393  10.924  -0.367   8.994 -0.0759 -0.2659  0.0290
  150loPI   C4A 2394  10.855  -0.269   8.625 -0.2110  0.1677 -0.0917
  150loPI   C5A 2395  10.501  -0.190   8.338  0.0482  0.0015 -0.1218
  150loPI   C6A 2396  10.241  -0.148   8.116 -0.0671 -0.2927  0.0324
  150loPI   C1B 2397  10.816   0.150   9.828 -0.1549 -0.1226 -0.0440
  150loPI   C2B 2398  10.855   0.118   9.433 -0.2922 -0.0881  0.0215
  150loPI   C3B 2399  10.813   0.170   8.972  0.1697  0.3506  0.1112
  150loPI   C4B 2400  10.709   0.204   8.527 -0.3780  0.0602 -0.0630
  151loPI    C1 2401  12.392  15.123  11.277  0.3980  0.0182  0.2628
  151loPI    C2 2402  12.279  14.766  11.418 -0.0605  0.1187  0.1662
  151loPI    C3 2403  12.295  15.082  11.663 -0.1122  0.1307  0.1546
  151loPI   PO4 2404  12.436  15.089  10.972 -0.2603 -0.1836  0.2454
  151loPI   GL1 2405  12.555  15.297  10.622  0.1869 -0.0922  0.0997
  151loPI   GL2 2406  12.325  15.370  10.480 -0.0755  0.0221 -0.0270
  151loPI   C1A 2407  12.774  15.158  10.274  0.2070  0.3146 -0.4311
  151loPI   C2A 2408  12.864  15.111   9.835 -0.1299 -0.0477  0.1236
  151loPI   C3A 2409  12.784  15.147   9.442 -0.1371 -0.0244  0.0126
  151loPI   C4A 2410  12.773  15.137   9.040  0.2935  0.1987 -0.0383
  151loPI   C5A 2411  12.651  15.109   8.581 -0.2516  0.0177 -0.2785
  151loPI   C6A 2412  12.744  14.865   8.294  0.0491 -0.0444 -0.0842
  151loPI   C1B 2413  12.285  15.309  10.058  0.2465  0.0037 -0.0277
  151loPI   C2B 2414  12.319  15.297   9.645 -0.1110 -0.1673 -0.2804
  151loPI   C3B 2415  12.285  15.301   9.288 -0.2960  0.0050 -0.0063
  151loPI   C4B 2416  12.329  15.302   8.899  0.1920 -0.0604  0.1627
  152loPI    C1 2417   3.480  16.464  10.918 -0.0899  0.0999  0.0303
  152loPI    C2 2418   3.692  16.245  11.177  0.2582  0.2581 -0.1140
  152loPI    C3 2419   3.702  16.644  11.198 -0.1183  0.2676 -0.0538
  152loPI   PO4 2420   3.494  16.274  10.697 -0.0695 -0.0790 -0.0165
  152loPI   GL1 2421   3.397  16.196  10.222  0.2042  0.1708 -0.1612
  152loPI   GL2 2422   3.649  16.366  10.160  0.3345 -0.1106  0.1641
  152loPI   C1A 2423   3.122  16.417   9.774  0.0080 -0.1874  0.0160
  152loPI   C2A 2424   3.075  16.300   9.416 -0.0447 -0.2203  0.0038
  152loPI   C3A 2425   3.029  16.324   8.955 -0.0390  0.2569  0.1050
  152loPI   C4A 2426   2.947  16.285   8.438  0.1857 -0.2219 -0.0739
  152loPI   C5A 2427   3.006  16.214   7.977 -0.1783 -0.2227  0.0307
  152loPI   C6A 2428   3.149  15.922   7.836  0.1558 -0.0915 -0.2311
  152loPI   C1B 2429   3.533  16.219   9.718  0.1899 -0.3196  0.2171
  152loPI   C2B 2430   3.630  16.188   9.255  0.0828 -0.1051  0.2345
  152loPI   C3B 2431   3.562  16.068   8.769 -0.1465 -0.1126  0.1293
  152loPI   C4B 2432   3.852  15.854   8.525  0.0774  0.1788 -0.4824
  153loPI    C1 2433  12.264   3.755  10.773  0.1200 -0.2587  0.0682
  153loPI    C2 2434  12.073   3.789  11.123  0.0610  0.0018  0.0132
  153loPI    C3 2435  12.440   3.631  11.110 -0.0198 -0.2023  0.1631
  153loPI   PO4 2436  12.171   3.948  10.609  0.1095  0.3339 -0.1066
  153loPI   GL1 2437  12.097   4.116  10.284  0.0661 -0.1937  0.1518
  153loPI   GL2 2438  11.883   4.022  10.145 -0.0163 -0.2677  0.2082
  153loPI   C1A 2439  12.303   4.307  10.042 -0.0540  0.4139  0.1072
  153loPI   C2A 2440  12.347   4.370   9.646 -0.1936  0.2595 -0.0489
  153loPI   C3A 2441  12.265   4.478   9.313  0.0507 -0.2882  0.0007
  153loPI   C4A 2442  12.237   4.362   8.901  0.1551 -0.2520 -0.1379
  153loPI   C5A 2443  12.170   4.357   8.401 -0.1345 -0.1686  0.3859
  153loPI   C6A 2444  12.504   4.343   8.138  0.0162  0.0619 -0.3472
  153loPI   C1B 2445  11.945   4.026   9.675 -0.2188 -0.2769 -0.0070
  153loPI   C2B 2446  11.882   4.128   9.223 -0.1519 -0.0522 -0.2379
  153loPI   C3B 2447  11.825   4.054   8.729  0.0236  0.0268  0.1416
  153loPI   C4B 2448  11.697   4.023   8.244 -0.0011 -0.1665 -0.2786
  154loPI    C1 2449   4.232  10.864  11.383 -0.0027 -0.0967  0.0290
  154loPI    C2 2450   4.489  10.958  11.674 -0.0712  0.1532  0.0112
  154loPI    C3 2451   4.255  10.636  11.711 -0.0127  0.1296  0.1892
  154loPI   PO4 2452   4.368  10.987  11.135 -0.1000  0.0380  0.0273
  154loPI   GL1 2453   4.343  11.057  10.605 -0.0091 -0.0149 -0.1888
  154loPI   GL2 2454   4.513  11.240  10.495  0.1049 -0.0302 -0.0152
  154loPI   C1A 2455   4.127  10.829  10.300  0.1119  0.0287 -0.2838
  154loPI   C2A 2456   4.118  10.873   9.867  0.3160  0.0636 -0.0775
  154loPI   C3A 2457   4.077  10.831   9.407 -0.0931 -0.1366  0.0729
  154loPI   C4A 2458   4.098  10.833   8.998  0.1596  0.1773  0.0486
  154loPI   C5A 2459   4.155  10.684   8.507  0.3262 -0.0941  0.2077
  154loPI   C6A 2460   3.975  11.030   8.384 -0.2148  0.1479 -0.1789
  154loPI   C1B 2461   4.431  11.221   9.975 -0.0444  0.1022  0.0611
  154loPI   C2B 2462   4.406  11.136   9.539 -0.1125  0.1572 -0.0653
  154loPI   C3B 2463   4.441  11.211   9.131  0.2702  0.0702 -0.0955
  154loPI   C4B 2464   4.436  11.106   8.684 -0.0269 -0.1220 -0.0012
  155loPI    C1 2465   6.149  11.942  11.134 -0.0273  0.0682 -0.1066
  155loPI    C2 2466   5.909  12.261  11.144 -0.2073 -0.0673 -0.0635
  155loPI    C3 2467   5.987  12.059  11.481  0.0448  0.0319 -0.0602
  155loPI   PO4 2468   6.093  11.840  10.929  0.1280 -0.0759 -0.3869
  155loPI   GL1 2469   6.216  11.566  10.507  0.0221 -0.2486 -0.2200
  155loPI   GL2 2470   6.093  11.320  10.559  0.2687  0.0194  0.2631
  155loPI   C1A 2471   6.120  11.472  10.078 -0.3472  0.0557  0.2569
  155loPI   C2A 2472   6.181  11.481   9.698  0.0707 -0.0818 -0.1923
  155loPI   C3A 2473   6.201  11.466   9.295 -0.3239  0.1577 -0.0100
  155loPI   C4A 2474   6.134  11.523   8.822  0.0104 -0.1249 -0.0948
  155loPI   C5A 2475   6.412  11.624   8.526  0.0869  0.1484  0.0809
  155loPI   C6A 2476   6.750  11.905   8.500  0.1983 -0.2506 -0.0020
  155loPI   C1B 2477   5.791  11.215  10.297 -0.1548 -0.0625  0.0191
  155loPI   C2B 2478   5.829  11.153   9.847 -0.4283  0.2367  0.0735
  155loPI   C3B 2479   5.798  11.045   9.486  0.0949  0.0158  0.1093
  155loPI   C4B 2480   5.787  11.156   9.073  0.0657  0.1719 -0.0710
  156loPI    C1 2481   0.422  16.273  11.036  0.2283 -0.1092 -0.1122
  156loPI    C2 2482   0.605  16.626  11.074  0.0303 -0.0066 -0.0984
  156loPI    C3 2483   0.494  16.423  11.400 -0.2143  0.1088 -0.1078
  156loPI   PO4 2484   0.270  16.361  10.821 -0.0677  0.1517 -0.0287
  156loPI   GL1 2485   0.048  16.303  10.491  0.0123  0.1374  0.3754
  156loPI   GL2 2486  -0.080  16.660  10.497 -0.0317  0.0441 -0.3101
  156loPI   C1A 2487   0.009  16.101  10.088 -0.1392  0.0445 -0.1633
  156loPI   C2A 2488   0.024  16.098   9.702  0.0662 -0.1093 -0.3416
  156loPI   C3A 2489   0.030  16.098   9.259 -0.0420  0.1053 -0.1170
  156loPI   C4A 2490  -0.078  16.088   8.870  0.0211  0.1713  0.1926
  156loPI   C5A 2491   0.048  16.124   8.459  0.3472 -0.0170 -0.0675
  156loPI   C6A 2492   0.100  16.410   8.147 -0.2124  0.4958  0.2851
  156loPI   C1B 2493  -0.072  16.630  10.007 -0.1315  0.2558  0.2631
  156loPI   C2B 2494  -0.111  16.600   9.532  0.2893  0.1104 -0.0017
  156loPI   C3B 2495  -0.079  16.602   9.085 -0.1985 -0.2127 -0.1218
  156loPI   C4B 2496  -0.121  16.589   8.583  0.0614 -0.2648  0.1343
  157loPI    C1 2497   9.618  10.498  11.188  0.2957 -0.0241 -0.2276
  157loPI    C2 2498   9.716  10.131  11.313 -0.0988 -0.0699 -0.0366
  157loPI    C3 2499   9.772  10.446  11.553  0.2212 -0.0037 -0.1930
  157loPI   PO4 2500   9.634  10.555  10.930 -0.0157 -0.1595 -0.0488
  157loPI   GL1 2501   9.284  10.500  10.478  0.1117 -0.0100 -0.0309
  157loPI   GL2 2502   9.618  10.604  10.411  0.1516  0.2220  0.0553
  157loPI   C1A 2503   9.075  10.415  10.078  0.0408 -0.2374  0.3974
  157loPI   C2A 2504   9.083  10.407   9.665 -0.1633  0.2767  0.1450
  157loPI   C3A 2505   9.046  10.358   9.314 -0.1223  0.0656  0.0595
  157loPI   C4A 2506   9.040  10.415   8.850 -0.3046  0.0897 -0.0358
  157loPI   C5A 2507   9.000  10.398   8.513 -0.0127 -0.1244 -0.1246
  157loPI   C6A 2508   8.810  10.639   8.202  0.0545 -0.2773  0.0714
  157loPI   C1B 2509   9.424  10.747  10.056 -0.0513  0.2119 -0.2114
  157loPI   C2B 2510   9.506  10.725   9.607  0.0964 -0.1438 -0.0971
  157loPI   C3B 2511   9.489  10.675   9.148  0.1910 -0.3035 -0.3195
  157loPI   C4B 2512   9.418  10.802   8.644  0.1314  0.0808 -0.1343
  158loPI    C1 2513  10.908  17.290  11.050 -0.1699 -0.1797  0.0085
  158loPI    C2 2514  11.243  17.074  11.015 -0.2394 -0.2454 -0.2752
  158loPI    C3 2515  11.080  17.133  11.376  0.0990 -0.1779 -0.1293
  158loPI   PO4 2516  10.912  17.339  10.784  0.0687 -0.1407  0.0784
  158loPI   GL1 2517  11.280  17.251  10.502 -0.0140 -0.0697 -0.1013
  158loPI   GL2 2518  11.586  17.087  10.555  0.1678  0.1704 -0.0462
  158loPI   C1A 2519  11.387  17.484  10.169 -0.0147 -0.0314  0.0140
  158loPI   C2A 2520  11.470  17.495   9.763 -0.3363  0.0522  0.1667
  158loPI   C3A 2521  11.370  17.424   9.394  0.1924  0.2975 -0.0621
  158loPI   C4A 2522  11.435  17.486   9.002  0.0250  0.0962  0.3565
  158loPI   C5A 2523  11.315  17.500   8.664 -0.0013 -0.1100  0.2539
  158loPI   C6A 2524  11.297  17.348   8.380  0.1910 -0.1013  0.1069
  158loPI   C1B 2525  11.594  17.029  10.069  0.0627  0.0955  0.0723
  158loPI   C2B 2526  11.615  17.007   9.609 -0.1417 -0.0209  0.1335
  158loPI   C3B 2527  11.407  16.968   9.212 -0.1407  0.0229 -0.3682
  158loPI   C4B 2528  11.503  17.022   8.721  0.1418  0.0145 -0.0843
  159loPI    C1 2529   8.669  12.791  11.075 -0.0624  0.2181 -0.0808
  159loPI    C2 2530   8.414  12.980  11.319  0.1419  0.2158  0.1379
  159loPI    C3 2531   8.556  12.619  11.418  0.3096  0.2613  0.0678
  159loPI   PO4 2532   8.481  12.885  10.796  0.1577  0.0813 -0.0942
  159loPI   GL1 2533   8.590  13.086  10.432 -0.1489  0.0291 -0.1417
  159loPI   GL2 2534   8.320  13.174  10.330 -0.1488  0.1117  0.2736
  159loPI   C1A 2535   8.699  12.986  10.117  0.0781  0.0602 -0.0492
  159loPI   C2A 2536   8.679  12.978   9.665  0.0003 -0.3209 -0.1590
  159loPI   C3A 2537   8.573  12.893   9.260  0.0505 -0.0537  0.1379
  159loPI   C4A 2538   8.586  13.034   8.797 -0.1517  0.1765 -0.1525
  159loPI   C5A 2539   8.585  13.322   8.496 -0.1440  0.1296  0.0373
  159loPI   C6A 2540   8.667  13.587   8.208 -0.1809 -0.0383 -0.0677
  159loPI   C1B 2541   8.226  13.150   9.938 -0.2270 -0.0294 -0.1395
  159loPI   C2B 2542   8.157  13.162   9.538  0.2873  0.1404 -0.1163
  159loPI   C3B 2543   8.155  13.139   9.082 -0.0521 -0.1479 -0.2674
  159loPI   C4B 2544   8.016  13.178   8.594  0.2397  0.1871  0.0129
  160loPI    C1 2545  13.696   3.872  11.219  0.0910  0.1779  0.0435
  160loPI    C2 2546  13.833   4.187  11.424  0.1297  0.0379  0.2346
  160loPI    C3 2547  13.439   4.125  11.392  0.1240  0.0396  0.2988
  160loPI   PO4 2548  13.826   3.886  11.011  0.0660 -0.1537  0.1579
  160loPI   GL1 2549  13.606   3.957  10.587  0.0508  0.0738 -0.0688
  160loPI   GL2 2550  13.387   3.780  10.410 -0.1734  0.0624 -0.3007
  160loPI   C1A 2551  13.765   3.928  10.106 -0.2132 -0.0563 -0.3932
  160loPI   C2A 2552  13.678   3.956   9.656  0.0135 -0.0685  0.2537
  160loPI   C3A 2553  13.745   3.943   9.231 -0.0690  0.0775  0.2131
  160loPI   C4A 2554  13.717   3.842   8.801  0.0237 -0.3742 -0.0166
  160loPI   C5A 2555  13.734   3.924   8.362 -0.1272  0.2003 -0.1746
  160loPI   C6A 2556  14.073   3.820   8.163  0.1125  0.1647 -0.1487
  160loPI   C1B 2557  13.369   3.624   9.921 -0.0463  0.1105  0.5019
  160loPI   C2B 2558  13.365   3.620   9.431  0.0126 -0.1370 -0.0709
  160loPI   C3B 2559  13.297   3.561   9.091 -0.0266 -0.1064 -0.0382
  160loPI   C4B 2560  13.236   3.528   8.624  0.0354  0.0628  0.4256
  161loPI    C1 2561   0.801   0.887  10.674 -0.0568 -0.2160  0.0218
  161loPI    C2 2562   1.115   0.667  10.561  0.0852  0.1664 -0.3507
  161loPI    C3 2563   1.154   0.937  10.854 -0.0433 -0.1679 -0.0180
  161loPI   PO4 2564   0.661   0.912  10.442 -0.1260  0.0984  0.0826
  161loPI   GL1 2565   0.725   1.168  10.146  0.0575 -0.2254  0.0618
  161loPI   GL2 2566   0.573   0.825   9.931 -0.2936 -0.1100 -0.4219
  161loPI   C1A 2567   0.872   1.193   9.664 -0.1447 -0.0426  0.1857
  161loPI   C2A 2568   0.999   1.121   9.220  0.2980  0.0851 -0.2259
  161loPI   C3A 2569   0.988   1.046   8.792  0.1120 -0.0664 -0.0668
  161loPI   C4A 2570   0.968   1.003   8.414  0.3131 -0.1661 -0.0474
  161loPI   C5A 2571   0.830   1.155   8.116 -0.0929 -0.0126  0.0611
  161loPI   C6A 2572   0.582   1.290   7.761 -0.0089 -0.3548 -0.0736
  161loPI   C1B 2573   0.453   0.806   9.423 -0.2042  0.1215  0.0625
  161loPI   C2B 2574   0.523   0.677   9.093  0.1084  0.1657 -0.0496
  161loPI   C3B 2575   0.531   0.749   8.693 -0.1381 -0.0389  0.1760
  161loPI   C4B 2576   0.506   0.729   8.184  0.1923 -0.1052  0.0754
  162loPI    C1 2577   0.512  15.759  11.343  0.1911 -0.0124  0.0259
  162loPI    C2 2578   0.695  16.001  11.603 -0.0241  0.1895 -0.0069
  162loPI    C3 2579   0.298  16.017  11.561 -0.0511 -0.2276  0.0473
  162loPI   PO4 2580   0.572  15.779  11.109  0.1987 -0.2637  0.0106
  162loPI   GL1 2581   0.532  15.833  10.628 -0.1807  0.0880  0.0748
  162loPI   GL2 2582   0.714  15.461  10.572 -0.2674  0.0189 -0.3082
  162loPI   C1A 2583   0.470  15.949  10.263  0.1648 -0.2627  0.0045
  162loPI   C2A 2584   0.503  15.957   9.773  0.0551  0.1790  0.0254
  162loPI   C3A 2585   0.534  15.933   9.339 -0.0492 -0.1003 -0.0782
  162loPI   C4A 2586   0.469  15.934   8.854  0.0266  0.0766 -0.0622
  162loPI   C5A 2587   0.501  15.801   8.427  0.2724  0.0463 -0.1490
  162loPI   C6A 2588   0.513  16.038   8.107  0.0049 -0.3079 -0.3290
  162loPI   C1B 2589   0.552  15.411  10.122 -0.5448  0.0364  0.2480
  162loPI   C2B 2590   0.551  15.495   9.685  0.1205 -0.2066  0.3025
  162loPI   C3B 2591   0.483  15.405   9.233 -0.1012  0.1589  0.2841
  162loPI   C4B 2592   0.575  15.384   8.846 -0.0961  0.1271  0.1399
  163loPI    C1 2593   3.710   2.965  10.784 -0.0150 -0.1307  0.1036
  163loPI    C2 2594   3.461   3.225  10.958  0.0296  0.0136 -0.0454
  163loPI    C3 2595   3.397   2.832  10.994 -0.2213  0.0494 -0.0847
  163loPI   PO4 2596   3.730   3.030  10.556  0.1455 -0.0839 -0.1575
  163loPI   GL1 2597   4.017   3.288  10.250  0.0259 -0.2116 -0.3277
  163loPI   GL2 2598   4.241   3.198  10.034 -0.0748 -0.1200 -0.1142
  163loPI   C1A 2599   3.820   3.389   9.814 -0.2027 -0.1137  0.1534
  163loPI   C2A 2600   3.823   3.408   9.347  0.0874  0.0032 -0.0851
  163loPI   C3A 2601   3.824   3.354   8.856 -0.0685  0.1150  0.1370
  163loPI   C4A 2602   3.794   3.374   8.431  0.1534  0.0417  0.0473
  163loPI   C5A 2603   3.362   3.440   8.166 -0.4793 -0.0244  0.2813
  163loPI   C6A 2604   3.266   3.291   7.707 -0.1289  0.0248 -0.0104
  163loPI   C1B 2605   4.321   3.180   9.620  0.1849 -0.2313 -0.1194
  163loPI   C2B 2606   4.280   3.178   9.210 -0.3319 -0.1908 -0.0439
  163loPI   C3B 2607   4.316   3.153   8.742  0.0900  0.0750 -0.0217
  163loPI   C4B 2608   4.269   3.164   8.416 -0.0759  0.0024 -0.3321
  164loPI    C1 2609   8.813   5.321  11.352  0.0716  0.1292  0.2008
  164loPI    C2 2610   8.705   4.986  11.544  0.0918 -0.0160 -0.0375
  164loPI    C3 2611   9.057   5.158  11.624  0.0569 -0.0198  0.1261
  164loPI   PO4 2612   8.768   5.306  11.007  0.0540 -0.0278 -0.0413
  164loPI   GL1 2613   8.742   5.313  10.453  0.1845  0.1865  0.1950
  164loPI   GL2 2614   8.479   5.225  10.210 -0.1256  0.0296 -0.0638
  164loPI   C1A 2615   8.960   5.137  10.070 -0.0891 -0.0992  0.2398
  164loPI   C2A 2616   9.071   5.213   9.703  0.3017 -0.1311  0.1424
  164loPI   C3A 2617   8.969   5.167   9.138  0.1394  0.1058 -0.1005
  164loPI   C4A 2618   8.949   5.228   8.710 -0.0171  0.2146 -0.1601
  164loPI   C5A 2619   9.025   5.334   8.426 -0.2017  0.1355  0.1621
  164loPI   C6A 2620   8.993   5.792   8.296  0.0239 -0.0206 -0.2833
  164loPI   C1B 2621   8.591   5.377   9.853 -0.0715  0.2210  0.1339
  164loPI   C2B 2622   8.443   5.320   9.430 -0.1106  0.0497  0.4064
  164loPI   C3B 2623   8.514   5.328   8.985  0.2768  0.0178  0.0317
  164loPI   C4B 2624   8.465   5.336   8.553  0.2250  0.2698 -0.2935
  165loPI    C1 2625   5.480  10.136  11.387  0.1518  0.0443  0.1242
  165loPI    C2 2626   5.531  10.523  11.299  0.2619  0.0405  0.1693
  165loPI    C3 2627   5.465  10.411  11.677 -0.1099  0.0473  0.1102
  165loPI   PO4 2628   5.645   9.954  11.164  0.0890  0.1935 -0.5320
  165loPI   GL1 2629   5.606   9.935  10.757 -0.0387  0.0367  0.0477
  165loPI   GL2 2630   5.322   9.713  10.750 -0.1180 -0.1082  0.0390
  165loPI   C1A 2631   5.577   9.849  10.251  0.0515 -0.0745  0.2345
  165loPI   C2A 2632   5.669   9.884   9.832 -0.0649  0.0615 -0.1364
  165loPI   C3A 2633   5.616   9.729   9.410 -0.3900  0.0298  0.0198
  165loPI   C4A 2634   5.637   9.761   8.958 -0.0904 -0.1954 -0.0471
  165loPI   C5A 2635   5.682   9.983   8.620 -0.1524  0.3976 -0.0440
  165loPI   C6A 2636   5.536  10.402   8.436  0.1843 -0.0087 -0.1290
  165loPI   C1B 2637   5.210   9.562  10.376 -0.4557 -0.0113  0.2629
  165loPI   C2B 2638   5.250   9.507   9.923  0.0601  0.2625 -0.0905
  165loPI   C3B 2639   5.183   9.429   9.553 -0.1625 -0.0461  0.0781
  165loPI   C4B 2640   5.222   9.440   9.112 -0.2237 -0.1838 -0.0136
  166loPI    C1 2641   2.012   9.507  10.965  0.0677 -0.1374  0.2722
  166loPI    C2 2642   1.755   9.803  11.044  0.1983  0.0299  0.0842
  166loPI    C3 2643   1.959   9.630  11.342 -0.0865 -0.0663  0.2281
  166loPI   PO4 2644   2.226   9.598  10.837 -0.3897  0.3496  0.1035
  166loPI   GL1 2645   2.315   9.646  10.514 -0.0687  0.1414 -0.0119
  166loPI   GL2 2646   2.435   9.842  10.334 -0.1586  0.0115  0.1105
  166loPI   C1A 2647   2.051   9.610  10.157 -0.0283 -0.0814 -0.3456
  166loPI   C2A 2648   2.010   9.651   9.750 -0.2175 -0.2515 -0.4219
  166loPI   C3A 2649   1.985   9.557   9.342  0.2852  0.0048 -0.0374
  166loPI   C4A 2650   2.043   9.612   8.915  0.1952  0.0741  0.3733
  166loPI   C5A 2651   1.971   9.501   8.473 -0.0499  0.0724  0.0815
  166loPI   C6A 2652   1.870   9.807   8.173  0.0635  0.2317  0.2347
  166loPI   C1B 2653   2.464   9.942   9.930  0.0590 -0.0951  0.0246
  166loPI   C2B 2654   2.455   9.982   9.541 -0.0821 -0.3581  0.0777
  166loPI   C3B 2655   2.371   9.951   9.149  0.2265  0.2023 -0.0531
  166loPI   C4B 2656   2.353   9.887   8.665  0.0036 -0.0282 -0.0451
  167loPI    C1 2657  10.199   0.261  10.684 -0.1526 -0.1029 -0.1689
  167loPI    C2 2658   9.827   0.145  10.774 -0.1278  0.0307  0.1148
  167loPI    C3 2659   9.988   0.462  10.958  0.0549  0.0961 -0.1521
  167loPI   PO4 2660  10.259   0.093  10.483  0.0274 -0.0759  0.0030
  167loPI   GL1 2661  10.292  -0.107  10.148 -0.0294  0.1616 -0.1323
  167loPI   GL2 2662   9.877  -0.076  10.234 -0.1715  0.1409 -0.0474
  167loPI   C1A 2663  10.423  -0.179   9.799  0.0347  0.0235 -0.1208
  167loPI   C2A 2664  10.452  -0.168   9.360  0.3068  0.2028 -0.0131
  167loPI   C3A 2665  10.424  -0.129   8.883 -0.0001  0.3784 -0.3219
  167loPI   C4A 2666  10.212  -0.439   8.592  0.0523  0.2537  0.0443
  167loPI   C5A 2667  10.244  -0.717   8.192 -0.1612 -0.0769  0.1400
  167loPI   C6A 2668   9.945  -0.960   8.047  0.3761  0.0180 -0.0041
  167loPI   C1B 2669   9.881  -0.040   9.790  0.0400 -0.0199  0.0078
  167loPI   C2B 2670   9.938  -0.040   9.339 -0.0553  0.0787 -0.0214
  167loPI   C3B 2671   9.839  -0.044   8.921  0.0738  0.0569 -0.4315
  167loPI   C4B 2672  10.073   0.080   8.541  0.0126  0.1438  0.2269
  168loPI    C1 2673  12.088  10.798  11.024  0.0797 -0.0557 -0.2000
  168loPI    C2 2674  12.230  11.091  11.255 -0.0366  0.0329 -0.2395
  168loPI    C3 2675  12.267  10.710  11.370  0.1920  0.0571 -0.2286
  168loPI   PO4 2676  11.902  10.840  10.937 -0.0238  0.0221  0.2453
  168loPI   GL1 2677  11.811  10.918  10.540  0.0627 -0.0220  0.0153
  168loPI   GL2 2678  12.007  11.118  10.470  0.0967  0.5490 -0.0181
  168loPI   C1A 2679  11.649  10.852  10.156  0.1210 -0.1961  0.2999
  168loPI   C2A 2680  11.739  10.801   9.802  0.1215  0.2973  0.0343
  168loPI   C3A 2681  11.634  10.813   9.387 -0.1469  0.0515 -0.5071
  168loPI   C4A 2682  11.679  10.880   8.966  0.0479  0.0252 -0.1812
  168loPI   C5A 2683  11.712  10.782   8.512  0.0211 -0.2604 -0.1859
  168loPI   C6A 2684  12.054  10.550   8.341 -0.0325  0.0388 -0.1800
  168loPI   C1B 2685  12.115  11.088   9.998 -0.1576 -0.0617 -0.0027
  168loPI   C2B 2686  12.102  11.132   9.558  0.1767 -0.2439 -0.2875
  168loPI   C3B 2687  12.080  11.133   9.123  0.0780 -0.1473 -0.1721
  168loPI   C4B 2688  12.033  11.183   8.700  0.0836  0.0885  0.0160
  169loPI    C1 2689  15.823  11.527  11.043 -0.3834 -0.1560  0.1674
  169loPI    C2 2690  15.992  11.210  11.218 -0.1329  0.0098  0.2308
  169loPI    C3 2691  15.748  11.447  11.428 -0.1235 -0.0002  0.2531
  169loPI   PO4 2692  15.824  11.430  10.770 -0.3693 -0.0704  0.0712
  169loPI   GL1 2693  15.410  11.568  10.510  0.1575  0.1374 -0.0186
  169loPI   GL2 2694  15.598  11.750  10.378  0.0023  0.1988 -0.2214
  169loPI   C1A 2695  15.238  11.462  10.117  0.0481  0.3395  0.1311
  169loPI   C2A 2696  15.180  11.335   9.712 -0.1739  0.0076  0.0509
  169loPI   C3A 2697  15.146  11.458   9.300  0.2542  0.1051  0.0441
  169loPI   C4A 2698  15.131  11.391   8.910  0.0484  0.0504  0.0566
  169loPI   C5A 2699  15.218  11.384   8.465 -0.0984 -0.0401  0.0182
  169loPI   C6A 2700  15.511  11.547   8.168 -0.0361  0.4654 -0.4279
  169loPI   C1B 2701  15.655  11.696   9.950  0.0421 -0.3226  0.0723
  169loPI   C2B 2702  15.618  11.786   9.531  0.1907 -0.1284 -0.0242
  169loPI   C3B 2703  15.523  11.721   9.068 -0.1442  0.0125 -0.3380
  169loPI   C4B 2704  15.506  11.667   8.734 -0.0913  0.0344 -0.1927
  170loPI    C1 2705   4.782  11.311  11.155 -0.1788  0.0089  0.2037
  170loPI    C2 2706   4.822  10.963  11.349 -0.0423 -0.0524  0.0675
  170loPI    C3 2707   4.880  11.308  11.543  0.4152 -0.1207  0.0634
  170loPI   PO4 2708   4.825  11.278  10.933  0.0402 -0.0191  0.0056
  170loPI   GL1 2709   5.103  11.196  10.753 -0.1143 -0.1655  0.1867
  170loPI   GL2 2710   5.326  11.359  10.684 -0.1942  0.3020  0.0610
  170loPI   C1A 2711   4.922  11.111  10.277 -0.0219 -0.0765  0.2155
  170loPI   C2A 2712   4.925  11.100   9.891  0.0619 -0.0205  0.0204
  170loPI   C3A 2713   4.920  11.017   9.419  0.0684  0.1753 -0.0560
  170loPI   C4A 2714   4.922  10.962   9.041  0.0404  0.1028 -0.1151
  170loPI   C5A 2715   4.986  11.075   8.590  0.2140  0.1907 -0.0456
  170loPI   C6A 2716   4.916  11.321   8.271  0.2338 -0.3602  0.0791
  170loPI   C1B 2717   5.353  11.444  10.258 -0.0265 -0.0288  0.1323
  170loPI   C2B 2718   5.369  11.316   9.878 -0.1211 -0.2450  0.1480
  170loPI   C3B 2719   5.370  11.335   9.404 -0.1170  0.0526 -0.0073
  170loPI   C4B 2720   5.311  11.340   8.924 -0.2205 -0.0206  0.1095
  171loPI    C1 2721   7.156  10.865  11.363  0.1956 -0.1166  0.0336
  171loPI    C2 2722   7.370  11.150  11.545 -0.0543  0.0855  0.0158
  171loPI    C3 2723   7.129  10.914  11.759 -0.1615  0.1611 -0.0208
  171loPI   PO4 2724   7.150  10.996  11.105  0.1404  0.2851 -0.1087
  171loPI   GL1 2725   7.222  10.608  10.801  0.1203 -0.0134 -0.3165
  171loPI   GL2 2726   7.453  10.427  10.687  0.3491  0.1338 -0.1530
  171loPI   C1A 2727   7.186  10.683  10.309  0.2219 -0.1542 -0.1131
  171loPI   C2A 2728   7.248  10.521   9.892  0.0463 -0.0334 -0.1024
  171loPI   C3A 2729   7.275  10.591   9.373 -0.0584 -0.0796 -0.3267
  171loPI   C4A 2730   7.197  10.617   9.015 -0.0387 -0.2450  0.3453
  171loPI   C5A 2731   7.227  10.742   8.608  0.1113  0.1403  0.0140
  171loPI   C6A 2732   7.235  11.143   8.498 -0.4728 -0.0318 -0.2374
  171loPI   C1B 2733   7.420  10.191  10.296 -0.0494  0.1639 -0.2908
  171loPI   C2B 2734   7.345  10.010   9.860 -0.1177  0.0680 -0.0797
  171loPI   C3B 2735   7.404  10.131   9.515 -0.0921  0.0386 -0.0882
  171loPI   C4B 2736   7.313  10.127   9.083 -0.0157 -0.0070  0.1230
  172loPI    C1 2737  17.849   3.011  10.467 -0.0784  0.2469  0.0912
  172loPI    C2 2738  17.572   3.112  10.737  0.0344 -0.1191  0.3533
  172loPI    C3 2739  17.622   2.728  10.636  0.2474 -0.0249  0.0867
  172loPI   PO4 2740  17.846   3.166  10.172 -0.2082  0.1780 -0.0958
  172loPI   GL1 2741  17.674   3.072   9.752 -0.0256 -0.0956  0.4434
  172loPI   GL2 2742  17.476   3.365   9.682  0.2027  0.0147 -0.0081
  172loPI   C1A 2743  17.734   3.127   9.287  0.1260 -0.0493 -0.2072
  172loPI   C2A 2744  17.739   3.026   8.811 -0.1382 -0.2320  0.1407
  172loPI   C3A 2745  17.746   3.204   8.476 -0.1397 -0.0348 -0.1647
  172loPI   C4A 2746  17.457   3.205   8.131  0.1182 -0.0285 -0.0040
  172loPI   C5A 2747  17.345   3.056   7.757  0.1214 -0.1000  0.0513
  172loPI   C6A 2748  17.350   2.647   7.566 -0.1333  0.2118 -0.2819
  172loPI   C1B 2749  17.578   3.574   9.354 -0.0001  0.0161  0.0101
  172loPI   C2B 2750  17.588   3.668   8.964 -0.1286  0.1163 -0.0764
  172loPI   C3B 2751  17.650   3.815   8.665  0.0772  0.0940  0.1098
  172loPI   C4B 2752  17.687   3.708   8.254  0.1953 -0.0235  0.3831
  173loPI    C1 2753   6.928  15.704  10.868 -0.1818  0.2000 -0.1083
  173loPI    C2 2754   6.882  16.053  11.058  0.0592  0.1698  0.0099
  173loPI    C3 2755   6.835  15.709  11.257  0.0333  0.1359 -0.0546
  173loPI   PO4 2756   7.094  15.794  10.615  0.0217  0.0052  0.3050
  173loPI   GL1 2757   6.950  15.958  10.214 -0.1783  0.0059 -0.1181
  173loPI   GL2 2758   6.924  15.594  10.137  0.0909  0.1489  0.0226
  173loPI   C1A 2759   6.928  16.104   9.777 -0.2802 -0.1308  0.0250
  173loPI   C2A 2760   6.889  16.017   9.372  0.1584 -0.0186 -0.1030
  173loPI   C3A 2761   6.866  15.994   8.897 -0.2519  0.0180  0.0262
  173loPI   C4A 2762   6.728  15.992   8.509 -0.0991 -0.1849 -0.2108
  173loPI   C5A 2763   6.517  15.736   8.224  0.3949  0.1376  0.2185
  173loPI   C6A 2764   6.336  15.434   8.216  0.1456  0.4454  0.1773
  173loPI   C1B 2765   6.954  15.624   9.813  0.0849 -0.1951  0.2415
  173loPI   C2B 2766   6.975  15.538   9.353  0.0277 -0.0522  0.4383
  173loPI   C3B 2767   6.923  15.437   8.945 -0.2794  0.1312 -0.2899
  173loPI   C4B 2768   6.823  15.468   8.535 -0.0239 -0.0851 -0.2063
  174loPI    C1 2769   9.547  16.800  10.922 -0.1826 -0.3800 -0.0107
  174loPI    C2 2770   9.321  17.090  10.764  0.1564 -0.0655  0.0678
  174loPI    C3 2771   9.346  17.050  11.161 -0.0310 -0.3204  0.0562
  174loPI   PO4 2772   9.500  16.564  10.827  0.0450 -0.0294 -0.2671
  174loPI   GL1 2773   9.559  16.363  10.408 -0.1636 -0.1520 -0.2198
  174loPI   GL2 2774   9.515  16.697  10.334  0.0680 -0.3402 -0.1187
  174loPI   C1A 2775   9.600  16.086  10.062  0.0365  0.2939 -0.1579
  174loPI   C2A 2776   9.592  16.021   9.710 -0.2065  0.3264 -0.0125
  174loPI   C3A 2777   9.543  15.867   9.304  0.1715 -0.0793 -0.1496
  174loPI   C4A 2778   9.497  15.906   8.866  0.1714  0.0623 -0.0900
  174loPI   C5A 2779   9.686  16.162   8.422 -0.0561 -0.1608  0.5258
  174loPI   C6A 2780   9.748  16.001   7.959  0.1304 -0.0113  0.0006
  174loPI   C1B 2781   9.447  16.586   9.902 -0.0083 -0.0348 -0.1164
  174loPI   C2B 2782   9.495  16.613   9.499  0.1634  0.3019  0.2750
  174loPI   C3B 2783   9.635  16.344   9.206  0.0583  0.1184  0.0805
  174loPI   C4B 2784   9.813  16.429   8.894  0.0046 -0.0510 -0.2259
  175loPI    C1 2785   8.176   7.772  11.671 -0.1780 -0.2798 -0.0147
  175loPI    C2 2786   7.822   7.707  11.845 -0.1100 -0.0897  0.2007
  175loPI    C3 2787   8.066   7.990  11.989  0.0641 -0.1137 -0.0415
  175loPI   PO4 2788   8.054   7.862  11.398  0.2150  0.1630  0.1918
  175loPI   GL1 2789   7.979   7.773  10.880 -0.0404 -0.0114 -0.0411
  175loPI   GL2 2790   7.715   7.977  11.017  0.1139 -0.1284  0.0460
  175loPI   C1A 2791   8.016   7.856  10.386  0.3560 -0.1573  0.0294
  175loPI   C2A 2792   8.042   7.803  10.000  0.1596  0.1509 -0.1357
  175loPI   C3A 2793   8.134   7.945   9.558 -0.2556 -0.1075  0.3021
  175loPI   C4A 2794   8.183   7.905   9.111  0.0899  0.2024  0.3247
  175loPI   C5A 2795   7.983   7.667   8.701  0.2163  0.0683 -0.0396
  175loPI   C6A 2796   7.949   7.566   8.253  0.0303  0.2083  0.4053
  175loPI   C1B 2797   7.568   7.974  10.531  0.1023 -0.1473 -0.3905
  175loPI   C2B 2798   7.526   8.077  10.165  0.1262 -0.0156  0.0680
  175loPI   C3B 2799   7.520   8.027   9.818 -0.1374  0.4473 -0.1491
  175loPI   C4B 2800   7.650   8.026   9.382 -0.0916 -0.2256  0.1127
  176loPI    C1 2801  15.770   0.403  11.041 -0.2139  0.1116  0.1964
  176loPI    C2 2802  15.978   0.086  11.168  0.0265  0.0676 -0.2876
  176loPI    C3 2803  15.728   0.273  11.417  0.1485 -0.2821  0.1083
  176loPI   PO4 2804  15.638   0.345  10.782 -0.0232  0.2625 -0.0363
  176loPI   GL1 2805  15.656   0.326  10.418 -0.0937 -0.0585  0.2738
  176loPI   GL2 2806  15.981   0.403  10.389  0.1011 -0.2307  0.0258
  176loPI   C1A 2807  15.786   0.346   9.953  0.0504 -0.1187 -0.0478
  176loPI   C2A 2808  15.786   0.366   9.481 -0.2648 -0.0811  0.2852
  176loPI   C3A 2809  15.853   0.370   9.024 -0.1301  0.0230 -0.1636
  176loPI   C4A 2810  15.882   0.349   8.524 -0.0396 -0.1553 -0.1988
  176loPI   C5A 2811  16.100   0.194   8.217  0.2215 -0.1731  0.1732
  176loPI   C6A 2812  16.324   0.163   7.790 -0.1636 -0.0275 -0.1214
  176loPI   C1B 2813  16.304   0.305  10.005 -0.0299  0.3195 -0.1958
  176loPI   C2B 2814  16.261   0.184   9.578  0.1822  0.2391  0.2631
  176loPI   C3B 2815  16.297   0.174   9.219  0.0308 -0.1137  0.2421
  176loPI   C4B 2816  16.324   0.229   8.757 -0.1919  0.2484 -0.1929
  177loPI    C1 2817   8.801   0.028  10.728  0.0534 -0.3627 -0.2869
  177loPI    C2 2818   8.597  -0.303  10.635 -0.2632 -0.2112 -0.1486
  177loPI    C3 2819   8.440  -0.036  10.888  0.0400 -0.0101 -0.1673
  177loPI   PO4 2820   8.939   0.075  10.482 -0.0322  0.3425  0.0954
  177loPI   GL1 2821   8.907  -0.135  10.163  0.0887 -0.2698  0.1030
  177loPI   GL2 2822   8.982  -0.398  10.155 -0.0333  0.1947  0.2352
  177loPI   C1A 2823   9.015  -0.190   9.697 -0.0237 -0.2632 -0.0854
  177loPI   C2A 2824   9.066  -0.201   9.263 -0.1411 -0.2275 -0.0825
  177loPI   C3A 2825   8.927  -0.128   8.827  0.0932  0.1596 -0.1686
  177loPI   C4A 2826   8.943  -0.202   8.366  0.0521 -0.0226  0.0774
  177loPI   C5A 2827   8.864  -0.135   7.940 -0.2880 -0.0431 -0.1088
  177loPI   C6A 2828   8.710  -0.129   7.450  0.1209 -0.1275 -0.2146
  177loPI   C1B 2829   9.041  -0.634   9.820 -0.0592 -0.0307 -0.0003
  177loPI   C2B 2830   8.999  -0.631   9.430  0.1622 -0.2943 -0.3106
  177loPI   C3B 2831   9.114  -0.682   8.988  0.2273 -0.0142  0.0642
  177loPI   C4B 2832   9.008  -0.617   8.603  0.0535 -0.1225 -0.0198
  178loPI    C1 2833  10.802  16.279  11.070 -0.0120  0.0685  0.0847
  178loPI    C2 2834  10.727  16.631  11.245  0.0716  0.1468 -0.0351
  178loPI    C3 2835  10.481  16.321  11.306 -0.0522  0.2506 -0.0003
  178loPI   PO4 2836  10.861  16.313  10.749  0.0008 -0.0227 -0.0393
  178loPI   GL1 2837  10.994  16.522  10.376  0.2677 -0.0886  0.1079
  178loPI   GL2 2838  11.197  16.733  10.355 -0.0186 -0.0282  0.1193
  178loPI   C1A 2839  10.793  16.450   9.952 -0.0569  0.3422 -0.1642
  178loPI   C2A 2840  10.686  16.364   9.577 -0.0107 -0.1470 -0.2624
  178loPI   C3A 2841  10.697  16.264   9.135  0.0357  0.3181 -0.0768
  178loPI   C4A 2842  10.762  16.332   8.783 -0.3164 -0.2500  0.0256
  178loPI   C5A 2843  10.771  16.331   8.341  0.0141 -0.0020  0.1374
  178loPI   C6A 2844  10.864  16.313   7.864  0.0408  0.0339 -0.0444
  178loPI   C1B 2845  11.255  16.719   9.872 -0.2206  0.3436 -0.0996
  178loPI   C2B 2846  11.201  16.590   9.490 -0.2986 -0.2630  0.1721
  178loPI   C3B 2847  11.052  16.631   9.082 -0.3847 -0.2623  0.1606
  178loPI   C4B 2848  11.121  16.662   8.670  0.0661 -0.0307 -0.0233
  179loPI    C1 2849   7.897  13.836  11.238 -0.1418  0.1776 -0.0323
  179loPI    C2 2850   7.819  13.605  11.554 -0.2118  0.0847 -0.1165
  179loPI    C3 2851   8.007  13.955  11.603  0.0100 -0.0478 -0.0028
  179loPI   PO4 2852   8.029  13.650  11.054  0.0009 -0.2525  0.0114
  179loPI   GL1 2853   7.927  13.544  10.682 -0.1993 -0.0087  0.0700
  179loPI   GL2 2854   8.184  13.647  10.561 -0.0751 -0.0403  0.1088
  179loPI   C1A 2855   7.837  13.276  10.269  0.1520  0.0150 -0.3587
  179loPI   C2A 2856   7.706  13.337   9.785  0.1701 -0.1612  0.1653
  179loPI   C3A 2857   7.668  13.247   9.350 -0.0524 -0.0407  0.0323
  179loPI   C4A 2858   7.595  13.311   8.934  0.1817  0.0333  0.0057
  179loPI   C5A 2859   7.538  13.140   8.508 -0.1782 -0.1009 -0.1734
  179loPI   C6A 2860   7.770  12.900   8.224  0.1327  0.0101 -0.1332
  179loPI   C1B 2861   8.188  13.736  10.124 -0.1058  0.4010 -0.1868
  179loPI   C2B 2862   8.109  13.628   9.699 -0.0527  0.2692 -0.3239
  179loPI   C3B 2863   8.027  13.678   9.300 -0.1828  0.0480  0.0821
  179loPI   C4B 2864   8.103  13.573   8.854  0.0098  0.1342  0.2655
  180loPI    C1 2865  14.926  14.431  11.378 -0.0223 -0.0032  0.2734
  180loPI    C2 2866  15.283  14.450  11.557  0.0503 -0.0592  0.1366
  180loPI    C3 2867  14.955  14.371  11.772  0.1196 -0.0063  0.2630
  180loPI   PO4 2868  14.915  14.294  11.222  0.4522 -0.0350 -0.0730
  180loPI   GL1 2869  14.959  14.337  10.798  0.1060  0.4478  0.0687
  180loPI   GL2 2870  15.252  14.245  10.656 -0.3197 -0.4659  0.3250
  180loPI   C1A 2871  14.779  14.462  10.441 -0.0378  0.3963  0.1305
  180loPI   C2A 2872  14.712  14.447   9.985 -0.1235  0.2223 -0.2062
  180loPI   C3A 2873  14.690  14.462   9.544 -0.0091  0.1721 -0.0826
  180loPI   C4A 2874  14.693  14.376   9.074 -0.1652  0.2339 -0.1797
  180loPI   C5A 2875  14.533  14.367   8.740  0.0290  0.1057 -0.1821
  180loPI   C6A 2876  14.283  14.559   8.488  0.2134 -0.0206  0.0061
  180loPI   C1B 2877  15.179  14.331  10.198  0.0395 -0.4321 -0.0678
  180loPI   C2B 2878  15.163  14.369   9.763 -0.0938  0.0877  0.0325
  180loPI   C3B 2879  15.122  14.259   9.314  0.0623 -0.0321  0.0076
  180loPI   C4B 2880  15.159  14.198   8.937 -0.0458 -0.1249 -0.4735
  181loPI    C1 2881   7.374   8.435  11.500  0.0180  0.0814  0.2783
  181loPI    C2 2882   7.012   8.337  11.641 -0.0034 -0.0627  0.1268
  181loPI    C3 2883   7.330   8.335  11.885 -0.0932  0.0012  0.2451
  181loPI   PO4 2884   7.443   8.251  11.295  0.2349  0.2279  0.2201
  181loPI   GL1 2885   7.556   8.467  10.936 -0.1069 -0.2106 -0.0585
  181loPI   GL2 2886   7.341   8.767  10.973 -0.1734 -0.0131  0.0182
  181loPI   C1A 2887   7.466   8.518  10.510 -0.0306 -0.3681  0.1194
  181loPI   C2A 2888   7.529   8.627  10.092 -0.2742  0.2702 -0.1060
  181loPI   C3A 2889   7.568   8.479   9.661 -0.2681 -0.0865 -0.1638
  181loPI   C4A 2890   7.585   8.586   9.275 -0.0052 -0.1756  0.1913
  181loPI   C5A 2891   7.496   8.561   8.840 -0.1275  0.1061 -0.1281
  181loPI   C6A 2892   7.396   8.368   8.420 -0.2750 -0.1190  0.1003
  181loPI   C1B 2893   7.055   8.747  10.694 -0.1526  0.1304 -0.0308
  181loPI   C2B 2894   7.013   8.780  10.257  0.0371  0.1079  0.2641
  181loPI   C3B 2895   7.096   8.744   9.802 -0.1433  0.0291  0.0823
  181loPI   C4B 2896   7.056   8.701   9.353 -0.0848 -0.1985  0.0559
  182loPI    C1 2897   8.301   6.907  11.201 -0.1312  0.0713  0.1524
  182loPI    C2 2898   8.283   6.615  11.474  0.0063 -0.0502  0.0336
  182loPI    C3 2899   8.602   6.855  11.460 -0.0395  0.0109  0.0344
  182loPI   PO4 2900   8.238   6.781  11.016  0.0143  0.1643  0.0853
  182loPI   GL1 2901   8.088   6.632  10.713  0.1551  0.4840 -0.0177
  182loPI   GL2 2902   8.017   6.259  10.749 -0.1624  0.0425 -0.1170
  182loPI   C1A 2903   8.221   6.809  10.281 -0.1520 -0.0308 -0.2336
  182loPI   C2A 2904   8.231   6.749   9.843  0.0215 -0.0243 -0.0833
  182loPI   C3A 2905   8.255   6.833   9.502  0.1453 -0.0331 -0.1768
  182loPI   C4A 2906   8.275   6.902   9.104  0.1114 -0.2109  0.0560
  182loPI   C5A 2907   8.104   6.742   8.667  0.2800 -0.1843  0.2363
  182loPI   C6A 2908   7.937   6.685   8.171  0.1609 -0.0350  0.2450
  182loPI   C1B 2909   8.012   5.965  10.521  0.1903 -0.0639  0.2237
  182loPI   C2B 2910   7.924   6.020  10.123  0.0444  0.3994  0.3402
  182loPI   C3B 2911   7.939   6.036   9.686  0.0163 -0.1518 -0.1435
  182loPI   C4B 2912   7.920   6.050   9.201  0.0386 -0.0956 -0.0426
  183loPI    C1 2913  17.648   2.164  10.513 -0.4090 -0.0906 -0.2388
  183loPI    C2 2914  17.624   1.773  10.431 -0.0484 -0.1196 -0.2223
  183loPI    C3 2915  17.863   1.901  10.725 -0.1609  0.1152 -0.2307
  183loPI   PO4 2916  17.605   2.268  10.267 -0.0797  0.1250  0.2108
  183loPI   GL1 2917  17.709   2.148   9.939  0.1216 -0.2511 -0.0417
  183loPI   GL2 2918  17.708   2.474   9.746 -0.4234 -0.0461  0.0396
  183loPI   C1A 2919  17.783   2.011   9.567 -0.2624  0.0044 -0.1117
  183loPI   C2A 2920  17.869   1.994   9.085 -0.2657 -0.0164 -0.0763
  183loPI   C3A 2921  17.915   2.000   8.659  0.0305 -0.0732 -0.1557
  183loPI   C4A 2922  17.801   2.090   8.260 -0.1321 -0.0134 -0.0113
  183loPI   C5A 2923  17.754   2.367   7.901  0.2441 -0.3357 -0.1060
  183loPI   C6A 2924  17.383   2.151   7.625  0.0926  0.1101  0.1177
  183loPI   C1B 2925  17.781   2.532   9.365 -0.0568  0.0997  0.0291
  183loPI   C2B 2926  17.820   2.532   8.885 -0.0690  0.1458 -0.1561
  183loPI   C3B 2927  17.737   2.630   8.488  0.2257  0.1676 -0.2949
  183loPI   C4B 2928  17.867   2.843   8.164 -0.1060 -0.1940 -0.0609
  184loPI    C1 2929  11.591  11.429  11.289  0.1932  0.0740  0.1797
  184loPI    C2 2930  11.479  11.275  11.641  0.1740  0.0916  0.1812
  184loPI    C3 2931  11.774  11.104  11.433 -0.1096 -0.1843 -0.0038
  184loPI   PO4 2932  11.468  11.559  11.074  0.2218  0.2888 -0.1520
  184loPI   GL1 2933  11.473  11.597  10.638 -0.0658 -0.0212 -0.1295
  184loPI   GL2 2934  11.670  11.777  10.578  0.0490 -0.0487  0.4043
  184loPI   C1A 2935  11.637  11.346  10.274 -0.0467  0.0564 -0.2354
  184loPI   C2A 2936  11.661  11.330   9.858  0.3021  0.4185 -0.2350
  184loPI   C3A 2937  11.654  11.363   9.414  0.0616 -0.1272  0.0282
  184loPI   C4A 2938  11.557  11.314   8.923 -0.2187 -0.2364  0.0504
  184loPI   C5A 2939  11.510  11.368   8.456 -0.0467  0.3228  0.3122
  184loPI   C6A 2940  11.725  11.230   8.195  0.2139 -0.0456 -0.0626
  184loPI   C1B 2941  11.464  11.777  10.095 -0.2679 -0.0408  0.0598
  184loPI   C2B 2942  11.542  11.771   9.640 -0.0321  0.1125 -0.0396
  184loPI   C3B 2943  11.528  11.854   9.175 -0.0777  0.1568 -0.0247
  184loPI   C4B 2944  11.551  11.859   8.775 -0.0414  0.1431 -0.0959
  185loPI    C1 2945  16.906   8.664  10.710 -0.1033  0.2264  0.2000
  185loPI    C2 2946  17.153   8.392  10.868 -0.0625  0.0837 -0.1021
  185loPI    C3 2947  16.801   8.468  11.043  0.0752  0.0910  0.1780
  185loPI   PO4 2948  17.036   8.742  10.488  0.2178 -0.1295  0.3448
  185loPI   GL1 2949  16.929   8.906  10.144 -0.1138  0.4435 -0.1942
  185loPI   GL2 2950  16.617   8.915  10.261  0.2617 -0.2353 -0.1372
  185loPI   C1A 2951  17.012   8.784   9.695  0.0054  0.3814  0.3349
  185loPI   C2A 2952  16.962   8.823   9.234  0.5388 -0.1579 -0.3236
  185loPI   C3A 2953  16.888   8.876   8.798 -0.1002  0.0130 -0.0132
  185loPI   C4A 2954  16.918   8.901   8.326 -0.0241 -0.0138 -0.0851
  185loPI   C5A 2955  16.507   8.838   8.114 -0.2787  0.0871  0.0738
  185loPI   C6A 2956  16.559   8.354   8.093  0.1835 -0.1908 -0.2069
  185loPI   C1B 2957  16.529   8.970   9.833  0.2790  0.2335 -0.0417
  185loPI   C2B 2958  16.410   9.029   9.404  0.1241 -0.1756 -0.1236
  185loPI   C3B 2959  16.426   9.076   9.014 -0.2446 -0.1474  0.1575
  185loPI   C4B 2960  16.441   9.052   8.551 -0.1679  0.0650 -0.0007
  186loPI    C1 2961  14.112   8.961  10.940  0.2853  0.0772  0.1165
  186loPI    C2 2962  13.973   8.727  11.233  0.1627 -0.0467 -0.0390
  186loPI    C3 2963  13.829   9.097  11.188  0.0333 -0.0999 -0.0683
  186loPI   PO4 2964  14.078   8.797  10.696  0.0461 -0.1187 -0.0497
  186loPI   GL1 2965  14.165   8.884  10.238 -0.0020 -0.0939 -0.0252
  186loPI   GL2 2966  14.162   9.215  10.393 -0.3491 -0.2091 -0.0551
  186loPI   C1A 2967  14.314   8.853   9.849  0.0860 -0.1274  0.1543
  186loPI   C2A 2968  14.292   8.829   9.398 -0.1868  0.0529  0.1317
  186loPI   C3A 2969  14.261   8.919   8.978 -0.1894  0.1173  0.0430
  186loPI   C4A 2970  14.246   8.925   8.499 -0.0269 -0.0849  0.0795
  186loPI   C5A 2971  14.322   8.840   8.086  0.1835  0.1634  0.2787
  186loPI   C6A 2972  14.473   8.649   7.671  0.2569 -0.0452 -0.0818
  186loPI   C1B 2973  14.183   9.333   9.969  0.1186  0.0233 -0.0532
  186loPI   C2B 2974  14.255   9.389   9.601 -0.2125 -0.1818 -0.1536
  186loPI   C3B 2975  14.186   9.419   9.218 -0.3761  0.3615  0.1085
  186loPI   C4B 2976  14.095   9.496   8.774 -0.0381 -0.0869  0.0796
  187loPI    C1 2977  12.172   2.852  11.180 -0.0478 -0.2269  0.0149
  187loPI    C2 2978  12.120   3.243  11.247 -0.1301 -0.2138 -0.1220
  187loPI    C3 2979  12.301   3.015  11.521  0.0426 -0.0533 -0.1009
  187loPI   PO4 2980  12.007   2.852  10.946  0.0880  0.1741  0.3290
  187loPI   GL1 2981  12.186   2.910  10.565  0.0273  0.0158  0.2151
  187loPI   GL2 2982  12.174   2.635  10.347 -0.1254 -0.2215 -0.1122
  187loPI   C1A 2983  12.087   3.064  10.136 -0.1444  0.2081 -0.3483
  187loPI   C2A 2984  12.046   3.068   9.734 -0.3403  0.1314 -0.2222
  187loPI   C3A 2985  12.067   2.968   9.266  0.1147  0.0499 -0.2182
  187loPI   C4A 2986  12.019   3.070   8.891  0.0352 -0.1621 -0.1115
  187loPI   C5A 2987  12.066   3.066   8.469  0.1176  0.2844  0.1301
  187loPI   C6A 2988  11.980   2.836   8.157  0.3202 -0.2772  0.0842
  187loPI   C1B 2989  12.140   2.560   9.889 -0.2162  0.2739 -0.1289
  187loPI   C2B 2990  12.143   2.531   9.456 -0.0675  0.0532  0.0315
  187loPI   C3B 2991  12.171   2.553   8.988 -0.0245  0.0209  0.0700
  187loPI   C4B 2992  12.111   2.561   8.564  0.0071  0.2253  0.0187
  188loPI    C1 2993   5.817   5.518  11.401 -0.0913  0.0530 -0.1388
  188loPI    C2 2994   5.449   5.632  11.508 -0.0369  0.0784  0.0248
  188loPI    C3 2995   5.731   5.582  11.787  0.1109  0.1557 -0.1094
  188loPI   PO4 2996   5.772   5.710  11.123  0.1321  0.0572 -0.0159
  188loPI   GL1 2997   5.533   5.859  10.877 -0.3163  0.1236  0.0233
  188loPI   GL2 2998   5.400   6.132  10.793  0.0293 -0.1861 -0.1995
  188loPI   C1A 2999   5.682   5.877  10.504  0.1233 -0.1667 -0.2510
  188loPI   C2A 3000   5.689   5.923  10.080  0.0186 -0.1760  0.3756
  188loPI   C3A 3001   5.710   5.951   9.648 -0.2281 -0.1348 -0.1270
  188loPI   C4A 3002   5.668   5.946   9.259  0.0706 -0.1724  0.2192
  188loPI   C5A 3003   5.668   5.994   8.877 -0.1677  0.0408  0.2157
  188loPI   C6A 3004   5.949   5.973   8.581  0.0650 -0.1108 -0.0616
  188loPI   C1B 3005   5.287   6.130  10.375  0.0100 -0.0066  0.4259
  188loPI   C2B 3006   5.212   6.240   9.986  0.1571  0.0505 -0.1449
  188loPI   C3B 3007   5.233   6.217   9.475 -0.1430 -0.0802 -0.2534
  188loPI   C4B 3008   5.195   6.222   9.095  0.2262 -0.0794  0.0706
  189loPI    C1 3009   6.778   7.359  11.688  0.0445 -0.2133  0.1383
  189loPI    C2 3010   6.996   7.046  11.809 -0.1240 -0.3873 -0.0031
  189loPI    C3 3011   6.604   7.003  11.739 -0.1461 -0.1472 -0.0367
  189loPI   PO4 3012   6.887   7.470  11.473  0.1528 -0.3260  0.2658
  189loPI   GL1 3013   6.883   7.433  11.038  0.2660 -0.1600  0.0612
  189loPI   GL2 3014   7.241   7.207  10.924  0.1136 -0.0689  0.0098
  189loPI   C1A 3015   6.833   7.535  10.634 -0.1233  0.2220 -0.0848
  189loPI   C2A 3016   6.843   7.389  10.237 -0.1994  0.1605 -0.0863
  189loPI   C3A 3017   6.787   7.417   9.822  0.0888 -0.0843 -0.1289
  189loPI   C4A 3018   6.860   7.387   9.438 -0.0671  0.0505  0.1499
  189loPI   C5A 3019   6.913   7.431   9.056  0.1813 -0.1418  0.3004
  189loPI   C6A 3020   7.109   7.570   8.734  0.2053  0.2717  0.4750
  189loPI   C1B 3021   7.281   7.166  10.434 -0.0447 -0.1856 -0.2360
  189loPI   C2B 3022   7.288   7.226   9.983  0.0539 -0.1890 -0.1446
  189loPI   C3B 3023   7.346   7.210   9.612 -0.1757 -0.0777  0.1890
  189loPI   C4B 3024   7.326   7.233   9.207 -0.1037 -0.0626  0.2586
  190loPI    C1 3025  16.516   0.257  11.149  0.0003  0.2112 -0.0628
  190loPI    C2 3026  16.914   0.296  11.137  0.0166  0.2309  0.3736
  190loPI    C3 3027  16.751  -0.052  11.248 -0.0987  0.0871 -0.2106
  190loPI   PO4 3028  16.362   0.237  10.918 -0.1030 -0.0251  0.1001
  190loPI   GL1 3029  16.443   0.238  10.456 -0.1021 -0.1215 -0.2384
  190loPI   GL2 3030  16.701   0.196  10.239 -0.0875  0.2959 -0.2106
  190loPI   C1A 3031  16.411  -0.189  10.118 -0.2516  0.0161 -0.1340
  190loPI   C2A 3032  16.355  -0.283   9.773  0.0283 -0.0215  0.1259
  190loPI   C3A 3033  16.354  -0.363   9.323 -0.1334 -0.2620  0.0774
  190loPI   C4A 3034  16.345  -0.268   8.937 -0.0847 -0.1929  0.2981
  190loPI   C5A 3035  16.428  -0.277   8.551 -0.0046 -0.1433  0.1467
  190loPI   C6A 3036  16.395  -0.218   8.132  0.1880  0.2351 -0.0559
  190loPI   C1B 3037  16.782   0.034   9.850  0.1865  0.1056 -0.0291
  190loPI   C2B 3038  16.715  -0.018   9.454  0.2505  0.1415  0.0950
  190loPI   C3B 3039  16.741  -0.016   9.015  0.1455  0.0971  0.0758
  190loPI   C4B 3040  16.780   0.094   8.554  0.0745 -0.2170 -0.2239
  191loPI    C1 3041  13.887   4.601  11.200 -0.0856 -0.0473 -0.0936
  191loPI    C2 3042  13.740   4.944  11.345 -0.0395  0.0013 -0.1614
  191loPI    C3 3043  13.542   4.602  11.404 -0.0148  0.0182  0.0274
  191loPI   PO4 3044  13.913   4.672  10.973  0.0149 -0.0933  0.1811
  191loPI   GL1 3045  13.875   5.045  10.731 -0.1950 -0.1485 -0.0562
  191loPI   GL2 3046  14.089   5.093  10.636  0.3047  0.0577 -0.2110
  191loPI   C1A 3047  13.660   4.872  10.395  0.0806 -0.0507  0.0200
  191loPI   C2A 3048  13.581   4.924   9.882 -0.1950  0.1295  0.2387
  191loPI   C3A 3049  13.503   4.872   9.485 -0.1872 -0.0760 -0.0991
  191loPI   C4A 3050  13.473   4.829   9.026 -0.0355  0.3553  0.2337
  191loPI   C5A 3051  13.434   4.884   8.570 -0.0176 -0.3155  0.0180
  191loPI   C6A 3052  13.217   4.781   8.243  0.1032 -0.1458  0.2878
  191loPI   C1B 3053  14.002   5.173  10.214  0.0123 -0.0303  0.2000
  191loPI   C2B 3054  13.906   5.232   9.764 -0.0744  0.0338 -0.3681
  191loPI   C3B 3055  13.856   5.205   9.301  0.0717 -0.1058 -0.0999
  191loPI   C4B 3056  13.880   5.239   8.905  0.1044  0.0017 -0.1806
  192loPI    C1 3057   1.098   5.400  10.824 -0.1276 -0.1097 -0.1255
  192loPI    C2 3058   0.931   5.342  11.183 -0.1895 -0.2689 -0.1794
  192loPI    C3 3059   1.247   5.123  11.071  0.2700  0.2516  0.0528
  192loPI   PO4 3060   0.910   5.363  10.642 -0.1230  0.2111 -0.2537
  192loPI   GL1 3061   0.691   5.295  10.312 -0.1481 -0.0119 -0.1037
  192loPI   GL2 3062   0.957   5.109  10.238  0.1389 -0.0477  0.3341
  192loPI   C1A 3063   0.373   5.342   9.952  0.0830 -0.0929  0.1962
  192loPI   C2A 3064   0.424   5.388   9.547 -0.0099  0.0548 -0.0891
  192loPI   C3A 3065   0.431   5.365   9.112 -0.1562  0.1024 -0.0438
  192loPI   C4A 3066   0.537   5.462   8.691  0.2346 -0.2130 -0.1024
  192loPI   C5A 3067   0.562   5.602   8.250  0.0089  0.2652 -0.3888
  192loPI   C6A 3068   0.350   5.634   7.881  0.3245 -0.1580 -0.1018
  192loPI   C1B 3069   0.853   5.156   9.805  0.0527 -0.0876 -0.0718
  192loPI   C2B 3070   0.882   5.213   9.359  0.1026 -0.2211 -0.2435
  192loPI   C3B 3071   0.948   5.330   8.912 -0.0019  0.0502 -0.0657
  192loPI   C4B 3072   0.903   5.324   8.416 -0.1119 -0.0850  0.0070
  193loPI    C1 3073  14.083  14.081  11.279  0.1938 -0.1161  0.2913
  193loPI    C2 3074  13.952  14.443  11.388  0.0668 -0.0719  0.0013
  193loPI    C3 3075  13.958  14.144  11.654  0.0898  0.1190  0.2189
  193loPI   PO4 3076  14.072  14.063  11.041 -0.2806  0.1368  0.1841
  193loPI   GL1 3077  14.240  14.211  10.688 -0.3640 -0.0771  0.1314
  193loPI   GL2 3078  13.923  14.149  10.551  0.0006  0.1091  0.3467
  193loPI   C1A 3079  14.396  14.091  10.352  0.1868 -0.1808  0.2060
  193loPI   C2A 3080  14.353  14.121   9.918 -0.3563 -0.1459  0.2851
  193loPI   C3A 3081  14.368  14.093   9.468  0.0566  0.1194 -0.0740
  193loPI   C4A 3082  14.282  14.031   9.022 -0.1477 -0.2986  0.1388
  193loPI   C5A 3083  14.099  14.082   8.576 -0.1227  0.1654  0.4006
  193loPI   C6A 3084  13.704  14.328   8.411  0.0045  0.2238  0.2430
  193loPI   C1B 3085  13.893  14.316  10.136 -0.0400  0.1818 -0.1438
  193loPI   C2B 3086  13.885  14.237   9.709 -0.0567 -0.1344 -0.2052
  193loPI   C3B 3087  13.772  14.281   9.352  0.0958  0.1391  0.1247
  193loPI   C4B 3088  13.764  14.245   8.909 -0.3052  0.1004  0.0623
  194loPI    C1 3089   5.486  17.832  10.418  0.1482 -0.0590 -0.0583
  194loPI    C2 3090   5.337  18.196  10.491  0.0721 -0.1007 -0.0038
  194loPI    C3 3091   5.574  18.018  10.761 -0.1718 -0.2356  0.1250
  194loPI   PO4 3092   5.511  17.832  10.156 -0.1124  0.0399 -0.3101
  194loPI   GL1 3093   5.289  18.277   9.987  0.0366  0.3453 -0.0511
  194loPI   GL2 3094   5.682  18.281  10.026 -0.2242  0.0040 -0.1899
  194loPI   C1A 3095   5.212  18.230   9.532  0.1784  0.1308 -0.0542
  194loPI   C2A 3096   5.231  18.317   9.042  0.2765 -0.3323 -0.5055
  194loPI   C3A 3097   5.252  18.246   8.629  0.0844 -0.2051 -0.1634
  194loPI   C4A 3098   5.156  18.305   8.225  0.1255  0.0090  0.0298
  194loPI   C5A 3099   5.011  18.664   7.898  0.2492  0.2655 -0.0830
  194loPI   C6A 3100   5.100  19.064   7.733  0.0932  0.0191  0.2024
  194loPI   C1B 3101   5.668  18.115   9.625  0.3248 -0.0146 -0.1072
  194loPI   C2B 3102   5.704  18.014   9.208 -0.1807  0.0478 -0.1826
  194loPI   C3B 3103   5.644  17.898   8.808  0.2116 -0.1522  0.0366
  194loPI   C4B 3104   5.789  17.756   8.362  0.2570 -0.1976 -0.2387
  195loPI    C1 3105   9.384   6.515  11.259  0.2309  0.0250 -0.0502
  195loPI    C2 3106   9.111   6.650  11.517 -0.0169 -0.1291 -0.2276
  195loPI    C3 3107   9.483   6.796  11.526 -0.0039 -0.1753  0.2537
  195loPI   PO4 3108   9.257   6.497  11.025 -0.2221 -0.3672  0.1985
  195loPI   GL1 3109   9.227   6.548  10.624 -0.0584  0.2226 -0.1713
  195loPI   GL2 3110   9.037   6.840  10.628 -0.0710  0.0805 -0.0973
  195loPI   C1A 3111   9.230   6.518  10.120  0.0464 -0.1432 -0.0786
  195loPI   C2A 3112   9.264   6.477   9.615 -0.2142 -0.3720  0.1552
  195loPI   C3A 3113   9.220   6.433   9.136  0.1427  0.2565  0.2363
  195loPI   C4A 3114   9.160   6.517   8.813 -0.0956 -0.0589  0.0434
  195loPI   C5A 3115   9.035   6.828   8.456  0.2739  0.1873  0.0137
  195loPI   C6A 3116   9.267   7.199   8.381  0.3738 -0.3061 -0.0077
  195loPI   C1B 3117   9.084   6.996  10.185  0.0274  0.2018  0.0206
  195loPI   C2B 3118   9.198   6.964   9.768 -0.1979 -0.1358 -0.1464
  195loPI   C3B 3119   9.088   6.912   9.290  0.0256 -0.1802 -0.2786
  195loPI   C4B 3120   9.159   7.004   8.900  0.4177  0.2498  0.0004
  196loPI    C1 3121   3.683  14.776  11.170 -0.1824 -0.0016  0.1737
  196loPI    C2 3122   3.749  14.436  11.370 -0.0276  0.0013  0.1292
  196loPI    C3 3123   3.790  14.789  11.555 -0.1011 -0.0017  0.1515
  196loPI   PO4 3124   3.728  14.690  10.856  0.1896  0.2977 -0.1014
  196loPI   GL1 3125   3.539  14.483  10.527 -0.0600  0.4078  0.1755
  196loPI   GL2 3126   3.921  14.395  10.535  0.1517 -0.0531 -0.1254
  196loPI   C1A 3127   3.500  14.420  10.214 -0.0179 -0.1562  0.1819
  196loPI   C2A 3128   3.480  14.308   9.811  0.2998 -0.0542 -0.1390
  196loPI   C3A 3129   3.480  14.361   9.390 -0.0024 -0.0631  0.2122
  196loPI   C4A 3130   3.411  14.338   9.006  0.1837  0.0883  0.0827
  196loPI   C5A 3131   3.396  14.264   8.673 -0.2455 -0.1349  0.2226
  196loPI   C6A 3132   3.227  14.018   8.313  0.1332 -0.1689  0.2554
  196loPI   C1B 3133   3.995  14.199  10.167 -0.1445  0.2295 -0.0376
  196loPI   C2B 3134   3.912  14.170   9.695 -0.1144 -0.0044 -0.3519
  196loPI   C3B 3135   3.957  14.230   9.246  0.0440  0.4421  0.4132
  196loPI   C4B 3136   3.881  14.182   8.819  0.3794  0.2502  0.2324
  197loPI    C1 3137  13.406  10.276  10.829  0.1094  0.0612  0.0645
  197loPI    C2 3138  13.317   9.950  11.043 -0.2025 -0.0735 -0.2609
  197loPI    C3 3139  13.534  10.243  11.207  0.0427 -0.4202  0.0519
  197loPI   PO4 3140  13.213  10.252  10.645 -0.0214 -0.2520 -0.3568
  197loPI   GL1 3141  13.196  10.164  10.316 -0.2441  0.3855  0.0389
  197loPI   GL2 3142  13.057  10.488  10.237  0.0167  0.0750  0.1345
  197loPI   C1A 3143  13.161  10.284   9.818  0.3387  0.0992  0.0872
  197loPI   C2A 3144  13.166  10.302   9.383 -0.0221 -0.1829  0.0803
  197loPI   C3A 3145  13.041  10.232   8.974  0.0276 -0.1078  0.1242
  197loPI   C4A 3146  13.085  10.295   8.534  0.1643  0.3117  0.3353
  197loPI   C5A 3147  13.075  10.071   8.155 -0.2407  0.1901 -0.1438
  197loPI   C6A 3148  12.733  10.137   7.943  0.0192  0.0394  0.5010
  197loPI   C1B 3149  13.147  10.802   9.891 -0.0994  0.0149  0.0866
  197loPI   C2B 3150  13.030  10.803   9.454 -0.0959 -0.0981 -0.0076
  197loPI   C3B 3151  12.994  10.849   9.086 -0.1499  0.0406  0.0026
  197loPI   C4B 3152  12.924  10.822   8.689  0.0463 -0.0369  0.1401
  198loPI    C1 3153   9.093   9.762  10.937 -0.0084 -0.2865  0.0360
  198loPI    C2 3154   9.155   9.496  11.229 -0.0818 -0.0155  0.3037
  198loPI    C3 3155   9.254   9.880  11.284 -0.1329  0.0462 -0.0157
  198loPI   PO4 3156   8.847   9.630  10.822  0.0311  0.0315  0.2350
  198loPI   GL1 3157   8.802   9.382  10.489 -0.0834 -0.0149  0.0300
  198loPI   GL2 3158   8.751   9.120  10.462  0.1478  0.0587  0.1550
  198loPI   C1A 3159   8.779   9.590  10.113 -0.2261 -0.1411  0.2425
  198loPI   C2A 3160   8.626   9.608   9.665 -0.0173  0.3255  0.2924
  198loPI   C3A 3161   8.710   9.588   9.220  0.0476 -0.0235 -0.1516
  198loPI   C4A 3162   8.698   9.605   8.785 -0.0307 -0.2476  0.0981
  198loPI   C5A 3163   8.872   9.504   8.362 -0.1192  0.2071  0.0639
  198loPI   C6A 3164   8.932   9.048   8.355 -0.1194 -0.2250 -0.0062
  198loPI   C1B 3165   8.783   9.027  10.035  0.0779  0.0074 -0.0486
  198loPI   C2B 3166   8.799   9.085   9.667 -0.0565  0.1078 -0.0667
  198loPI   C3B 3167   8.789   9.054   9.194  0.0688  0.1024  0.1149
  198loPI   C4B 3168   8.732   9.050   8.815 -0.2841  0.0645 -0.1350
  199loPI    C1 3169  11.697  17.805  11.079 -0.0644 -0.0673  0.0068
  199loPI    C2 3170  11.894  17.607  11.365 -0.0465  0.0302  0.0630
  199loPI    C3 3171  11.677  17.929  11.459  0.2328  0.2651 -0.0808
  199loPI   PO4 3172  11.793  17.863  10.861  0.3106 -0.0730 -0.0667
  199loPI   GL1 3173  11.699  17.658  10.554  0.2232 -0.0776  0.0027
  199loPI   GL2 3174  11.597  17.869  10.402  0.3538 -0.2332 -0.2770
  199loPI   C1A 3175  11.893  17.420  10.184 -0.0075 -0.1913 -0.0722
  199loPI   C2A 3176  11.963  17.321   9.731  0.2137 -0.0212  0.2334
  199loPI   C3A 3177  11.832  17.372   9.322 -0.0434  0.3065  0.2460
  199loPI   C4A 3178  11.916  17.372   8.899 -0.0376  0.0828 -0.3815
  199loPI   C5A 3179  11.797  17.314   8.467 -0.1163 -0.0319 -0.0283
  199loPI   C6A 3180  11.745  16.973   8.221  0.2704  0.2746 -0.1860
  199loPI   C1B 3181  11.764  17.914  10.021 -0.0211  0.0865  0.2652
  199loPI   C2B 3182  11.893  17.792   9.685  0.2018  0.0342  0.0846
  199loPI   C3B 3183  11.823  17.876   9.268 -0.2183 -0.0345  0.0515
  199loPI   C4B 3184  11.690  17.856   8.783 -0.0884  0.1265 -0.1093
  200loPI    C1 3185  17.105  16.318  11.189 -0.3402  0.1062  0.1119
  200loPI    C2 3186  17.259  16.607  11.418  0.0895 -0.0303  0.0043
  200loPI    C3 3187  17.113  16.275  11.586 -0.0977  0.1023  0.1078
  200loPI   PO4 3188  17.218  16.393  10.958  0.2183 -0.1584 -0.3745
  200loPI   GL1 3189  17.342  16.555  10.643  0.0279 -0.0061  0.0380
  200loPI   GL2 3190  17.075  16.682  10.512  0.2605  0.0029  0.1484
  200loPI   C1A 3191  17.509  16.323  10.303 -0.1906 -0.0021 -0.2840
  200loPI   C2A 3192  17.482  16.229   9.909  0.1393  0.0267  0.0634
  200loPI   C3A 3193  17.408  16.317   9.381 -0.0904  0.0390  0.3001
  200loPI   C4A 3194  17.456  16.277   9.029 -0.0128  0.0105 -0.0011
  200loPI   C5A 3195  17.471  16.253   8.545  0.2633 -0.0427  0.0102
  200loPI   C6A 3196  17.530  16.368   8.068  0.2755 -0.1175 -0.0248
  200loPI   C1B 3197  17.036  16.519  10.133 -0.3677 -0.0004 -0.0589
  200loPI   C2B 3198  16.990  16.470   9.682 -0.0258 -0.0851  0.0301
  200loPI   C3B 3199  16.983  16.398   9.216  0.4674 -0.2770 -0.2081
  200loPI   C4B 3200  17.011  16.423   8.764 -0.0766 -0.1166  0.1492
  201loPI    C1 3201   4.365   3.704  11.052  0.0027 -0.1462 -0.0976
  201loPI    C2 3202   4.116   3.707  11.366  0.0413  0.1933 -0.0663
  201loPI    C3 3203   4.511   3.684  11.424  0.0344 -0.0494 -0.1046
  201loPI   PO4 3204   4.196   3.767  10.872  0.1602 -0.2561 -0.1000
  201loPI   GL1 3205   4.243   3.708  10.396 -0.0260 -0.2072 -0.3709
  201loPI   GL2 3206   4.326   4.057  10.413  0.0344  0.0440  0.2089
  201loPI   C1A 3207   4.228   3.779   9.928  0.1119  0.0379 -0.2312
  201loPI   C2A 3208   4.193   3.662   9.526  0.3326 -0.1908 -0.0610
  201loPI   C3A 3209   4.136   3.682   9.051  0.2133 -0.0829  0.2238
  201loPI   C4A 3210   4.280   3.630   8.655  0.5063  0.1607 -0.0730
  201loPI   C5A 3211   4.169   3.642   8.233 -0.0725  0.3189 -0.1071
  201loPI   C6A 3212   4.203   3.527   7.809 -0.1186  0.2139 -0.0375
  201loPI   C1B 3213   4.131   4.281   9.960  0.1643  0.0548  0.0186
  201loPI   C2B 3214   4.050   4.308   9.469 -0.1479  0.1165 -0.1993
  201loPI   C3B 3215   4.126   4.178   9.106  0.1016  0.0992  0.0271
  201loPI   C4B 3216   4.199   4.212   8.642  0.2143  0.3038  0.0615
  202loPI    C1 3217  14.250  11.463  11.258 -0.0813  0.1488 -0.0476
  202loPI    C2 3218  13.969  11.318  11.504  0.1205 -0.2458 -0.0406
  202loPI    C3 3219  14.342  11.373  11.637  0.0939  0.1049 -0.0999
  202loPI   PO4 3220  14.216  11.297  11.053  0.2366  0.1846  0.0396
  202loPI   GL1 3221  14.255  11.498  10.633  0.1618  0.0897  0.1031
  202loPI   GL2 3222  14.457  11.228  10.473  0.1610  0.0181 -0.3822
  202loPI   C1A 3223  14.198  11.757  10.217 -0.5350 -0.3090 -0.0247
  202loPI   C2A 3224  14.302  11.773   9.762 -0.2789 -0.0064  0.1497
  202loPI   C3A 3225  14.234  11.837   9.402  0.0367  0.0315  0.0031
  202loPI   C4A 3226  14.196  11.688   9.057  0.0417  0.1580 -0.0745
  202loPI   C5A 3227  14.194  11.730   8.643 -0.0210 -0.1553 -0.0490
  202loPI   C6A 3228  14.359  11.810   8.323 -0.0704  0.2841 -0.2993
  202loPI   C1B 3229  14.333  11.331  10.070 -0.1894  0.2219  0.0755
  202loPI   C2B 3230  14.285  11.232   9.617  0.0336  0.2005  0.0859
  202loPI   C3B 3231  14.368  11.201   9.199 -0.1776  0.0031  0.3578
  202loPI   C4B 3232  14.345  11.261   8.859 -0.0569 -0.0029 -0.0884
  203loPI    C1 3233   0.016   9.037  11.042  0.0317  0.2316  0.1529
  203loPI    C2 3234  -0.323   8.994  11.249 -0.0060 -0.3068 -0.0058
  203loPI    C3 3235   0.025   9.033  11.442 -0.1441  0.1997  0.1572
  203loPI   PO4 3236  -0.010   8.891  10.813 -0.0605  0.2243 -0.0145
  203loPI   GL1 3237   0.174   8.726  10.326  0.0063  0.1237 -0.2632
  203loPI   GL2 3238   0.487   8.819  10.171  0.1049  0.0228 -0.1317
  203loPI   C1A 3239  -0.014   8.448  10.026  0.5617 -0.1022 -0.1731
  203loPI   C2A 3240   0.032   8.381   9.547  0.0217  0.2087  0.1505
  203loPI   C3A 3241   0.006   8.491   9.046 -0.0691 -0.2462  0.2638
  203loPI   C4A 3242  -0.151   8.462   8.607 -0.0236  0.0329  0.4118
  203loPI   C5A 3243  -0.235   8.647   8.248 -0.1150  0.3223 -0.2249
  203loPI   C6A 3244  -0.082   8.664   7.832 -0.1705 -0.1928 -0.1147
  203loPI   C1B 3245   0.173   8.860   9.824 -0.2704 -0.0672  0.0165
  203loPI   C2B 3246  -0.090   8.881   9.511 -0.0663  0.0139 -0.1304
  203loPI   C3B 3247  -0.135   8.952   9.055 -0.0348 -0.0968  0.0079
  203loPI   C4B 3248  -0.216   8.998   8.593  0.1582 -0.0339  0.1331
  204loPI    C1 3249   8.827  16.294  10.817  0.0744 -0.0148  0.0824
  204loPI    C2 3250   9.189  16.152  10.721  0.0664 -0.0709  0.1353
  204loPI    C3 3251   9.020  16.051  11.069 -0.0902 -0.2127  0.0194
  204loPI   PO4 3252   8.684  16.219  10.592 -0.0664 -0.2705 -0.1445
  204loPI   GL1 3253   8.609  16.049  10.235  0.3422 -0.0522  0.0532
  204loPI   GL2 3254   8.765  15.744  10.110  0.0365 -0.1444  0.0379
  204loPI   C1A 3255   8.340  16.060   9.870 -0.1649 -0.0647  0.1611
  204loPI   C2A 3256   8.322  16.098   9.389 -0.1013 -0.1388 -0.1060
  204loPI   C3A 3257   8.281  15.976   8.986 -0.1506 -0.4645 -0.2252
  204loPI   C4A 3258   8.203  16.117   8.552 -0.0020 -0.2466 -0.0082
  204loPI   C5A 3259   8.506  16.190   8.272 -0.1022  0.2862  0.0165
  204loPI   C6A 3260   8.805  16.188   7.946 -0.0216 -0.0048 -0.0537
  204loPI   C1B 3261   8.687  15.789   9.722  0.3470  0.2970  0.0108
  204loPI   C2B 3262   8.721  15.838   9.249 -0.0750  0.1260 -0.0781
  204loPI   C3B 3263   8.858  15.980   8.869  0.1979 -0.0080  0.1596
  204loPI   C4B 3264   8.663  15.812   8.542 -0.0638 -0.0627  0.3924
  205loPI    C1 3265   9.769   8.966  10.872  0.1814 -0.1959  0.0963
  205loPI    C2 3266   9.429   8.943  11.082  0.0500 -0.0507 -0.0964
  205loPI    C3 3267   9.781   8.881  11.263 -0.0733 -0.1319  0.1197
  205loPI   PO4 3268   9.698   9.137  10.679  0.3251 -0.0455  0.1404
  205loPI   GL1 3269   9.827   9.183  10.307 -0.0646  0.0153  0.2767
  205loPI   GL2 3270  10.135   9.392  10.336  0.1337  0.2883 -0.2811
  205loPI   C1A 3271   9.754   9.280   9.864 -0.0185 -0.2037 -0.0179
  205loPI   C2A 3272   9.763   9.223   9.370 -0.0892 -0.1722  0.0534
  205loPI   C3A 3273   9.663   9.153   8.933  0.0985 -0.0833 -0.0973
  205loPI   C4A 3274   9.405   9.070   8.552  0.1309  0.0249  0.3865
  205loPI   C5A 3275   9.238   8.644   8.344  0.1228 -0.0679 -0.2343
  205loPI   C6A 3276   8.849   8.571   8.197 -0.0583 -0.2227 -0.0707
  205loPI   C1B 3277  10.161   9.474   9.920 -0.0950  0.1489  0.0232
  205loPI   C2B 3278  10.126   9.551   9.487 -0.3797  0.0018  0.2570
  205loPI   C3B 3279  10.147   9.449   9.152 -0.0026 -0.0520 -0.1243
  205loPI   C4B 3280  10.018   9.519   8.807  0.3782 -0.0025 -0.0077
  206loPI    C1 3281   5.062   5.828  11.287 -0.1261  0.0387 -0.0300
  206loPI    C2 3282   4.761   5.754  11.540  0.0396 -0.1282  0.1215
  206loPI    C3 3283   5.058   5.999  11.649  0.1508 -0.2609  0.1206
  206loPI   PO4 3284   5.009   5.874  11.111 -0.3609 -0.1703 -0.2302
  206loPI   GL1 3285   4.945   5.780  10.712 -0.0993  0.1625  0.1638
  206loPI   GL2 3286   4.693   5.826  10.491  0.1212  0.1844 -0.0986
  206loPI   C1A 3287   5.235   5.640  10.401 -0.2686 -0.3525  0.1757
  206loPI   C2A 3288   5.275   5.615   9.922 -0.3624 -0.1244 -0.1532
  206loPI   C3A 3289   5.320   5.621   9.507  0.1819 -0.2553  0.1035
  206loPI   C4A 3290   5.281   5.715   9.133  0.1601 -0.2051  0.1375
  206loPI   C5A 3291   5.382   5.678   8.658  0.3467 -0.3522  0.0274
  206loPI   C6A 3292   5.552   5.927   8.267  0.1136 -0.0678  0.0068
  206loPI   C1B 3293   4.808   5.836  10.078  0.0587  0.2161  0.0561
  206loPI   C2B 3294   4.885   5.890   9.671  0.4239 -0.0015 -0.2450
  206loPI   C3B 3295   4.802   5.828   9.285 -0.1364 -0.0585  0.0552
  206loPI   C4B 3296   4.860   5.905   8.884  0.1163 -0.1494 -0.0015
  207loPI    C1 3297  17.893  14.002  11.315 -0.0670  0.2275 -0.0628
  207loPI    C2 3298  17.547  13.825  11.408  0.1006  0.0366  0.2141
  207loPI    C3 3299  17.886  13.703  11.581  0.2664  0.4180  0.1674
  207loPI   PO4 3300  17.946  14.080  11.011 -0.0564  0.2084 -0.3265
  207loPI   GL1 3301  18.289  13.981  10.766 -0.1176 -0.0462 -0.1377
  207loPI   GL2 3302  18.251  14.226  10.527  0.2406  0.0451 -0.4512
  207loPI   C1A 3303  18.655  13.928  10.505  0.3231  0.1124  0.0356
  207loPI   C2A 3304  18.794  13.937  10.050  0.2861  0.1548 -0.0071
  207loPI   C3A 3305  18.835  13.960   9.603 -0.1584  0.0739  0.0589
  207loPI   C4A 3306  18.806  13.863   9.172  0.0821  0.1377  0.1326
  207loPI   C5A 3307  18.806  13.949   8.757 -0.0163  0.1277 -0.0264
  207loPI   C6A 3308  18.635  13.888   8.387  0.1917 -0.1311 -0.3009
  207loPI   C1B 3309  18.302  14.124  10.061 -0.3600  0.2687 -0.3238
  207loPI   C2B 3310  18.304  14.060   9.702 -0.5268  0.2449  0.1373
  207loPI   C3B 3311  18.305  14.041   9.183  0.0459 -0.0697 -0.0186
  207loPI   C4B 3312  18.316  13.921   8.778  0.1399 -0.0042  0.1630
  208loPI    C1 3313   3.530  17.952  10.498 -0.0171  0.0105 -0.0419
  208loPI    C2 3314   3.677  18.313  10.584  0.1077 -0.0214 -0.1192
  208loPI    C3 3315   3.918  18.029  10.438  0.0658 -0.2165  0.1832
  208loPI   PO4 3316   3.269  17.988  10.342 -0.1246  0.0408  0.0097
  208loPI   GL1 3317   3.152  18.175   9.947  0.3414  0.1373 -0.0882
  208loPI   GL2 3318   2.879  18.013   9.906 -0.2477  0.1147 -0.1387
  208loPI   C1A 3319   3.351  18.155   9.549 -0.1168  0.2048 -0.1491
  208loPI   C2A 3320   3.491  18.086   9.129 -0.0818  0.2698 -0.2401
  208loPI   C3A 3321   3.337  18.106   8.742  0.2627 -0.0972 -0.0426
  208loPI   C4A 3322   3.289  18.184   8.317  0.0282  0.0270 -0.0257
  208loPI   C5A 3323   3.142  18.058   7.904 -0.0381  0.0063  0.2066
  208loPI   C6A 3324   2.703  17.960   7.690  0.0376 -0.2580  0.3104
  208loPI   C1B 3325   2.884  17.875   9.514 -0.3260 -0.2178 -0.0289
  208loPI   C2B 3326   3.010  17.908   9.136 -0.0162 -0.0669  0.1494
  208loPI   C3B 3327   2.935  17.768   8.711 -0.3171 -0.1217 -0.2593
  208loPI   C4B 3328   2.865  17.687   8.234 -0.2022  0.1044 -0.0298
  209loPI    C1 3329  17.371  10.172  10.899  0.1295 -0.1015  0.0626
  209loPI    C2 3330  17.089  10.451  10.944  0.1389 -0.0645 -0.1017
  209loPI    C3 3331  17.421  10.464  11.167  0.0654 -0.0391  0.0069
  209loPI   PO4 3332  17.458  10.159  10.653 -0.1498  0.1471 -0.1008
  209loPI   GL1 3333  17.593   9.951  10.302 -0.0095  0.0576 -0.1473
  209loPI   GL2 3334  17.657   9.676  10.177 -0.0066  0.2435  0.4569
  209loPI   C1A 3335  17.638  10.098   9.940  0.1422  0.0241  0.0812
  209loPI   C2A 3336  17.676   9.915   9.541 -0.1596  0.0415 -0.1100
  209loPI   C3A 3337  17.661   9.939   9.127  0.0819  0.0405 -0.2582
  209loPI   C4A 3338  17.625   9.905   8.676  0.0437 -0.0131  0.2365
  209loPI   C5A 3339  17.796   9.976   8.272 -0.0408 -0.0776  0.3302
  209loPI   C6A 3340  18.087  10.171   8.131  0.0727 -0.2497 -0.1277
  209loPI   C1B 3341  17.304   9.686   9.897 -0.3379  0.1683 -0.0695
  209loPI   C2B 3342  17.279   9.673   9.375  0.1069  0.2971 -0.2024
  209loPI   C3B 3343  17.222   9.689   8.924 -0.1217 -0.2884  0.2299
  209loPI   C4B 3344  17.204   9.747   8.457 -0.0536 -0.0114 -0.0823
  210loPI    C1 3345   0.944   1.431  10.771  0.0363 -0.1726 -0.0452
  210loPI    C2 3346   0.786   1.200  11.058 -0.2657  0.1647  0.0680
  210loPI    C3 3347   1.133   1.390  11.122 -0.1693 -0.0152  0.0863
  210loPI   PO4 3348   0.681   1.381  10.595  0.1954 -0.0716 -0.0155
  210loPI   GL1 3349   0.303   1.345  10.333 -0.0271  0.1812  0.0997
  210loPI   GL2 3350   0.129   1.603  10.333 -0.0716  0.1461 -0.1987
  210loPI   C1A 3351   0.356   1.322   9.824  0.2483  0.1317  0.1897
  210loPI   C2A 3352   0.445   1.328   9.344 -0.2410 -0.0010 -0.1361
  210loPI   C3A 3353   0.438   1.143   8.959  0.3418 -0.0347  0.2024
  210loPI   C4A 3354   0.484   1.231   8.527  0.3860  0.0144 -0.1609
  210loPI   C5A 3355   0.485   1.510   8.169 -0.0944  0.3139 -0.2653
  210loPI   C6A 3356   0.328   1.915   7.972 -0.0345 -0.2195 -0.2167
  210loPI   C1B 3357  -0.033   1.647  10.026  0.0538 -0.0521 -0.1045
  210loPI   C2B 3358  -0.076   1.532   9.678  0.2163 -0.0086  0.1539
  210loPI   C3B 3359  -0.060   1.422   9.271  0.1461  0.1307 -0.2248
  210loPI   C4B 3360  -0.074   1.370   8.881  0.2672 -0.0520  0.3239
  211loPI    C1 3361   3.970   9.576  10.878 -0.1545 -0.1529 -0.1461
  211loPI    C2 3362   4.241   9.793  11.076 -0.0258 -0.1543 -0.3187
  211loPI    C3 3363   4.018   9.526  11.272 -0.1766  0.1220 -0.1069
  211loPI   PO4 3364   3.885   9.742  10.690 -0.0040  0.1846 -0.0634
  211loPI   GL1 3365   4.030   9.770  10.332  0.3203 -0.2600 -0.1039
  211loPI   GL2 3366   3.693   9.954  10.222  0.2740  0.0568  0.1041
  211loPI   C1A 3367   4.269   9.874   9.945  0.0781  0.0017 -0.2969
  211loPI   C2A 3368   4.265   9.821   9.605 -0.0988  0.1248  0.1815
  211loPI   C3A 3369   4.269   9.773   9.163  0.1226  0.1786 -0.3223
  211loPI   C4A 3370   4.337   9.819   8.741  0.1050 -0.0760  0.3782
  211loPI   C5A 3371   4.358   9.707   8.170  0.0558 -0.1897  0.1470
  211loPI   C6A 3372   4.015   9.495   8.042 -0.0018 -0.0412  0.1578
  211loPI   C1B 3373   3.751  10.045   9.844  0.1744  0.1089 -0.0440
  211loPI   C2B 3374   3.813  10.037   9.404  0.0285  0.2707 -0.0277
  211loPI   C3B 3375   3.820  10.004   8.936  0.2269  0.0156  0.0785
  211loPI   C4B 3376   3.731   9.902   8.548 -0.2306 -0.0086 -0.1169
  212loPI    C1 3377  17.040   7.260  11.190  0.0185 -0.0336  0.2585
  212loPI    C2 3378  17.401   7.420  11.128 -0.0283 -0.0530 -0.0829
  212loPI    C3 3379  17.249   7.407  11.497  0.2478  0.1066  0.0393
  212loPI   PO4 3380  16.933   7.354  10.891 -0.0893 -0.1148 -0.1083
  212loPI   GL1 3381  16.758   7.476  10.464 -0.0871  0.0414 -0.1573
  212loPI   GL2 3382  16.853   7.672  10.492 -0.0227 -0.2160  0.1386
  212loPI   C1A 3383  16.826   7.457  10.007  0.2351  0.1812 -0.1495
  212loPI   C2A 3384  16.838   7.555   9.530  0.1934 -0.0330 -0.0890
  212loPI   C3A 3385  16.627   7.502   9.239  0.3478  0.4418 -0.0034
  212loPI   C4A 3386  16.744   7.515   8.776  0.2096  0.2052  0.1275
  212loPI   C5A 3387  16.653   7.513   8.308 -0.0731  0.2714  0.0178
  212loPI   C6A 3388  16.509   7.821   8.068 -0.2761  0.2492 -0.1081
  212loPI   C1B 3389  16.779   7.989  10.118 -0.0171 -0.1587  0.1584
  212loPI   C2B 3390  16.752   8.058   9.816  0.1000 -0.4305  0.2943
  212loPI   C3B 3391  16.700   8.020   9.377  0.1180 -0.1647  0.1006
  212loPI   C4B 3392  16.672   8.040   8.912 -0.0768  0.0636 -0.0659
  213loPI    C1 3393  17.866  17.309  10.955 -0.1360 -0.0587  0.0714
  213loPI    C2 3394  17.855  17.198  11.339 -0.2635 -0.0111  0.0818
  213loPI    C3 3395  18.050  17.531  11.232 -0.0652 -0.1268  0.0792
  213loPI   PO4 3396  17.892  17.163  10.814  0.0037 -0.0279 -0.1337
  213loPI   GL1 3397  17.897  17.160  10.415 -0.0282 -0.1995  0.3968
  213loPI   GL2 3398  18.168  16.950  10.244 -0.1902 -0.1441 -0.2118
  213loPI   C1A 3399  17.778  17.148  10.002 -0.0278  0.0272  0.0098
  213loPI   C2A 3400  17.767  17.191   9.578 -0.1215 -0.1982 -0.1136
  213loPI   C3A 3401  17.749  17.153   9.151 -0.0009  0.1238  0.2594
  213loPI   C4A 3402  17.762  17.103   8.671 -0.1667 -0.1601  0.0492
  213loPI   C5A 3403  17.665  16.880   8.221 -0.0089 -0.2505 -0.1150
  213loPI   C6A 3404  17.784  16.760   7.776  0.2913 -0.0346 -0.2453
  213loPI   C1B 3405  18.193  16.934   9.784 -0.1551 -0.0017  0.1057
  213loPI   C2B 3406  18.188  16.963   9.329  0.2786  0.0950 -0.1190
  213loPI   C3B 3407  18.247  16.953   8.889 -0.1479 -0.1273 -0.2825
  213loPI   C4B 3408  18.227  16.922   8.438 -0.2752  0.0721  0.1446
  214loPI    C1 3409  11.872  15.048  11.248 -0.0660  0.1870 -0.0891
  214loPI    C2 3410  11.511  15.198  11.330 -0.1019  0.0385  0.0295
  214loPI    C3 3411  11.832  15.437  11.335 -0.1511  0.1018  0.2674
  214loPI   PO4 3412  11.887  14.975  11.019  0.0895 -0.0492 -0.0110
  214loPI   GL1 3413  12.044  14.987  10.619  0.0445  0.0067 -0.0408
  214loPI   GL2 3414  11.764  14.704  10.594 -0.0823  0.0108  0.0711
  214loPI   C1A 3415  11.896  14.983  10.223 -0.0332 -0.0033 -0.0935
  214loPI   C2A 3416  11.941  14.992   9.652 -0.0917 -0.0582  0.3258
  214loPI   C3A 3417  11.930  14.965   9.149  0.2755  0.0967 -0.0612
  214loPI   C4A 3418  11.931  15.002   8.735 -0.0388  0.1572  0.1649
  214loPI   C5A 3419  12.178  15.126   8.427  0.0428  0.0166  0.0503
  214loPI   C6A 3420  12.225  15.404   8.113 -0.0527  0.0326  0.1596
  214loPI   C1B 3421  11.975  14.471  10.136 -0.0063 -0.2148 -0.1595
  214loPI   C2B 3422  12.035  14.498   9.778  0.2301 -0.0645  0.0175
  214loPI   C3B 3423  12.009  14.479   9.290  0.1537  0.3141  0.2937
  214loPI   C4B 3424  12.007  14.481   8.898 -0.3735  0.1636 -0.1800
  215loPI    C1 3425  10.661   7.604  11.163 -0.0685 -0.0920 -0.1137
  215loPI    C2 3426  10.471   7.658  11.511  0.0110  0.0733 -0.0949
  215loPI    C3 3427  10.354   7.368  11.262  0.0458 -0.1400  0.1338
  215loPI   PO4 3428  10.582   7.832  11.054  0.0754 -0.4992 -0.0837
  215loPI   GL1 3429  10.654   7.857  10.589 -0.1927  0.1076 -0.2352
  215loPI   GL2 3430  10.844   7.574  10.636 -0.1155  0.1824 -0.1245
  215loPI   C1A 3431  10.864   7.875  10.195 -0.0223 -0.4358  0.0544
  215loPI   C2A 3432  10.926   7.756   9.829  0.0192  0.3331 -0.2471
  215loPI   C3A 3433  10.836   7.864   9.412  0.0084  0.1438  0.1693
  215loPI   C4A 3434  10.819   7.826   9.012  0.1740 -0.3061 -0.2180
  215loPI   C5A 3435  10.906   7.746   8.596 -0.1790  0.0303  0.2135
  215loPI   C6A 3436  10.637   7.682   8.237 -0.2436  0.3799  0.0037
  215loPI   C1B 3437  10.940   7.296  10.178 -0.1725 -0.2711 -0.0840
  215loPI   C2B 3438  10.916   7.248   9.711 -0.2021  0.0342 -0.4897
  215loPI   C3B 3439  10.940   7.378   9.271  0.0109  0.0073  0.1013
  215loPI   C4B 3440  10.872   7.304   8.858 -0.1751  0.2708 -0.0445
  216loPI    C1 3441   2.334   4.630  10.795  0.0660 -0.0499 -0.2463
  216loPI    C2 3442   1.948   4.643  10.897  0.1486 -0.0326  0.0762
  216loPI    C3 3443   2.183   4.356  11.045  0.2500 -0.0715 -0.1569
  216loPI   PO4 3444   2.373   4.619  10.602  0.0638  0.0874  0.4183
  216loPI   GL1 3445   2.202   4.842  10.305 -0.2035  0.3270 -0.1328
  216loPI   GL2 3446   2.287   4.501  10.138 -0.0208  0.0784  0.2908
  216loPI   C1A 3447   2.256   5.059   9.945  0.0844  0.1409  0.0153
  216loPI   C2A 3448   2.106   5.028   9.581 -0.0580 -0.4008 -0.1979
  216loPI   C3A 3449   2.220   5.107   9.148 -0.2338  0.2254  0.1202
  216loPI   C4A 3450   2.269   5.155   8.678  0.1669  0.3692 -0.0418
  216loPI   C5A 3451   2.385   4.999   8.296  0.0407  0.0575  0.1183
  216loPI   C6A 3452   2.649   4.892   7.965 -0.0913 -0.0023  0.4961
  216loPI   C1B 3453   2.231   4.496   9.772 -0.2494  0.0208 -0.0710
  216loPI   C2B 3454   2.268   4.565   9.399 -0.3571  0.1189 -0.1431
  216loPI   C3B 3455   2.223   4.605   8.961  0.0489 -0.3003  0.1771
  216loPI   C4B 3456   2.387   4.440   8.623 -0.1646 -0.2512 -0.2842
  217loPI    C1 3457  15.037  13.795  11.250 -0.3044 -0.2829  0.0007
  217loPI    C2 3458  15.174  13.974  11.580 -0.1101 -0.0975 -0.1774
  217loPI    C3 3459  14.949  13.645  11.610  0.0523 -0.1843  0.1333
  217loPI   PO4 3460  15.109  13.844  10.973 -0.0970 -0.1391 -0.3110
  217loPI   GL1 3461  15.498  13.828  10.809  0.0471  0.1061  0.0112
  217loPI   GL2 3462  15.803  13.760  10.683 -0.0814 -0.3823 -0.1597
  217loPI   C1A 3463  15.308  13.720  10.361  0.0076  0.2337 -0.0525
  217loPI   C2A 3464  15.266  13.771   9.965  0.0099 -0.0795  0.2599
  217loPI   C3A 3465  15.252  13.805   9.511  0.1236  0.1580  0.0152
  217loPI   C4A 3466  15.214  13.715   9.080 -0.0318 -0.0839 -0.1484
  217loPI   C5A 3467  15.238  13.702   8.690  0.0761  0.0182 -0.4646
  217loPI   C6A 3468  15.530  13.535   8.286  0.2691  0.2314 -0.1807
  217loPI   C1B 3469  15.787  13.619  10.252  0.0194 -0.2882  0.1629
  217loPI   C2B 3470  15.695  13.649   9.741  0.0791 -0.1423 -0.0366
  217loPI   C3B 3471  15.689  13.583   9.249  0.0415  0.1197  0.2702
  217loPI   C4B 3472  15.670  13.564   8.843  0.1997 -0.1240 -0.1429
  218loPI    C1 3473  14.706   5.020  11.242 -0.0915  0.0810 -0.1347
  218loPI    C2 3474  14.671   4.774  11.555 -0.2048 -0.0182 -0.2240
  218loPI    C3 3475  14.868   5.121  11.593  0.0269 -0.1587 -0.1184
  218loPI   PO4 3476  14.880   4.928  11.056 -0.0284  0.1479 -0.4245
  218loPI   GL1 3477  14.828   5.055  10.606  0.0744 -0.0629  0.0207
  218loPI   GL2 3478  14.584   5.097  10.718 -0.2122 -0.1298  0.1052
  218loPI   C1A 3479  14.792   5.299  10.218  0.0749  0.0627  0.1502
  218loPI   C2A 3480  14.727   5.343   9.678 -0.1434 -0.2802  0.1440
  218loPI   C3A 3481  14.810   5.320   9.280 -0.1965  0.2338  0.0677
  218loPI   C4A 3482  14.739   5.384   8.872 -0.0108  0.4876 -0.1102
  218loPI   C5A 3483  14.626   5.444   8.441  0.1778 -0.1841  0.0703
  218loPI   C6A 3484  14.268   5.384   8.072 -0.0321 -0.3278 -0.0928
  218loPI   C1B 3485  14.400   4.952  10.281  0.0615  0.1960 -0.2541
  218loPI   C2B 3486  14.350   5.032   9.872  0.1352 -0.1162  0.0942
  218loPI   C3B 3487  14.398   4.971   9.383 -0.2003  0.0076  0.2359
  218loPI   C4B 3488  14.346   5.099   8.990 -0.1922  0.0232  0.1418
  219loPI    C1 3489   5.489   6.577  11.309  0.1234  0.2230  0.1110
  219loPI    C2 3490   5.414   6.187  11.350  0.1427  0.2089  0.0147
  219loPI    C3 3491   5.223   6.452  11.580 -0.0201  0.1567 -0.0586
  219loPI   PO4 3492   5.508   6.603  11.063  0.1310  0.1527  0.0794
  219loPI   GL1 3493   5.327   6.631  10.641 -0.0973  0.0585 -0.1924
  219loPI   GL2 3494   5.755   6.514  10.660 -0.0756 -0.3677 -0.0250
  219loPI   C1A 3495   5.167   6.725  10.275  0.1209  0.3008  0.0852
  219loPI   C2A 3496   5.138   6.720   9.827 -0.1549  0.3035  0.0321
  219loPI   C3A 3497   5.192   6.689   9.354  0.1026 -0.0313 -0.1252
  219loPI   C4A 3498   5.208   6.703   8.876 -0.1427  0.0029  0.1272
  219loPI   C5A 3499   5.240   6.753   8.400  0.0810  0.1138 -0.0443
  219loPI   C6A 3500   5.385   6.801   7.993  0.0463 -0.2680 -0.0335
  219loPI   C1B 3501   5.604   6.544  10.195  0.1387  0.0361  0.3585
  219loPI   C2B 3502   5.601   6.464   9.655  0.1179  0.0807  0.3066
  219loPI   C3B 3503   5.624   6.458   9.207  0.1108 -0.1879 -0.3845
  219loPI   C4B 3504   5.670   6.494   8.773 -0.1825 -0.1217 -0.0456
  220loPI    C1 3505  16.088  10.250  10.984 -0.0425  0.1081 -0.0987
  220loPI    C2 3506  16.075  10.270  11.383  0.3173 -0.0988 -0.0719
  220loPI    C3 3507  16.220   9.943  11.204 -0.0414 -0.0964 -0.3791
  220loPI   PO4 3508  16.153  10.407  10.877 -0.0093 -0.1800  0.2361
  220loPI   GL1 3509  16.417  10.603  10.484 -0.0782  0.1951  0.0124
  220loPI   GL2 3510  16.563  10.382  10.575  0.2050 -0.0628  0.0519
  220loPI   C1A 3511  16.272  10.538  10.035  0.1079 -0.0790 -0.4330
  220loPI   C2A 3512  16.213  10.523   9.598  0.2310 -0.0203 -0.1262
  220loPI   C3A 3513  16.212  10.471   9.131 -0.0591  0.2071 -0.1328
  220loPI   C4A 3514  16.164  10.512   8.749  0.0636  0.2138 -0.3009
  220loPI   C5A 3515  16.225  10.265   8.301 -0.3645  0.0693 -0.3001
  220loPI   C6A 3516  16.227  10.243   7.819 -0.1004 -0.0079  0.1325
  220loPI   C1B 3517  16.695  10.343  10.155 -0.1156  0.2934  0.1915
  220loPI   C2B 3518  16.687  10.369   9.734  0.3335  0.1907 -0.1530
  220loPI   C3B 3519  16.647  10.340   9.246 -0.0378  0.3261 -0.1042
  220loPI   C4B 3520  16.671  10.311   8.933 -0.0236 -0.0989  0.1350
  221loPI    C1 3521   0.357  12.647  11.478 -0.0589 -0.1727  0.1467
  221loPI    C2 3522   0.533  12.395  11.221 -0.2070  0.0111 -0.1400
  221loPI    C3 3523   0.740  12.543  11.529  0.0735  0.0441 -0.3405
  221loPI   PO4 3524   0.213  12.780  11.252 -0.0619 -0.0124 -0.3405
  221loPI   GL1 3525   0.308  12.683  10.860 -0.0552 -0.0633  0.0885
  221loPI   GL2 3526   0.087  12.606  10.748  0.0488 -0.0803  0.1379
  221loPI   C1A 3527   0.481  12.845  10.490  0.1480  0.0114 -0.0642
  221loPI   C2A 3528   0.489  12.963  10.066 -0.0796  0.0424  0.1439
  221loPI   C3A 3529   0.498  13.122   9.624  0.1651  0.1522  0.1225
  221loPI   C4A 3530   0.444  12.961   9.177  0.2128 -0.1358 -0.1095
  221loPI   C5A 3531   0.451  12.849   8.729 -0.1619 -0.2775 -0.1404
  221loPI   C6A 3532   0.078  12.733   8.517 -0.1810  0.2823  0.0447
  221loPI   C1B 3533   0.110  12.633  10.250  0.3860 -0.1500  0.0182
  221loPI   C2B 3534   0.119  12.680   9.832  0.0398  0.1808 -0.0900
  221loPI   C3B 3535   0.145  12.601   9.477 -0.0676 -0.2560  0.2272
  221loPI   C4B 3536   0.101  12.675   9.110 -0.0592 -0.2186 -0.2423
  222loPI    C1 3537  16.883   2.469  10.593 -0.0683 -0.0173  0.1834
  222loPI    C2 3538  17.203   2.536  10.363 -0.1236 -0.2287  0.0414
  222loPI    C3 3539  17.250   2.420  10.743 -0.0309  0.2287  0.1766
  222loPI   PO4 3540  16.757   2.311  10.361  0.0292  0.0249  0.2355
  222loPI   GL1 3541  16.911   2.308   9.905 -0.0221  0.2029  0.0500
  222loPI   GL2 3542  17.264   2.314   9.934 -0.1693 -0.0148  0.0092
  222loPI   C1A 3543  16.763   2.319   9.572  0.0669 -0.0431 -0.1152
  222loPI   C2A 3544  16.739   2.329   9.117  0.1038  0.1528 -0.3684
  222loPI   C3A 3545  16.794   2.353   8.739  0.3456 -0.2767  0.0993
  222loPI   C4A 3546  16.848   2.237   8.310 -0.1221 -0.0397 -0.0693
  222loPI   C5A 3547  16.952   2.467   7.936 -0.0618  0.0659  0.1230
  222loPI   C6A 3548  16.890   2.814   7.551  0.0103 -0.1632 -0.0895
  222loPI   C1B 3549  17.342   2.173   9.483  0.3992 -0.1739 -0.2224
  222loPI   C2B 3550  17.391   2.108   9.046  0.0553 -0.5053  0.1452
  222loPI   C3B 3551  17.479   2.226   8.630 -0.2321  0.0707  0.1352
  222loPI   C4B 3552  17.324   2.209   8.136 -0.0489  0.3163  0.0029
  223loPI    C1 3553  17.753  10.824  11.067 -0.1380  0.3496 -0.1683
  223loPI    C2 3554  17.990  10.974  11.352  0.0778 -0.0671 -0.1210
  223loPI    C3 3555  17.651  10.788  11.453  0.0657 -0.0590 -0.1471
  223loPI   PO4 3556  17.803  10.944  10.857 -0.0240  0.0622  0.0954
  223loPI   GL1 3557  17.541  11.155  10.618 -0.1339  0.0342 -0.0056
  223loPI   GL2 3558  17.406  11.356  10.516  0.2775  0.3311 -0.1771
  223loPI   C1A 3559  17.495  11.065  10.128 -0.0998  0.3251 -0.1215
  223loPI   C2A 3560  17.457  10.978   9.661 -0.2018 -0.1525 -0.0691
  223loPI   C3A 3561  17.501  10.982   9.198  0.0784 -0.0176 -0.1079
  223loPI   C4A 3562  17.517  10.875   8.770 -0.1187 -0.2734 -0.0354
  223loPI   C5A 3563  17.321  10.883   8.290 -0.2308 -0.0657  0.0706
  223loPI   C6A 3564  17.097  10.657   8.147 -0.1353 -0.0088 -0.1874
  223loPI   C1B 3565  17.345  11.523  10.066  0.1359 -0.1088 -0.0064
  223loPI   C2B 3566  17.455  11.568   9.623  0.0275  0.4358 -0.2764
  223loPI   C3B 3567  17.411  11.540   9.136 -0.1531 -0.0130 -0.0252
  223loPI   C4B 3568  17.388  11.386   8.730  0.0956 -0.1772  0.0042
  224loPI    C1 3569   7.833   9.746  11.269  0.1809  0.0189 -0.2370
  224loPI    C2 3570   7.767   9.381  11.420 -0.2926  0.1300 -0.1592
  224loPI    C3 3571   7.939   9.663  11.646 -0.1234  0.0193 -0.1484
  224loPI   PO4 3572   7.808   9.655  11.008  0.2184  0.1751 -0.0152
  224loPI   GL1 3573   7.975   9.732  10.638 -0.0609  0.3233 -0.0579
  224loPI   GL2 3574   7.789  10.034  10.617 -0.0596  0.0803 -0.3406
  224loPI   C1A 3575   7.937   9.440  10.179  0.1530 -0.1475 -0.2541
  224loPI   C2A 3576   7.904   9.409   9.729 -0.1923  0.0470  0.0479
  224loPI   C3A 3577   7.859   9.362   9.206 -0.0068 -0.0825 -0.2190
  224loPI   C4A 3578   7.868   9.424   8.748 -0.1540 -0.0124  0.0974
  224loPI   C5A 3579   8.210   9.200   8.474 -0.4042  0.1636 -0.0426
  224loPI   C6A 3580   8.497   9.157   8.205  0.2718 -0.0769  0.0950
  224loPI   C1B 3581   7.778   9.895  10.122 -0.1910 -0.2308  0.0729
  224loPI   C2B 3582   7.892   9.943   9.759 -0.1722  0.0918  0.2367
  224loPI   C3B 3583   7.805   9.957   9.239  0.0621  0.0054 -0.0762
  224loPI   C4B 3584   7.723   9.964   8.789  0.1831  0.2806 -0.1704
  225loPI    C1 3585  13.624  17.733  11.088  0.0003 -0.0501  0.0709
  225loPI    C2 3586  13.735  17.350  11.120  0.2369  0.0148  0.0470
  225loPI    C3 3587  13.542  17.529  11.422  0.0813 -0.1363  0.0386
  225loPI   PO4 3588  13.606  17.758  10.787  0.0423  0.1839 -0.2861
  225loPI   GL1 3589  13.610  17.751  10.360  0.0819  0.2116  0.0443
  225loPI   GL2 3590  13.946  17.705  10.373 -0.2452  0.1306 -0.0157
  225loPI   C1A 3591  13.635  17.652   9.909 -0.0792  0.1784 -0.1189
  225loPI   C2A 3592  13.574  17.593   9.465  0.0780 -0.1186 -0.1831
  225loPI   C3A 3593  13.591  17.610   9.132 -0.0291 -0.1400 -0.0770
  225loPI   C4A 3594  13.582  17.639   8.698 -0.0179 -0.1648 -0.1832
  225loPI   C5A 3595  13.595  17.744   8.307  0.1578  0.0217  0.1434
  225loPI   C6A 3596  13.843  17.758   7.842 -0.2564  0.2777 -0.0603
  225loPI   C1B 3597  14.054  17.913  10.056  0.2597 -0.0297 -0.0428
  225loPI   C2B 3598  14.110  17.990   9.631 -0.3554  0.4613 -0.2611
  225loPI   C3B 3599  13.989  17.985   9.239 -0.3901  0.3759 -0.2826
  225loPI   C4B 3600  13.907  18.023   8.806 -0.0730  0.0658  0.0767
  226loPI    C1 3601  15.140   7.279  11.093  0.2486 -0.1312 -0.1709
  226loPI    C2 3602  15.094   7.202  11.483  0.0921 -0.0032 -0.1629
  226loPI    C3 3603  14.829   7.062  11.218  0.1002  0.0587 -0.2042
  226loPI   PO4 3604  15.290   7.217  10.972 -0.3706  0.0950  0.2622
  226loPI   GL1 3605  15.351   7.252  10.562 -0.1134  0.0000  0.1262
  226loPI   GL2 3606  15.063   7.360  10.500  0.1712 -0.0627  0.1186
  226loPI   C1A 3607  15.451   7.519  10.210  0.2555 -0.1984 -0.1161
  226loPI   C2A 3608  15.385   7.555   9.784  0.0639  0.0459  0.0296
  226loPI   C3A 3609  15.317   7.534   9.386 -0.1599  0.1096 -0.0023
  226loPI   C4A 3610  15.351   7.608   8.906 -0.2322  0.0101  0.1117
  226loPI   C5A 3611  15.314   7.622   8.465 -0.0764  0.2989 -0.1794
  226loPI   C6A 3612  15.470   7.634   8.043  0.0816  0.3054 -0.1507
  226loPI   C1B 3613  14.984   7.135  10.090 -0.0758 -0.0862  0.1182
  226loPI   C2B 3614  14.957   7.154   9.684 -0.0023 -0.0487 -0.0166
  226loPI   C3B 3615  14.923   7.210   9.226  0.2903 -0.0885 -0.0382
  226loPI   C4B 3616  14.967   7.238   8.809  0.2223  0.2370 -0.2825
  227loPI    C1 3617   2.173   7.457  10.998 -0.0935  0.3718 -0.2176
  227loPI    C2 3618   1.887   7.321  11.242  0.0226  0.0354 -0.2637
  227loPI    C3 3619   2.142   7.602  11.369  0.0630 -0.1152 -0.0064
  227loPI   PO4 3620   2.063   7.524  10.814 -0.0095  0.0004  0.1132
  227loPI   GL1 3621   1.909   7.192  10.454 -0.2599  0.1560  0.2154
  227loPI   GL2 3622   1.566   7.288  10.333  0.2128  0.1519  0.2463
  227loPI   C1A 3623   1.961   7.096  10.069  0.0146 -0.0831  0.0875
  227loPI   C2A 3624   1.991   7.049   9.624 -0.2007  0.1182  0.0959
  227loPI   C3A 3625   2.065   7.117   9.126 -0.1928  0.0274 -0.2413
  227loPI   C4A 3626   2.090   7.244   8.689  0.0888 -0.3160 -0.1817
  227loPI   C5A 3627   2.039   7.393   8.358  0.1227  0.1415 -0.2769
  227loPI   C6A 3628   1.976   7.860   8.285 -0.1791  0.0493 -0.1919
  227loPI   C1B 3629   1.541   7.342   9.817  0.0739 -0.1401 -0.0502
  227loPI   C2B 3630   1.618   7.357   9.332 -0.1888  0.1601 -0.5447
  227loPI   C3B 3631   1.599   7.421   8.950 -0.1372 -0.0515  0.1920
  227loPI   C4B 3632   1.542   7.449   8.490  0.2058 -0.2042 -0.0422
  228loPI    C1 3633  13.748  16.314  10.981  0.1422 -0.3092  0.0142
  228loPI    C2 3634  14.127  16.187  10.971  0.2534  0.0172 -0.0645
  228loPI    C3 3635  14.016  16.465  11.237  0.0852 -0.0249 -0.0891
  228loPI   PO4 3636  13.669  16.168  10.761 -0.1625 -0.1182  0.2277
  228loPI   GL1 3637  13.897  15.964  10.461 -0.1402 -0.0062  0.2239
  228loPI   GL2 3638  14.000  16.283  10.376 -0.1041 -0.3602  0.0869
  228loPI   C1A 3639  14.335  15.921  10.254  0.0281  0.0867 -0.0052
  228loPI   C2A 3640  14.485  15.921   9.794  0.0851  0.1045 -0.0865
  228loPI   C3A 3641  14.412  16.016   9.292 -0.3015  0.2082 -0.4596
  228loPI   C4A 3642  14.385  15.939   8.842 -0.0282 -0.0884  0.0054
  228loPI   C5A 3643  14.487  15.990   8.453 -0.0333 -0.0288  0.1327
  228loPI   C6A 3644  14.782  16.158   8.245  0.2471 -0.3110 -0.1325
  228loPI   C1B 3645  14.025  16.103   9.887 -0.0096  0.3371  0.2023
  228loPI   C2B 3646  13.891  16.109   9.442 -0.0947  0.0460  0.0112
  228loPI   C3B 3647  13.879  16.126   9.088  0.0137 -0.2212  0.3658
  228loPI   C4B 3648  13.990  16.126   8.681 -0.4025  0.1368  0.1059
  229loPI    C1 3649   7.119   6.696  11.152  0.1548  0.0503  0.0189
  229loPI    C2 3650   7.073   6.659  11.547  0.0967  0.2117  0.0280
  229loPI    C3 3651   6.899   6.963  11.353 -0.0446  0.0184 -0.1530
  229loPI   PO4 3652   7.425   6.585  11.201 -0.1253 -0.2052 -0.0499
  229loPI   GL1 3653   7.599   6.549  10.805 -0.0309  0.2083  0.1374
  229loPI   GL2 3654   7.340   6.631  10.735 -0.1864  0.0388 -0.0750
  229loPI   C1A 3655   7.769   6.553  10.377  0.0397  0.0205  0.1056
  229loPI   C2A 3656   7.863   6.451   9.992 -0.1368 -0.2719 -0.2513
  229loPI   C3A 3657   7.892   6.507   9.571 -0.0460 -0.0124 -0.0009
  229loPI   C4A 3658   7.922   6.588   9.178  0.0658  0.1515  0.0237
  229loPI   C5A 3659   7.765   6.405   8.797 -0.4368  0.1562 -0.4219
  229loPI   C6A 3660   7.835   5.990   8.689 -0.0645  0.3636  0.1692
  229loPI   C1B 3661   7.318   6.714  10.261  0.0655  0.0781  0.0150
  229loPI   C2B 3662   7.407   6.682   9.813  0.0521  0.0432 -0.1220
  229loPI   C3B 3663   7.474   6.780   9.410  0.1367  0.1692  0.0686
  229loPI   C4B 3664   7.404   6.685   8.999  0.2902 -0.1766  0.1761
  230loPI    C1 3665  14.149   6.722  11.274  0.1241 -0.2111 -0.1218
  230loPI    C2 3666  14.224   6.491  11.592  0.2221  0.0569  0.0528
  230loPI    C3 3667  14.491   6.766  11.476  0.1924 -0.0466 -0.2702
  230loPI   PO4 3668  13.987   6.577  11.072  0.0265 -0.0052 -0.1875
  230loPI   GL1 3669  13.820   6.600  10.640 -0.3854  0.0446  0.1915
  230loPI   GL2 3670  14.056   6.608  10.603  0.0422 -0.0282 -0.2234
  230loPI   C1A 3671  13.655   6.744  10.281  0.0264  0.1086  0.1654
  230loPI   C2A 3672  13.666   6.737   9.812  0.1043  0.0927  0.0752
  230loPI   C3A 3673  13.739   6.740   9.448  0.1459  0.0132 -0.1861
  230loPI   C4A 3674  13.664   6.738   9.005 -0.0542 -0.0072  0.0734
  230loPI   C5A 3675  13.751   6.792   8.551  0.1939  0.0250  0.2530
  230loPI   C6A 3676  14.041   6.584   8.308 -0.2635  0.0451 -0.1770
  230loPI   C1B 3677  14.157   6.515  10.187  0.0117  0.1094 -0.0622
  230loPI   C2B 3678  14.172   6.604   9.757 -0.1359 -0.0014 -0.2485
  230loPI   C3B 3679  14.265   6.515   9.268  0.0176 -0.0273 -0.0800
  230loPI   C4B 3680  14.149   6.582   8.901 -0.1030  0.2909 -0.2928
  231loPI    C1 3681  10.435  12.447  11.144  0.1851 -0.0251  0.1548
  231loPI    C2 3682  10.213  12.774  11.205 -0.0792 -0.1574 -0.0717
  231loPI    C3 3683  10.378  12.582  11.516 -0.2625 -0.0439  0.0978
  231loPI   PO4 3684  10.358  12.372  10.855 -0.2050 -0.0605 -0.3292
  231loPI   GL1 3685  10.172  12.372  10.361  0.0240  0.0125 -0.0211
  231loPI   GL2 3686  10.002  12.701  10.334 -0.1833  0.0246 -0.1012
  231loPI   C1A 3687  10.062  12.313   9.989 -0.3664  0.1263 -0.1981
  231loPI   C2A 3688  10.109  12.376   9.566 -0.0900 -0.0345  0.0499
  231loPI   C3A 3689  10.015  12.417   9.174 -0.2686  0.0349 -0.1075
  231loPI   C4A 3690  10.121  12.452   8.817 -0.2997  0.0822  0.3676
  231loPI   C5A 3691  10.015  12.244   8.416 -0.2673 -0.1178 -0.2288
  231loPI   C6A 3692   9.590  12.208   8.229 -0.0443 -0.3076  0.1180
  231loPI   C1B 3693   9.992  12.814   9.950 -0.0732 -0.2947  0.0758
  231loPI   C2B 3694  10.045  12.887   9.486  0.1876 -0.1921 -0.0827
  231loPI   C3B 3695  10.015  12.917   9.080  0.0189 -0.2550  0.2690
  231loPI   C4B 3696  10.046  12.913   8.596 -0.2843 -0.2414  0.0442
  232loPI    C1 3697  13.366  11.949  11.384  0.0631 -0.2564 -0.0453
  232loPI    C2 3698  13.469  11.588  11.524 -0.0233 -0.2410  0.0592
  232loPI    C3 3699  13.121  11.753  11.633  0.0286 -0.1137  0.0339
  232loPI   PO4 3700  13.360  11.840  11.062 -0.0181 -0.0420  0.0292
  232loPI   GL1 3701  13.096  11.707  10.679  0.1903 -0.0135  0.1784
  232loPI   GL2 3702  12.818  11.795  10.445  0.2843  0.0910  0.1395
  232loPI   C1A 3703  13.219  11.487  10.328 -0.2878 -0.1584  0.0090
  232loPI   C2A 3704  13.401  11.616  10.011  0.1303 -0.0351 -0.0438
  232loPI   C3A 3705  13.433  11.668   9.587 -0.1664  0.1727 -0.0812
  232loPI   C4A 3706  13.367  11.778   9.094  0.4750 -0.3018 -0.0552
  232loPI   C5A 3707  13.300  11.689   8.656  0.1040  0.4272 -0.1276
  232loPI   C6A 3708  13.279  11.516   8.283  0.0516  0.1329 -0.1111
  232loPI   C1B 3709  12.802  11.754  10.093  0.1349  0.3172  0.1289
  232loPI   C2B 3710  12.982  11.851   9.784  0.3515  0.0264 -0.1517
  232loPI   C3B 3711  12.916  11.782   9.401  0.0200 -0.0279  0.0943
  232loPI   C4B 3712  12.890  11.874   8.925  0.0319  0.1450  0.0840
  233loPI    C1 3713   9.561  17.680  10.701  0.0877 -0.0326  0.0059
  233loPI    C2 3714   9.322  17.955  10.867  0.1161  0.2378 -0.3887
  233loPI    C3 3715   9.352  17.591  11.030  0.0590  0.4568  0.1275
  233loPI   PO4 3716   9.488  17.582  10.436  0.0402  0.0194  0.3500
  233loPI   GL1 3717   9.455  17.699   9.963  0.2682 -0.0467 -0.0752
  233loPI   GL2 3718   9.373  17.889  10.018  0.2766 -0.0033 -0.1021
  233loPI   C1A 3719   9.534  17.632   9.577 -0.2466  0.3216  0.0455
  233loPI   C2A 3720   9.549  17.595   9.143  0.0867  0.1868  0.0993
  233loPI   C3A 3721   9.438  17.663   8.714  0.2286  0.2844  0.1225
  233loPI   C4A 3722   9.704  17.714   8.432 -0.0200  0.1578  0.1983
  233loPI   C5A 3723   9.823  17.996   8.113 -0.4368 -0.0548  0.2347
  233loPI   C6A 3724   9.974  17.920   7.657  0.0393  0.2891  0.1561
  233loPI   C1B 3725   9.378  18.144   9.627 -0.2828  0.0855 -0.2205
  233loPI   C2B 3726   9.447  18.100   9.213 -0.0775  0.3763  0.1344
  233loPI   C3B 3727   9.329  18.087   8.974 -0.2157  0.1453 -0.0392
  233loPI   C4B 3728   9.242  18.120   8.521 -0.0330  0.0601  0.0493
  234loPI    C1 3729   1.644  10.301  10.888 -0.2176 -0.1216 -0.1649
  234loPI    C2 3730   1.372  10.592  10.927  0.1151  0.2147 -0.2933
  234loPI    C3 3731   1.717  10.611  11.129  0.0195 -0.2469 -0.0720
  234loPI   PO4 3732   1.754  10.329  10.650  0.0927 -0.0328  0.2963
  234loPI   GL1 3733   1.804  10.617  10.242 -0.1765 -0.3306 -0.1096
  234loPI   GL2 3734   1.543  10.759  10.207  0.3637  0.0121 -0.3075
  234loPI   C1A 3735   1.882  10.762   9.830 -0.0561  0.1430 -0.1474
  234loPI   C2A 3736   1.822  10.612   9.530  0.1668  0.0010  0.0364
  234loPI   C3A 3737   1.912  10.610   9.159 -0.0410 -0.1453  0.0102
  234loPI   C4A 3738   1.892  10.599   8.784  0.2191  0.1886 -0.1137
  234loPI   C5A 3739   1.857  10.727   8.398  0.0713  0.0049 -0.4063
  234loPI   C6A 3740   1.611  10.792   8.029 -0.0889 -0.0770 -0.2372
  234loPI   C1B 3741   1.384  10.777   9.733 -0.0302  0.2368 -0.1131
  234loPI   C2B 3742   1.409  10.806   9.320 -0.1145 -0.0761  0.0900
  234loPI   C3B 3743   1.416  10.804   8.914  0.2846  0.0794  0.1046
  234loPI   C4B 3744   1.416  10.818   8.515  0.0062 -0.2505 -0.2449
  235loPI    C1 3745   9.022   3.056  10.701  0.1293  0.0801 -0.2002
  235loPI    C2 3746   9.295   3.143  10.979 -0.0977  0.3247 -0.0484
  235loPI    C3 3747   8.941   2.992  11.087 -0.0515  0.0733 -0.2380
  235loPI   PO4 3748   9.147   3.214  10.457 -0.1757 -0.1670  0.0844
  235loPI   GL1 3749   9.202   3.381  10.067  0.0978 -0.0231  0.1732
  235loPI   GL2 3750   9.173   3.056   9.998  0.1868  0.2306 -0.1643
  235loPI   C1A 3751   9.191   3.604   9.670  0.2076  0.3712 -0.3267
  235loPI   C2A 3752   9.225   3.691   9.280  0.2293  0.1137 -0.1258
  235loPI   C3A 3753   9.176   3.666   8.859  0.0288 -0.0757  0.0091
  235loPI   C4A 3754   9.208   3.660   8.403  0.2185 -0.2016  0.2505
  235loPI   C5A 3755   9.322   3.636   7.932 -0.3415  0.2485  0.1009
  235loPI   C6A 3756   9.196   3.591   7.437 -0.2547  0.0797  0.0706
  235loPI   C1B 3757   9.347   3.132   9.654 -0.0568 -0.1188  0.0779
  235loPI   C2B 3758   9.363   3.136   9.209  0.1452  0.2390  0.0273
  235loPI   C3B 3759   9.233   3.123   8.735 -0.0970 -0.0993  0.1979
  235loPI   C4B 3760   9.165   3.220   8.235 -0.1441 -0.0257 -0.1917
  236loPI    C1 3761   6.742  11.118  11.381  0.0966 -0.1666 -0.0615
  236loPI    C2 3762   6.587  11.055  11.744  0.0259  0.0523 -0.0519
  236loPI    C3 3763   6.821  11.372  11.680  0.1074 -0.0323 -0.1772
  236loPI   PO4 3764   6.657  11.106  11.248 -0.2853 -0.1267  0.5599
  236loPI   GL1 3765   6.862  11.219  10.793  0.5280  0.2492 -0.1560
  236loPI   GL2 3766   6.964  11.128  10.608 -0.0357  0.1594  0.1784
  236loPI   C1A 3767   6.630  11.390  10.405  0.1872  0.1674  0.1832
  236loPI   C2A 3768   6.600  11.378  10.045 -0.2319 -0.1206  0.0409
  236loPI   C3A 3769   6.661  11.243   9.640  0.1127 -0.0862  0.2242
  236loPI   C4A 3770   6.720  11.310   9.264 -0.0022 -0.0891 -0.3148
  236loPI   C5A 3771   6.666  11.287   8.762 -0.0725 -0.2790  0.2500
  236loPI   C6A 3772   6.678  11.237   8.285  0.2066  0.4171 -0.2172
  236loPI   C1B 3773   7.067  11.212  10.233  0.0738 -0.4270  0.0026
  236loPI   C2B 3774   7.109  11.107   9.845  0.1656 -0.0372 -0.1233
  236loPI   C3B 3775   7.165  11.107   9.401  0.0016 -0.0662  0.1827
  236loPI   C4B 3776   7.091  11.141   8.966 -0.1014 -0.2685  0.0291
  237loPI    C1 3777  11.448  13.458  11.269 -0.3078  0.1924 -0.0286
  237loPI    C2 3778  11.373  13.122  11.473  0.1514  0.1331  0.0530
  237loPI    C3 3779  11.366  13.476  11.660 -0.1294  0.1514  0.0118
  237loPI   PO4 3780  11.400  13.399  10.992 -0.1002 -0.3330 -0.2221
  237loPI   GL1 3781  11.272  13.260  10.563 -0.1156 -0.3612 -0.2596
  237loPI   GL2 3782  11.188  12.941  10.609  0.0352  0.1624 -0.0808
  237loPI   C1A 3783  11.273  13.462  10.065 -0.1213  0.0697 -0.0820
  237loPI   C2A 3784  11.281  13.405   9.620  0.2518 -0.2923  0.0568
  237loPI   C3A 3785  11.231  13.265   9.223 -0.2517  0.2701 -0.0687
  237loPI   C4A 3786  11.400  13.245   8.793  0.0108  0.0330  0.0386
  237loPI   C5A 3787  11.693  12.939   8.528  0.1434 -0.3681  0.0843
  237loPI   C6A 3788  12.011  12.993   8.229  0.0261 -0.0545 -0.3554
  237loPI   C1B 3789  11.274  12.765  10.235 -0.1946 -0.0886 -0.0062
  237loPI   C2B 3790  11.293  12.695   9.853  0.0402  0.2119  0.2455
  237loPI   C3B 3791  11.325  12.818   9.398 -0.0899  0.1280  0.0670
  237loPI   C4B 3792  11.428  12.787   8.984  0.2006 -0.4260 -0.0293
  238loPI    C1 3793   3.942   0.747  10.326  0.0183 -0.0013  0.0070
  238loPI    C2 3794   3.917   0.787  10.723  0.0231 -0.3506  0.0458
  238loPI    C3 3795   4.207   0.563  10.563  0.0531 -0.1690 -0.1595
  238loPI   PO4 3796   3.766   0.738  10.222 -0.0117 -0.1387  0.0748
  238loPI   GL1 3797   3.726   0.582   9.776 -0.0679  0.0844  0.3800
  238loPI   GL2 3798   3.417   0.690   9.746 -0.0430  0.1215  0.0478
  238loPI   C1A 3799   3.863   0.370   9.421  0.2022 -0.1047  0.0153
  238loPI   C2A 3800   3.856   0.415   8.974  0.2774  0.2933 -0.2763
  238loPI   C3A 3801   3.725   0.414   8.547  0.1059 -0.1559  0.0137
  238loPI   C4A 3802   3.881   0.408   8.065  0.3352  0.3867  0.0380
  238loPI   C5A 3803   3.960   0.594   7.726 -0.0413  0.2177 -0.3675
  238loPI   C6A 3804   3.789   0.604   7.256 -0.0297  0.3214  0.0914
  238loPI   C1B 3805   3.458   0.665   9.299 -0.0485  0.1715  0.1927
  238loPI   C2B 3806   3.333   0.640   8.917 -0.5108 -0.1699  0.3430
  238loPI   C3B 3807   3.313   0.710   8.550  0.1991 -0.1362  0.1956
  238loPI   C4B 3808   3.367   0.728   8.055  0.4130  0.0096  0.0814
  239loPI    C1 3809   9.447  14.372  11.346  0.1843  0.1892 -0.1973
  239loPI    C2 3810   9.685  14.471  11.652 -0.1607  0.1296  0.0963
  239loPI    C3 3811   9.548  14.096  11.618 -0.1540  0.1451 -0.1122
  239loPI   PO4 3812   9.573  14.493  11.120  0.0445 -0.0782  0.3678
  239loPI   GL1 3813   9.455  14.548  10.672  0.0899 -0.0535  0.1874
  239loPI   GL2 3814   9.612  14.778  10.404 -0.0176 -0.0907 -0.2213
  239loPI   C1A 3815   9.669  14.326  10.311  0.0824  0.0408  0.1757
  239loPI   C2A 3816   9.773  14.440   9.912 -0.2096 -0.4023 -0.1427
  239loPI   C3A 3817   9.791  14.363   9.468 -0.0891 -0.0626 -0.3097
  239loPI   C4A 3818   9.742  14.385   9.034  0.0753  0.1765 -0.0335
  239loPI   C5A 3819   9.752  14.391   8.636 -0.2414 -0.0386 -0.1784
  239loPI   C6A 3820   9.395  14.387   8.346  0.3200 -0.0651 -0.3355
  239loPI   C1B 3821   9.367  14.652  10.096 -0.2869  0.0738 -0.1122
  239loPI   C2B 3822   9.419  14.601   9.619 -0.1744  0.2461 -0.1221
  239loPI   C3B 3823   9.339  14.572   9.216 -0.0665 -0.0857  0.1425
  239loPI   C4B 3824   9.282  14.513   8.829  0.0075 -0.2022 -0.0289
  240loPI    C1 3825   7.564   4.589  11.012 -0.0859  0.1590  0.1832
  240loPI    C2 3826   7.735   4.767  11.327 -0.0508  0.1937  0.1445
  240loPI    C3 3827   7.500   4.448  11.381 -0.0197  0.1807  0.2030
  240loPI   PO4 3828   7.483   4.784  10.826 -0.1152  0.0992 -0.5607
  240loPI   GL1 3829   7.366   4.753  10.348 -0.0031  0.3211 -0.0677
  240loPI   GL2 3830   7.124   4.904  10.197  0.2433  0.1527  0.1714
  240loPI   C1A 3831   7.603   4.670  10.028  0.1789 -0.3562  0.3110
  240loPI   C2A 3832   7.634   4.712   9.645  0.1750 -0.0973  0.1685
  240loPI   C3A 3833   7.734   4.689   9.099 -0.0517 -0.0602 -0.0029
  240loPI   C4A 3834   7.689   4.728   8.639 -0.2481  0.1157 -0.0838
  240loPI   C5A 3835   7.615   4.623   8.204 -0.1034 -0.0079 -0.0937
  240loPI   C6A 3836   7.366   4.805   7.938  0.0031 -0.0384 -0.0910
  240loPI   C1B 3837   7.170   4.887   9.692  0.0864 -0.1543 -0.0084
  240loPI   C2B 3838   7.203   4.926   9.295  0.0062 -0.0212 -0.0965
  240loPI   C3B 3839   7.218   4.911   8.918  0.3371  0.0255 -0.1027
  240loPI   C4B 3840   7.227   4.878   8.458 -0.0326 -0.2317 -0.0535
  241loPI    C1 3841  14.154   7.311  11.274  0.0571 -0.1645 -0.0507
  241loPI    C2 3842  13.814   7.513  11.212  0.1335 -0.0820 -0.2068
  241loPI    C3 3843  14.148   7.709  11.313  0.0934 -0.1809  0.1289
  241loPI   PO4 3844  14.205   7.166  11.051  0.0189 -0.1957 -0.0519
  241loPI   GL1 3845  14.208   7.137  10.625 -0.1290 -0.2321  0.0238
  241loPI   GL2 3846  14.029   7.057  10.379 -0.1274 -0.2909 -0.2043
  241loPI   C1A 3847  14.545   7.335  10.320  0.2247 -0.1188 -0.2933
  241loPI   C2A 3848  14.521   7.333   9.816  0.0024  0.0885 -0.0359
  241loPI   C3A 3849  14.494   7.397   9.323  0.0232  0.4060  0.1264
  241loPI   C4A 3850  14.482   7.425   8.861 -0.0124  0.0414  0.0911
  241loPI   C5A 3851  14.617   7.401   8.451  0.1236  0.1350 -0.0716
  241loPI   C6A 3852  14.938   7.330   8.317  0.0245 -0.4614  0.2926
  241loPI   C1B 3853  14.036   7.010  10.014 -0.0989 -0.1064 -0.0632
  241loPI   C2B 3854  14.109   7.057   9.628  0.3188  0.2439  0.0779
  241loPI   C3B 3855  14.060   7.022   9.169  0.2617 -0.0227 -0.1891
  241loPI   C4B 3856  14.081   7.083   8.783 -0.2444  0.2118 -0.1375
  242loPI    C1 3857   6.941   4.220  10.871  0.3249  0.1497 -0.2315
  242loPI    C2 3858   7.301   4.146  11.030  0.1343 -0.2007  0.0503
  242loPI    C3 3859   7.023   3.859  11.022 -0.2444  0.1544  0.1160
  242loPI   PO4 3860   6.993   4.402  10.722 -0.1640 -0.1997  0.2530
  242loPI   GL1 3861   6.758   4.554  10.411  0.2789 -0.2570  0.2757
  242loPI   GL2 3862   6.557   4.412  10.459  0.3230 -0.1697  0.1951
  242loPI   C1A 3863   6.756   4.655   9.994  0.1605  0.2454  0.0289
  242loPI   C2A 3864   6.743   4.541   9.618  0.1590  0.0806 -0.1614
  242loPI   C3A 3865   6.807   4.608   9.184  0.3284 -0.1385 -0.0066
  242loPI   C4A 3866   6.807   4.608   8.783  0.2212  0.0792  0.0558
  242loPI   C5A 3867   6.778   4.598   8.399 -0.1891 -0.1118 -0.0513
  242loPI   C6A 3868   6.490   4.401   8.215 -0.3144  0.0286 -0.1044
  242loPI   C1B 3869   6.445   4.244   9.959  0.0856  0.1303  0.0389
  242loPI   C2B 3870   6.324   4.296   9.526  0.1870  0.1319 -0.1257
  242loPI   C3B 3871   6.382   4.228   9.117 -0.0069 -0.1288  0.2183
  242loPI   C4B 3872   6.364   4.310   8.678  0.3914  0.0348  0.1218
  243loPI    C1 3873   7.733  11.352  11.326  0.1942 -0.1804  0.1524
  243loPI    C2 3874   7.560  11.661  11.512 -0.2178 -0.2131 -0.1618
  243loPI    C3 3875   7.756  11.384  11.724 -0.0350  0.1410  0.1438
  243loPI   PO4 3876   7.605  11.301  11.124 -0.2677  0.0791 -0.1530
  243loPI   GL1 3877   7.670  11.295  10.681 -0.0959  0.0570  0.0525
  243loPI   GL2 3878   7.519  11.000  10.570 -0.1670  0.0896  0.3500
  243loPI   C1A 3879   7.493  11.432  10.291  0.0749 -0.1548 -0.1580
  243loPI   C2A 3880   7.471  11.494   9.747 -0.3274 -0.1457 -0.1657
  243loPI   C3A 3881   7.523  11.476   9.394  0.1291  0.1294  0.0362
  243loPI   C4A 3882   7.499  11.458   8.938  0.1803 -0.1612 -0.4105
  243loPI   C5A 3883   7.546  11.568   8.461  0.2733  0.0004  0.1533
  243loPI   C6A 3884   7.828  11.617   8.093 -0.3115  0.4866  0.0329
  243loPI   C1B 3885   7.526  10.995  10.115  0.2557  0.1038 -0.2897
  243loPI   C2B 3886   7.581  10.933   9.664  0.1373 -0.1514 -0.0480
  243loPI   C3B 3887   7.602  10.941   9.168  0.1799  0.0993 -0.2084
  243loPI   C4B 3888   7.629  11.017   8.750 -0.2308 -0.0546  0.0980
  244loPI    C1 3889  15.019   5.350  10.927 -0.0406 -0.0359  0.3111
  244loPI    C2 3890  15.116   5.438  11.305 -0.1065  0.4040  0.2314
  244loPI    C3 3891  14.815   5.631  11.126 -0.2888 -0.0301  0.0552
  244loPI   PO4 3892  15.266   5.416  10.782 -0.1005 -0.1751  0.1344
  244loPI   GL1 3893  15.274   5.348  10.391  0.0511  0.2325 -0.3061
  244loPI   GL2 3894  15.277   5.668  10.293 -0.2640 -0.1929  0.2461
  244loPI   C1A 3895  15.199   5.138  10.017 -0.1901 -0.2850 -0.0350
  244loPI   C2A 3896  15.243   5.128   9.556 -0.0984 -0.2729 -0.0566
  244loPI   C3A 3897  15.269   5.211   9.119  0.2303  0.0017 -0.1989
  244loPI   C4A 3898  15.297   5.248   8.672  0.2295  0.1606  0.2956
  244loPI   C5A 3899  15.476   5.567   8.302  0.3002 -0.3854 -0.1491
  244loPI   C6A 3900  15.622   5.614   7.954  0.1201  0.0047  0.3174
  244loPI   C1B 3901  15.121   5.596   9.897  0.0193 -0.1132  0.1742
  244loPI   C2B 3902  15.061   5.685   9.499 -0.2654 -0.2345  0.3667
  244loPI   C3B 3903  15.088   5.731   9.011  0.0986 -0.1912 -0.1174
  244loPI   C4B 3904  15.118   5.696   8.593  0.0534  0.0233 -0.3022
  245loPI    C1 3905  10.190   4.241  10.972 -0.0925  0.1882 -0.0437
  245loPI    C2 3906   9.853   4.364  11.148 -0.1631  0.1582 -0.1571
  245loPI    C3 3907  10.018   4.015  11.254 -0.1254  0.2089 -0.0473
  245loPI   PO4 3908  10.163   4.204  10.723 -0.0242  0.0783  0.2158
  245loPI   GL1 3909  10.452   4.273  10.381  0.0591  0.2009 -0.1540
  245loPI   GL2 3910  10.144   4.417  10.291 -0.1214 -0.0384  0.0816
  245loPI   C1A 3911  10.473   4.118   9.958 -0.0665  0.0607  0.0890
  245loPI   C2A 3912  10.510   4.067   9.500 -0.2629 -0.1317 -0.2407
  245loPI   C3A 3913  10.512   4.124   8.998 -0.0466  0.1072 -0.1738
  245loPI   C4A 3914  10.538   4.118   8.527 -0.2445 -0.3922  0.0362
  245loPI   C5A 3915  10.688   4.121   8.143  0.1271  0.0946  0.0205
  245loPI   C6A 3916  11.020   3.817   7.931 -0.0148  0.2025 -0.1219
  245loPI   C1B 3917   9.979   4.235   9.858  0.1262 -0.0363  0.2833
  245loPI   C2B 3918   9.977   4.280   9.353 -0.2691  0.0339 -0.2862
  245loPI   C3B 3919   9.998   4.324   8.942  0.0788  0.0887 -0.1582
  245loPI   C4B 3920  10.049   4.424   8.525  0.0479  0.0784 -0.0670
  246loPI    C1 3921  16.561  11.239  11.233 -0.0028  0.1271 -0.0686
  246loPI    C2 3922  16.366  11.303  11.577 -0.1117  0.0730 -0.1200
  246loPI    C3 3923  16.697  11.079  11.574  0.0578  0.3167 -0.0020
  246loPI   PO4 3924  16.385  11.447  11.026  0.0222  0.2002  0.1138
  246loPI   GL1 3925  16.536  11.581  10.626  0.0184 -0.1930  0.0530
  246loPI   GL2 3926  16.209  11.713  10.555 -0.1562  0.3375 -0.3985
  246loPI   C1A 3927  16.557  11.417  10.259 -0.0329  0.1239  0.0016
  246loPI   C2A 3928  16.468  11.383   9.758 -0.3266 -0.1496  0.0113
  246loPI   C3A 3929  16.552  11.329   9.368 -0.0345  0.0810 -0.2159
  246loPI   C4A 3930  16.532  11.369   8.958  0.0007 -0.0947 -0.0528
  246loPI   C5A 3931  16.506  11.256   8.523 -0.0660 -0.0854  0.2740
  246loPI   C6A 3932  16.727  11.048   8.064  0.1544 -0.3730 -0.2731
  246loPI   C1B 3933  16.058  11.546  10.154 -0.1575 -0.0977 -0.2104
  246loPI   C2B 3934  16.045  11.613   9.665  0.0947  0.2927 -0.0974
  246loPI   C3B 3935  15.996  11.583   9.234 -0.2260  0.2651  0.3056
  246loPI   C4B 3936  16.034  11.478   8.842  0.2326 -0.2658  0.1460
  247loPI    C1 3937   3.395   2.027  10.548  0.0515 -0.2089 -0.2125
  247loPI    C2 3938   3.048   2.209  10.470  0.1996  0.1543 -0.0468
  247loPI    C3 3939   3.318   2.385  10.707  0.4707 -0.1547 -0.1183
  247loPI   PO4 3940   3.469   1.981  10.327  0.1880 -0.1936 -0.1021
  247loPI   GL1 3941   3.574   2.050   9.879 -0.0250 -0.2420 -0.1127
  247loPI   GL2 3942   3.733   2.253   9.922  0.1064 -0.0663 -0.0065
  247loPI   C1A 3943   3.539   2.023   9.499  0.0399  0.3147  0.0084
  247loPI   C2A 3944   3.620   2.017   9.070  0.2108 -0.0191  0.2866
  247loPI   C3A 3945   3.555   2.025   8.679  0.1518  0.1780 -0.0696
  247loPI   C4A 3946   3.562   1.921   8.256 -0.1196 -0.2280 -0.0123
  247loPI   C5A 3947   3.463   1.961   7.868  0.1287  0.3670 -0.3734
  247loPI   C6A 3948   3.033   1.984   7.815  0.1697 -0.0922 -0.0776
  247loPI   C1B 3949   3.984   2.346   9.562 -0.3786  0.2633  0.2559
  247loPI   C2B 3950   4.007   2.376   9.246  0.0896  0.2479  0.3269
  247loPI   C3B 3951   3.968   2.364   8.831  0.0561  0.1695  0.1863
  247loPI   C4B 3952   4.001   2.258   8.442  0.0705  0.1800  0.1864
  248loPI    C1 3953   8.103  14.993  11.356  0.0791  0.0966  0.0622
  248loPI    C2 3954   8.228  15.333  11.525 -0.0203  0.1562  0.0164
  248loPI    C3 3955   8.320  14.981  11.692  0.2559  0.1961 -0.0471
  248loPI   PO4 3956   8.108  15.055  11.051  0.2081 -0.1190  0.0705
  248loPI   GL1 3957   7.845  15.147  10.599  0.1779 -0.1579 -0.2711
  248loPI   GL2 3958   8.016  14.926  10.506  0.1142  0.0113  0.2334
  248loPI   C1A 3959   7.928  15.293  10.178 -0.1906  0.3298  0.2235
  248loPI   C2A 3960   7.883  15.173   9.709  0.1957 -0.3314 -0.0091
  248loPI   C3A 3961   7.899  15.174   9.236  0.2588 -0.2879 -0.4171
  248loPI   C4A 3962   7.884  15.146   8.783 -0.0899 -0.0223  0.2878
  248loPI   C5A 3963   7.743  14.915   8.443  0.0647  0.2029  0.1118
  248loPI   C6A 3964   7.610  14.455   8.357  0.0078  0.3289 -0.0743
  248loPI   C1B 3965   8.029  14.771  10.127 -0.0959  0.2576 -0.1046
  248loPI   C2B 3966   7.930  14.696   9.697 -0.1478 -0.1638  0.1045
  248loPI   C3B 3967   7.955  14.691   9.207 -0.2337  0.0252  0.0507
  248loPI   C4B 3968   7.804  14.591   8.841  0.2133  0.2073  0.3089
  249loPI    C1 3969   6.402  17.712  10.583 -0.0361 -0.0117  0.0079
  249loPI    C2 3970   6.161  17.915  10.829 -0.0170 -0.1420  0.1361
  249loPI    C3 3971   6.281  17.547  10.927  0.4331  0.0136  0.1931
  249loPI   PO4 3972   6.311  17.747  10.353  0.2016  0.1816  0.1086
  249loPI   GL1 3973   6.523  17.657   9.907  0.3536  0.3390  0.0895
  249loPI   GL2 3974   6.653  17.369   9.831  0.0889 -0.1152  0.0643
  249loPI   C1A 3975   6.593  17.678   9.396 -0.0590 -0.1396 -0.0973
  249loPI   C2A 3976   6.628  17.624   9.034 -0.1172  0.2844  0.3755
  249loPI   C3A 3977   6.707  17.616   8.604 -0.5387  0.1863 -0.0750
  249loPI   C4A 3978   6.471  17.452   8.252 -0.0887 -0.3068  0.1986
  249loPI   C5A 3979   6.084  17.543   8.047 -0.0545 -0.2058  0.1680
  249loPI   C6A 3980   5.645  17.652   7.840 -0.1186 -0.0949 -0.0443
  249loPI   C1B 3981   6.731  17.132   9.466 -0.2507 -0.0907  0.2930
  249loPI   C2B 3982   6.724  17.005   9.001 -0.0627  0.1566  0.5388
  249loPI   C3B 3983   6.649  16.951   8.564  0.1137 -0.3798  0.1614
  249loPI   C4B 3984   6.460  16.869   8.077  0.0494 -0.1770 -0.0993
  250loPI    C1 3985  15.928   7.779  11.310 -0.2546 -0.0215  0.1864
  250loPI    C2 3986  16.148   7.445  11.285 -0.1774  0.0433 -0.0226
  250loPI    C3 3987  16.278   7.755  11.502 -0.1991 -0.0234  0.0862
  250loPI   PO4 3988  15.790   7.928  11.163 -0.3372  0.0107  0.0803
  250loPI   GL1 3989  15.779   7.986  10.635 -0.2614 -0.1398  0.3696
  250loPI   GL2 3990  15.824   8.334  10.432 -0.1281 -0.1481  0.1892
  250loPI   C1A 3991  15.828   7.833  10.190 -0.2170  0.1342  0.1419
  250loPI   C2A 3992  15.797   7.877   9.698 -0.1408  0.0397  0.0190
  250loPI   C3A 3993  15.739   7.864   9.302 -0.0236 -0.0687  0.1220
  250loPI   C4A 3994  15.734   7.843   8.794  0.0528 -0.0874 -0.3114
  250loPI   C5A 3995  15.756   7.918   8.373  0.0799 -0.2500  0.1313
  250loPI   C6A 3996  15.763   8.198   7.951  0.2297 -0.1603  0.2629
  250loPI   C1B 3997  15.744   8.383   9.940  0.0871  0.0352  0.2059
  250loPI   C2B 3998  15.714   8.304   9.478 -0.2364 -0.1142 -0.0705
  250loPI   C3B 3999  15.728   8.327   9.039  0.0097 -0.3550  0.1126
  250loPI   C4B 4000  15.714   8.378   8.594 -0.1372  0.0329 -0.0040
  251loPI    C1 4001  11.195  16.585  11.034  0.0820 -0.1190 -0.0263
  251loPI    C2 4002  11.423  16.697  11.343  0.1934 -0.2912 -0.0446
  251loPI    C3 4003  11.196  16.369  11.370  0.0324 -0.1830 -0.0668
  251loPI   PO4 4004  11.341  16.593  10.802 -0.0663  0.0667  0.2886
  251loPI   GL1 4005  11.569  16.402  10.604  0.1015 -0.0763 -0.0775
  251loPI   GL2 4006  11.367  16.212  10.477 -0.0752  0.0458 -0.2611
  251loPI   C1A 4007  11.657  16.512  10.152  0.1675  0.0461 -0.1244
  251loPI   C2A 4008  11.670  16.429   9.740 -0.1037  0.2833  0.3701
  251loPI   C3A 4009  11.659  16.480   9.285 -0.2392  0.0573 -0.4621
  251loPI   C4A 4010  11.580  16.572   8.857 -0.0909  0.1352 -0.0036
  251loPI   C5A 4011  11.765  16.476   8.514 -0.1269  0.0100 -0.3068
  251loPI   C6A 4012  12.137  16.407   8.451  0.2270 -0.1268  0.2133
  251loPI   C1B 4013  11.226  16.259  10.029 -0.2485 -0.1544 -0.2926
  251loPI   C2B 4014  11.258  16.108   9.655 -0.2262 -0.2999  0.2836
  251loPI   C3B 4015  11.308  16.124   9.196 -0.0186 -0.0165  0.2143
  251loPI   C4B 4016  11.277  16.151   8.838  0.0416 -0.2647 -0.0161
  252loPI    C1 4017  10.781   8.329  11.039  0.0083  0.0175 -0.0370
  252loPI    C2 4018  10.858   8.120  11.371  0.0454 -0.0775 -0.1054
  252loPI    C3 4019  10.487   8.251  11.299  0.0731  0.0940  0.0598
  252loPI   PO4 4020  10.851   8.238  10.857 -0.1333  0.0529 -0.2006
  252loPI   GL1 4021  10.842   8.370  10.470 -0.0683 -0.1907  0.1230
  252loPI   GL2 4022  10.457   8.443  10.374 -0.3180 -0.0110 -0.2010
  252loPI   C1A 4023  10.773   8.342  10.022  0.0271 -0.2248 -0.0686
  252loPI   C2A 4024  10.756   8.332   9.550 -0.2109  0.0384 -0.3097
  252loPI   C3A 4025  10.743   8.378   9.094 -0.1268  0.0403 -0.0835
  252loPI   C4A 4026  10.643   8.201   8.695 -0.1689  0.0133 -0.1128
  252loPI   C5A 4027  10.854   8.162   8.239 -0.0282  0.3732  0.3144
  252loPI   C6A 4028  10.801   8.281   7.863 -0.1587 -0.0375 -0.1648
  252loPI   C1B 4029  10.316   8.496   9.905 -0.0013  0.1329 -0.1412
  252loPI   C2B 4030  10.249   8.503   9.439 -0.1359 -0.3202  0.0951
  252loPI   C3B 4031  10.267   8.473   8.980 -0.0324  0.0369  0.1890
  252loPI   C4B 4032  10.214   8.498   8.504  0.3790 -0.1255 -0.1172
  253loPI    C1 4033  14.223  13.071  11.147  0.0864  0.2246 -0.1826
  253loPI    C2 4034  13.908  13.159  10.916 -0.0218  0.2252 -0.0361
  253loPI    C3 4035  13.866  13.140  11.313  0.0409 -0.2962 -0.0473
  253loPI   PO4 4036  14.366  12.888  10.979  0.1068  0.0717 -0.2702
  253loPI   GL1 4037  14.483  12.834  10.658 -0.0866  0.1250 -0.1002
  253loPI   GL2 4038  14.114  12.766  10.558  0.1231 -0.0554 -0.1869
  253loPI   C1A 4039  14.526  13.121  10.246 -0.2374 -0.0201  0.0478
  253loPI   C2A 4040  14.468  13.545  10.155  0.0301  0.2525  0.1670
  253loPI   C3A 4041  14.428  13.640   9.725  0.2486 -0.1666  0.0536
  253loPI   C4A 4042  14.364  13.589   9.291 -0.1444  0.0383  0.0699
  253loPI   C5A 4043  14.319  13.525   8.863 -0.0763 -0.0206 -0.0052
  253loPI   C6A 4044  14.226  13.559   8.432  0.0829  0.1586  0.0612
  253loPI   C1B 4045  14.121  12.755  10.205  0.1590  0.2785 -0.1072
  253loPI   C2B 4046  14.086  12.801   9.694  0.1407 -0.1380  0.1291
  253loPI   C3B 4047  14.117  12.741   9.313 -0.2205 -0.2190  0.0076
  253loPI   C4B 4048  14.526  12.604   9.089 -0.2490  0.0410  0.0190
  254loPI    C1 4049  13.024   3.272  10.666  0.2051  0.1825 -0.1347
  254loPI    C2 4050  13.219   3.239  11.014  0.2030 -0.0194 -0.1516
  254loPI    C3 4051  12.913   3.495  10.979  0.2690  0.0760 -0.0357
  254loPI   PO4 4052  13.161   3.342  10.488 -0.0047  0.0444 -0.0095
  254loPI   GL1 4053  12.943   3.416  10.166  0.0294  0.1804  0.1300
  254loPI   GL2 4054  12.850   3.668  10.003  0.3951 -0.3766 -0.1113
  254loPI   C1A 4055  12.892   3.148   9.834  0.0049  0.0192  0.0704
  254loPI   C2A 4056  12.935   3.234   9.353 -0.0414 -0.0319  0.1669
  254loPI   C3A 4057  12.940   3.249   8.974 -0.1673 -0.2993  0.1674
  254loPI   C4A 4058  12.880   3.132   8.542 -0.1350 -0.1964 -0.1236
  254loPI   C5A 4059  12.883   3.169   8.075 -0.0902  0.1577 -0.1220
  254loPI   C6A 4060  12.868   2.884   7.798 -0.2526  0.1913 -0.0238
  254loPI   C1B 4061  12.924   3.708   9.607 -0.1572 -0.1499 -0.2076
  254loPI   C2B 4062  12.828   3.696   9.172 -0.0919  0.0499 -0.0965
  254loPI   C3B 4063  12.842   3.769   8.804  0.3834 -0.1445  0.0693
  254loPI   C4B 4064  12.783   3.750   8.401 -0.1188  0.2710 -0.1489
  255loPI    C1 4065  14.234   4.174  11.160 -0.0675  0.1946  0.0867
  255loPI    C2 4066  14.305   4.507  11.371 -0.0492  0.1547  0.1434
  255loPI    C3 4067  14.488   4.165  11.469 -0.2443  0.0739  0.2301
  255loPI   PO4 4068  14.188   4.239  10.899  0.0493 -0.0715 -0.0845
  255loPI   GL1 4069  13.956   4.338  10.553  0.2049 -0.3662  0.0509
  255loPI   GL2 4070  14.087   4.600  10.540 -0.0359 -0.0206  0.1576
  255loPI   C1A 4071  13.686   4.435  10.219  0.2461  0.2702 -0.0338
  255loPI   C2A 4072  13.567   4.421   9.746  0.0656 -0.0705 -0.0389
  255loPI   C3A 4073  13.637   4.416   9.345 -0.0303 -0.0340  0.2202
  255loPI   C4A 4074  13.584   4.338   8.903  0.2102  0.2807 -0.0225
  255loPI   C5A 4075  13.572   4.422   8.442 -0.1920 -0.1726 -0.3351
  255loPI   C6A 4076  13.752   4.693   8.194  0.2573 -0.0792 -0.1858
  255loPI   C1B 4077  14.063   4.688  10.084  0.0917 -0.0901 -0.3792
  255loPI   C2B 4078  13.974   4.765   9.617  0.0796 -0.1826 -0.2521
  255loPI   C3B 4079  14.012   4.756   9.130  0.1899 -0.0749  0.6533
  255loPI   C4B 4080  13.866   4.734   8.699  0.2356  0.0259 -0.0751
  256loPI    C1 4081   8.496  16.713  10.872  0.1209 -0.0358  0.0179
  256loPI    C2 4082   8.241  16.434  11.004 -0.0114  0.0313 -0.0936
  256loPI    C3 4083   8.552  16.544  11.231  0.0667 -0.2364 -0.0665
  256loPI   PO4 4084   8.549  16.690  10.699 -0.0458 -0.0849  0.1283
  256loPI   GL1 4085   8.587  16.595  10.304 -0.1157 -0.0397 -0.0678
  256loPI   GL2 4086   8.529  16.907  10.152 -0.0550 -0.0358 -0.1691
  256loPI   C1A 4087   8.689  16.525   9.895  0.0505 -0.1910 -0.2258
  256loPI   C2A 4088   8.604  16.483   9.541  0.1590  0.1046 -0.1148
  256loPI   C3A 4089   8.596  16.396   9.094 -0.2073 -0.1456 -0.1318
  256loPI   C4A 4090   8.591  16.412   8.693  0.1471 -0.1791  0.1288
  256loPI   C5A 4091   8.743  16.604   8.213  0.5470 -0.4340 -0.0899
  256loPI   C6A 4092   8.513  16.621   7.891  0.3325  0.0559 -0.0664
  256loPI   C1B 4093   8.598  17.009   9.772  0.0669  0.0449 -0.0970
  256loPI   C2B 4094   8.551  17.017   9.372 -0.0896 -0.1546 -0.0506
  256loPI   C3B 4095   8.556  17.034   8.948  0.1335 -0.2168  0.3305
  256loPI   C4B 4096   8.622  16.995   8.522 -0.0696  0.0521 -0.2375
  257loPI    C1 4097  11.378   0.735  10.857 -0.0872 -0.0755 -0.0936
  257loPI    C2 4098  11.686   0.891  10.654 -0.0413 -0.0194  0.0177
  257loPI    C3 4099  11.721   0.820  11.046 -0.1961  0.0583  0.0464
  257loPI   PO4 4100  11.215   0.671  10.679 -0.1820  0.2430  0.0851
  257loPI   GL1 4101  11.304   0.860  10.291  0.2916 -0.3343 -0.2056
  257loPI   GL2 4102  11.472   1.041  10.208  0.0800 -0.0503 -0.1705
  257loPI   C1A 4103  11.124   0.628   9.904  0.2874  0.2869 -0.0088
  257loPI   C2A 4104  11.220   0.483   9.488  0.3520  0.0480  0.1025
  257loPI   C3A 4105  11.154   0.541   9.080  0.4001 -0.0212  0.0151
  257loPI   C4A 4106  11.119   0.551   8.707  0.1718 -0.0866 -0.0161
  257loPI   C5A 4107  11.094   0.552   8.271  0.1790 -0.1236  0.1636
  257loPI   C6A 4108  11.172   0.854   7.958  0.0364 -0.0335  0.0956
  257loPI   C1B 4109  11.548   0.881   9.743 -0.0089  0.1904  0.1875
  257loPI   C2B 4110  11.572   0.820   9.243  0.0930  0.0358 -0.3863
  257loPI   C3B 4111  11.546   0.872   8.888  0.1030  0.2482 -0.0673
  257loPI   C4B 4112  11.392   0.905   8.514 -0.0715  0.3064 -0.1347
  258loPI    C1 4113   1.786   1.125  10.613 -0.1031  0.1133 -0.1075
  258loPI    C2 4114   1.507   1.330  10.814 -0.1561 -0.1648  0.1090
  258loPI    C3 4115   1.876   1.292  10.965 -0.0670  0.0007 -0.0628
  258loPI   PO4 4116   1.595   0.928  10.544 -0.0823  0.1245  0.2733
  258loPI   GL1 4117   1.387   0.744  10.167  0.2649  0.1482  0.1881
  258loPI   GL2 4118   1.612   0.466  10.170 -0.1367 -0.3977  0.2280
  258loPI   C1A 4119   1.135   0.763   9.826 -0.0580 -0.2265 -0.1906
  258loPI   C2A 4120   1.042   0.669   9.502  0.1376  0.0446  0.0976
  258loPI   C3A 4121   1.013   0.578   9.081 -0.3077  0.2831  0.0409
  258loPI   C4A 4122   1.052   0.549   8.741 -0.1947  0.1855  0.0998
  258loPI   C5A 4123   1.053   0.544   8.267 -0.0604 -0.0387 -0.0531
  258loPI   C6A 4124   1.347   0.490   7.848  0.3976 -0.0214  0.0078
  258loPI   C1B 4125   1.534   0.468   9.715  0.2344 -0.1501  0.0865
  258loPI   C2B 4126   1.496   0.457   9.225  0.1820 -0.1699 -0.0799
  258loPI   C3B 4127   1.517   0.396   8.750 -0.1727  0.2931  0.1270
  258loPI   C4B 4128   1.582   0.317   8.389 -0.0871 -0.1026  0.1118
  259loPI    C1 4129   3.308   8.904  11.073 -0.0327  0.0239  0.0798
  259loPI    C2 4130   3.401   8.709  11.409 -0.2152  0.0316  0.1352
  259loPI    C3 4131   3.310   9.098  11.422  0.0893  0.1090  0.0328
  259loPI   PO4 4132   3.537   8.915  10.936 -0.0539  0.0090  0.1192
  259loPI   GL1 4133   3.580   8.940  10.506 -0.0523  0.0892 -0.2388
  259loPI   GL2 4134   3.902   9.234  10.390  0.0475  0.1129  0.0740
  259loPI   C1A 4135   3.689   8.919  10.009 -0.0827 -0.0924  0.2162
  259loPI   C2A 4136   3.937   9.056   9.570  0.0363 -0.0024 -0.1165
  259loPI   C3A 4137   4.009   9.056   9.182 -0.1521  0.0555 -0.1179
  259loPI   C4A 4138   3.987   9.012   8.770 -0.1021  0.0041  0.2710
  259loPI   C5A 4139   3.825   8.831   8.363  0.0012 -0.0778  0.0399
  259loPI   C6A 4140   3.540   8.675   8.046 -0.2540  0.1632  0.0243
  259loPI   C1B 4141   3.896   9.412   9.955 -0.3148 -0.2275  0.1989
  259loPI   C2B 4142   3.851   9.554   9.628  0.3374 -0.0869 -0.3039
  259loPI   C3B 4143   3.819   9.518   9.213  0.1600  0.2051  0.0499
  259loPI   C4B 4144   3.957   9.476   8.826  0.1270 -0.0478 -0.2507
  260loPI    C1 4145   2.042  15.937  10.993  0.1254 -0.0285 -0.1039
  260loPI    C2 4146   2.149  15.616  11.205 -0.2436 -0.0535  0.0526
  260loPI    C3 4147   2.225  15.982  11.345 -0.0819 -0.0702  0.0108
  260loPI   PO4 4148   2.093  15.904  10.756 -0.2573 -0.0026 -0.1778
  260loPI   GL1 4149   1.857  15.794  10.417 -0.2596 -0.2559 -0.0025
  260loPI   GL2 4150   2.221  15.647  10.311 -0.1099 -0.0616 -0.0274
  260loPI   C1A 4151   1.738  15.877  10.022 -0.0344 -0.0381 -0.1001
  260loPI   C2A 4152   1.765  15.955   9.511  0.1462  0.0538 -0.0422
  260loPI   C3A 4153   1.811  15.933   9.136 -0.2062  0.2346 -0.1318
  260loPI   C4A 4154   1.802  15.914   8.765  0.4147  0.1056 -0.2719
  260loPI   C5A 4155   1.785  15.786   8.329  0.0761  0.0320 -0.1636
  260loPI   C6A 4156   2.044  15.813   8.051 -0.0786 -0.1814 -0.0894
  260loPI   C1B 4157   2.283  15.665   9.884 -0.0314 -0.0279  0.0492
  260loPI   C2B 4158   2.238  15.712   9.410 -0.1364  0.0293  0.1577
  260loPI   C3B 4159   2.267  15.712   8.982 -0.1757  0.0371 -0.1389
  260loPI   C4B 4160   2.206  15.663   8.640 -0.2417 -0.0963  0.0466
  261loPI    C1 4161   7.820  16.234  10.769 -0.0840 -0.1169  0.0281
  261loPI    C2 4162   7.692  16.410  11.105  0.1306  0.2964 -0.0994
  261loPI    C3 4163   7.852  16.044  11.119  0.0339  0.2637  0.2301
  261loPI   PO4 4164   7.710  16.332  10.576 -0.1998  0.0380 -0.0756
  261loPI   GL1 4165   7.546  16.436  10.274 -0.1196 -0.2709 -0.2040
  261loPI   GL2 4166   7.895  16.287  10.129 -0.1735  0.0131  0.4568
  261loPI   C1A 4167   7.305  16.406   9.879  0.0521 -0.0859  0.1115
  261loPI   C2A 4168   7.299  16.410   9.416  0.0764  0.0897 -0.2143
  261loPI   C3A 4169   7.265  16.393   9.010 -0.0859  0.1646  0.0485
  261loPI   C4A 4170   7.250  16.276   8.652 -0.0387  0.3537  0.0894
  261loPI   C5A 4171   7.114  16.208   8.243 -0.5439  0.0500  0.1705
  261loPI   C6A 4172   6.974  15.758   8.150 -0.3499 -0.0339  0.2884
  261loPI   C1B 4173   7.755  16.235   9.724 -0.0051  0.0309 -0.3284
  261loPI   C2B 4174   7.732  16.227   9.299 -0.0134  0.0889  0.1836
  261loPI   C3B 4175   7.783  16.266   8.784  0.2597 -0.1989 -0.0175
  261loPI   C4B 4176   7.736  16.258   8.332 -0.0363 -0.2320  0.0766
  262loPI    C1 4177  12.783   7.549  11.320  0.2775 -0.2032 -0.0355
  262loPI    C2 4178  12.402   7.435  11.365  0.2858 -0.2529 -0.0904
  262loPI    C3 4179  12.630   7.501  11.687  0.2002 -0.1196 -0.0567
  262loPI   PO4 4180  12.792   7.587  10.972  0.0911 -0.4597  0.4363
  262loPI   GL1 4181  12.944   7.445  10.577  0.1855  0.0559 -0.0720
  262loPI   GL2 4182  12.676   7.726  10.520 -0.0553 -0.1334 -0.2683
  262loPI   C1A 4183  13.159   7.454  10.183  0.0110 -0.1093 -0.3372
  262loPI   C2A 4184  13.085   7.354   9.842 -0.1594  0.1386  0.2194
  262loPI   C3A 4185  13.186   7.459   9.421  0.2659 -0.3816  0.0374
  262loPI   C4A 4186  13.133   7.420   9.004 -0.0904  0.0536 -0.3046
  262loPI   C5A 4187  13.024   7.358   8.664 -0.0342 -0.1571 -0.2577
  262loPI   C6A 4188  12.830   7.577   8.436  0.2591 -0.1801  0.0532
  262loPI   C1B 4189  12.702   7.575  10.127  0.0381 -0.1194 -0.3805
  262loPI   C2B 4190  12.653   7.613   9.705  0.0133 -0.0563  0.0561
  262loPI   C3B 4191  12.723   7.519   9.306 -0.0154 -0.0987  0.0698
  262loPI   C4B 4192  12.689   7.631   8.927 -0.0941 -0.0136 -0.0679
  263loPI    C1 4193  11.149   1.652  10.997 -0.2029  0.1939  0.1051
  263loPI    C2 4194  11.328   1.877  11.275 -0.0792  0.0605  0.1350
  263loPI    C3 4195  11.135   1.544  11.382 -0.1489  0.0818  0.0762
  263loPI   PO4 4196  11.273   1.690  10.777  0.2403 -0.0668 -0.1753
  263loPI   GL1 4197  11.413   1.601  10.431  0.4352 -0.1237 -0.2234
  263loPI   GL2 4198  11.663   1.878  10.410  0.3780  0.3201  0.0289
  263loPI   C1A 4199  11.465   1.442   9.994 -0.2145  0.0797 -0.0868
  263loPI   C2A 4200  11.496   1.376   9.619 -0.1004 -0.0825  0.4833
  263loPI   C3A 4201  11.486   1.354   9.141  0.0871  0.1753 -0.0523
  263loPI   C4A 4202  11.383   1.360   8.734 -0.2225 -0.0417  0.0322
  263loPI   C5A 4203  11.266   1.439   8.246 -0.1623  0.1282 -0.1970
  263loPI   C6A 4204  11.048   1.279   7.799 -0.0844  0.4187  0.0260
  263loPI   C1B 4205  11.860   1.760  10.109  0.1503 -0.0982  0.2682
  263loPI   C2B 4206  11.861   1.728   9.712 -0.1500 -0.1336 -0.1395
  263loPI   C3B 4207  11.840   1.706   9.310 -0.2170 -0.2518 -0.1296
  263loPI   C4B 4208  11.856   1.700   8.918  0.4283  0.3026 -0.0832
  264loPI    C1 4209   0.477   2.407  10.497 -0.0396 -0.0111  0.2169
  264loPI    C2 4210   0.393   2.795  10.548  0.0056 -0.0187  0.3531
  264loPI    C3 4211   0.134   2.516  10.672 -0.1162 -0.0306  0.0808
  264loPI   PO4 4212   0.567   2.367  10.207 -0.0623  0.0025 -0.3526
  264loPI   GL1 4213   0.849   2.270   9.911  0.4236 -0.0901 -0.0292
  264loPI   GL2 4214   1.106   2.479   9.881 -0.1630 -0.1006  0.0125
  264loPI   C1A 4215   0.799   2.265   9.466 -0.0365  0.0004  0.1916
  264loPI   C2A 4216   0.902   2.187   9.078 -0.1599 -0.1110  0.2707
  264loPI   C3A 4217   0.942   1.991   8.667 -0.2410  0.0367 -0.0199
  264loPI   C4A 4218   0.841   1.935   8.171 -0.2023  0.1054 -0.1268
  264loPI   C5A 4219   0.735   2.252   7.865 -0.0634  0.1390  0.0864
  264loPI   C6A 4220   0.772   2.312   7.468 -0.0613  0.0896 -0.2262
  264loPI   C1B 4221   1.209   2.559   9.338 -0.0732 -0.0118 -0.1547
  264loPI   C2B 4222   1.303   2.464   8.962  0.0948 -0.1700  0.1546
  264loPI   C3B 4223   1.277   2.450   8.534 -0.2297  0.0212 -0.1735
  264loPI   C4B 4224   1.271   2.285   8.130  0.0918  0.0987 -0.0038
  265loPI    C1 4225  11.363   2.317  10.981  0.1089  0.1643  0.0343
  265loPI    C2 4226  11.613   2.250  11.286  0.0994 -0.0127  0.0041
  265loPI    C3 4227  11.632   2.595  11.085  0.2248  0.0322  0.0913
  265loPI   PO4 4228  11.414   2.189  10.771  0.3999 -0.1121  0.2885
  265loPI   GL1 4229  11.222   2.205  10.349  0.2806  0.2369  0.0135
  265loPI   GL2 4230  11.295   2.495  10.209 -0.0749 -0.2719 -0.1640
  265loPI   C1A 4231  11.348   1.977  10.039  0.0620 -0.2190  0.0779
  265loPI   C2A 4232  11.414   1.921   9.629  0.1196 -0.0532  0.1058
  265loPI   C3A 4233  11.375   1.863   9.199 -0.0802  0.1263 -0.2209
  265loPI   C4A 4234  11.406   1.878   8.709  0.2436  0.3842 -0.0562
  265loPI   C5A 4235  11.273   1.930   8.237  0.1276 -0.0823 -0.0498
  265loPI   C6A 4236  11.352   2.070   7.819  0.1817  0.2633 -0.0420
  265loPI   C1B 4237  11.308   2.442   9.786 -0.2958  0.0780 -0.0523
  265loPI   C2B 4238  11.273   2.355   9.388  0.3575  0.3035  0.0837
  265loPI   C3B 4239  11.307   2.352   8.925 -0.1612 -0.2055 -0.0175
  265loPI   C4B 4240  11.243   2.476   8.515 -0.0572 -0.2854  0.0853
  266loPI    C1 4241   8.424  15.464  10.989  0.1202 -0.1249 -0.1382
  266loPI    C2 4242   8.611  15.219  11.244  0.2202 -0.2171 -0.2984
  266loPI    C3 4243   8.748  15.591  11.187 -0.2292  0.0616  0.3310
  266loPI   PO4 4244   8.393  15.351  10.758  0.0767 -0.1671  0.5585
  266loPI   GL1 4245   8.679  15.258  10.330 -0.0118  0.1694  0.0666
  266loPI   GL2 4246   8.425  15.042  10.336 -0.3207 -0.3730 -0.1209
  266loPI   C1A 4247   8.727  15.332   9.854 -0.0010 -0.1259  0.0701
  266loPI   C2A 4248   8.787  15.305   9.426 -0.3527  0.0821 -0.0285
  266loPI   C3A 4249   8.753  15.284   8.971 -0.1362 -0.1278  0.0454
  266loPI   C4A 4250   8.817  15.252   8.569  0.0424  0.1501  0.0377
  266loPI   C5A 4251   9.041  15.314   8.293 -0.0365  0.0900  0.1529
  266loPI   C6A 4252   9.493  15.264   8.164 -0.0791 -0.3871  0.2225
  266loPI   C1B 4253   8.367  14.985   9.845 -0.2325  0.0699  0.0841
  266loPI   C2B 4254   8.350  14.974   9.389  0.3831 -0.1859  0.0463
  266loPI   C3B 4255   8.308  14.883   8.906  0.1008  0.1557 -0.0298
  266loPI   C4B 4256   8.418  14.911   8.401 -0.0490 -0.2951  0.1157
  267loPI    C1 4257   7.790   5.894  11.611  0.0798 -0.2133 -0.2423
  267loPI    C2 4258   7.513   5.877  11.899 -0.2361  0.0842 -0.5192
  267loPI    C3 4259   7.807   5.606  11.888 -0.2391  0.0454  0.0554
  267loPI   PO4 4260   7.644   5.942  11.317 -0.0896 -0.2651  0.0641
  267loPI   GL1 4261   7.591   5.997  10.910 -0.1074 -0.2407  0.2922
  267loPI   GL2 4262   7.665   5.684  10.749  0.1172  0.1381 -0.0203
  267loPI   C1A 4263   7.485   6.161  10.503  0.1450 -0.1403 -0.0308
  267loPI   C2A 4264   7.415   6.198  10.139  0.0242  0.2622 -0.0260
  267loPI   C3A 4265   7.480   6.199   9.726 -0.1116 -0.1561  0.0930
  267loPI   C4A 4266   7.434   6.279   9.347  0.0626  0.0238 -0.0744
  267loPI   C5A 4267   7.416   6.170   8.929 -0.1739 -0.2817  0.1057
  267loPI   C6A 4268   7.124   5.914   8.737 -0.1698  0.1675 -0.3355
  267loPI   C1B 4269   7.569   5.708  10.313  0.0484  0.0729 -0.2968
  267loPI   C2B 4270   7.471   5.697   9.859 -0.1051 -0.4532  0.1099
  267loPI   C3B 4271   7.577   5.734   9.456  0.0652  0.0984 -0.1267
  267loPI   C4B 4272   7.528   5.657   8.996 -0.1998  0.2961  0.2009
  268loPI    C1 4273  15.706   7.091  11.236 -0.0382 -0.2489 -0.0489
  268loPI    C2 4274  15.784   6.698  11.228 -0.2603 -0.3033  0.2791
  268loPI    C3 4275  15.418   6.828  11.325 -0.2557 -0.0193 -0.0634
  268loPI   PO4 4276  15.791   7.128  10.937  0.0598 -0.0969  0.2949
  268loPI   GL1 4277  15.853   7.130  10.468  0.1453  0.0628 -0.0193
  268loPI   GL2 4278  15.954   7.376  10.314  0.1750 -0.2438 -0.3393
  268loPI   C1A 4279  15.588   7.032  10.164 -0.0097  0.0470 -0.2142
  268loPI   C2A 4280  15.437   7.069   9.769  0.1711 -0.0105  0.1002
  268loPI   C3A 4281  15.407   7.053   9.274 -0.0971  0.2405  0.0053
  268loPI   C4A 4282  15.440   7.079   8.791 -0.3369  0.6296  0.1551
  268loPI   C5A 4283  15.386   7.157   8.313 -0.0356 -0.0676 -0.0035
  268loPI   C6A 4284  15.217   7.181   7.896  0.1099  0.1560 -0.0624
  268loPI   C1B 4285  15.925   7.410   9.898  0.1078 -0.2858  0.2657
  268loPI   C2B 4286  15.852   7.380   9.411 -0.0474  0.0443 -0.0595
  268loPI   C3B 4287  15.794   7.413   9.014 -0.0011  0.2632  0.0356
  268loPI   C4B 4288  15.811   7.428   8.498 -0.0571  0.1478  0.1536
  269loPI    C1 4289  13.979  10.105  11.105  0.1462 -0.0508 -0.0379
  269loPI    C2 4290  13.959   9.959  11.477 -0.1463  0.0573 -0.0086
  269loPI    C3 4291  14.014  10.351  11.419  0.2678 -0.0073 -0.0850
  269loPI   PO4 4292  13.849   9.995  10.891 -0.0424 -0.1061  0.0388
  269loPI   GL1 4293  13.982   9.701  10.457 -0.0625  0.2425 -0.3999
  269loPI   GL2 4294  13.770   9.557  10.278 -0.2479  0.1995 -0.0538
  269loPI   C1A 4295  14.125   9.922  10.089 -0.0556 -0.1075 -0.1430
  269loPI   C2A 4296  14.143   9.840   9.686 -0.0125  0.1433  0.1293
  269loPI   C3A 4297  14.018   9.898   9.276  0.1495 -0.0501 -0.0471
  269loPI   C4A 4298  14.035   9.974   8.913  0.0408 -0.0752 -0.2971
  269loPI   C5A 4299  14.069   9.946   8.400  0.1156 -0.2347  0.2449
  269loPI   C6A 4300  13.857  10.331   8.128  0.0431 -0.0413  0.2442
  269loPI   C1B 4301  13.774   9.573   9.879  0.3080 -0.0427 -0.0022
  269loPI   C2B 4302  13.724   9.538   9.567  0.2130 -0.0760 -0.0698
  269loPI   C3B 4303  13.657   9.594   9.072  0.0333  0.2701 -0.2734
  269loPI   C4B 4304  13.671   9.645   8.629  0.0757 -0.1137  0.0189
  270loPI    C1 4305   3.090  13.390  11.310  0.3476  0.0907  0.3223
  270loPI    C2 4306   2.843  13.321  11.616 -0.0137 -0.0329  0.0114
  270loPI    C3 4307   3.053  13.020  11.458 -0.0228 -0.0192 -0.0266
  270loPI   PO4 4308   2.973  13.426  11.109  0.0769 -0.1049 -0.0594
  270loPI   GL1 4309   2.794  13.550  10.715 -0.0044 -0.0595  0.1090
  270loPI   GL2 4310   2.737  13.213  10.654 -0.0186  0.1036  0.3717
  270loPI   C1A 4311   2.675  13.616  10.222  0.1442  0.1112  0.1420
  270loPI   C2A 4312   2.576  13.697   9.822 -0.0270  0.0302  0.1059
  270loPI   C3A 4313   2.644  13.730   9.389  0.0857  0.2108 -0.0197
  270loPI   C4A 4314   2.552  13.581   8.980  0.2475  0.0341  0.0336
  270loPI   C5A 4315   2.536  13.378   8.590 -0.0259  0.0828 -0.0170
  270loPI   C6A 4316   2.590  13.140   8.100 -0.2646  0.0726  0.0481
  270loPI   C1B 4317   2.777  13.146  10.197  0.0780  0.0718 -0.0351
  270loPI   C2B 4318   2.723  13.242   9.812  0.1325 -0.1006  0.2118
  270loPI   C3B 4319   2.740  13.193   9.430 -0.0594  0.3042 -0.4068
  270loPI   C4B 4320   2.605  13.062   8.973 -0.2900  0.0607 -0.0312
  271loPI    C1 4321  11.659   7.224  11.162  0.0042 -0.0025  0.0537
  271loPI    C2 4322  11.849   7.485  11.398 -0.2506 -0.1025  0.3760
  271loPI    C3 4323  11.690   7.152  11.554 -0.0865 -0.3641 -0.0021
  271loPI   PO4 4324  11.851   7.272  10.909  0.2406 -0.0075  0.0474
  271loPI   GL1 4325  12.098   7.136  10.436  0.0147  0.2007  0.0775
  271loPI   GL2 4326  12.376   7.381  10.396 -0.3782  0.2832 -0.1893
  271loPI   C1A 4327  11.882   7.031  10.021 -0.1929  0.1017  0.0673
  271loPI   C2A 4328  11.843   6.853   9.582  0.4619  0.3769  0.0103
  271loPI   C3A 4329  11.923   6.969   9.132  0.1048  0.0668  0.1466
  271loPI   C4A 4330  11.840   6.979   8.755 -0.2400 -0.0793 -0.0042
  271loPI   C5A 4331  11.780   7.023   8.343 -0.2224  0.0043  0.1889
  271loPI   C6A 4332  11.764   6.871   7.989  0.4893  0.1563  0.3590
  271loPI   C1B 4333  12.295   7.285   9.995  0.0950 -0.0759  0.0334
  271loPI   C2B 4334  12.222   7.239   9.518  0.2215  0.0271 -0.0179
  271loPI   C3B 4335  12.278   7.320   8.991 -0.2697  0.0281 -0.0214
  271loPI   C4B 4336  12.286   7.304   8.567 -0.3001 -0.1855 -0.0850
  272loPI    C1 4337   1.380   8.378  11.112  0.2284 -0.1232  0.1889
  272loPI    C2 4338   1.408   8.757  11.236 -0.0366 -0.0663  0.0802
  272loPI    C3 4339   1.184   8.496  11.441 -0.3189 -0.0198 -0.1616
  272loPI   PO4 4340   1.428   8.414  10.824  0.3570  0.1889  0.1749
  272loPI   GL1 4341   1.518   8.111  10.525 -0.1220 -0.0548 -0.1552
  272loPI   GL2 4342   1.649   7.768  10.479 -0.0260 -0.0189 -0.2069
  272loPI   C1A 4343   1.465   7.950  10.026  0.1517  0.1648 -0.0218
  272loPI   C2A 4344   1.434   7.865   9.485  0.1567  0.0817  0.1894
  272loPI   C3A 4345   1.496   7.849   9.100 -0.3089 -0.0475  0.0324
  272loPI   C4A 4346   1.423   7.875   8.677  0.3191  0.0833 -0.1776
  272loPI   C5A 4347   1.498   7.874   8.253  0.2104  0.0825  0.0586
  272loPI   C6A 4348   1.447   8.021   7.818 -0.1046  0.0098 -0.0081
  272loPI   C1B 4349   1.848   7.602  10.089  0.0020  0.0676  0.3310
  272loPI   C2B 4350   1.904   7.612   9.635 -0.3150 -0.0655 -0.0054
  272loPI   C3B 4351   2.047   7.638   9.246 -0.0327 -0.2344 -0.0648
  272loPI   C4B 4352   2.042   7.698   8.801  0.0946  0.2222 -0.0530
  273loPI    C1 4353   9.622   5.072  10.998  0.0713 -0.1571 -0.0454
  273loPI    C2 4354   9.254   5.074  11.154  0.0770 -0.2071 -0.0312
  273loPI    C3 4355   9.564   4.951  11.374  0.1291  0.0039  0.0162
  273loPI   PO4 4356   9.592   5.060  10.739  0.0972  0.0624  0.2543
  273loPI   GL1 4357   9.820   4.984  10.323  0.0949 -0.2691  0.0198
  273loPI   GL2 4358   9.825   5.328  10.245  0.1194  0.0164  0.0719
  273loPI   C1A 4359   9.941   4.799   9.964  0.0958  0.0288 -0.2689
  273loPI   C2A 4360   9.939   4.771   9.523 -0.1815 -0.0272 -0.2989
  273loPI   C3A 4361   9.857   4.808   9.173 -0.0316 -0.1700 -0.1227
  273loPI   C4A 4362   9.921   4.855   8.759  0.2380 -0.3060  0.1095
  273loPI   C5A 4363   9.976   5.059   8.365 -0.0826  0.1059  0.0089
  273loPI   C6A 4364  10.229   5.243   8.178 -0.2487  0.0469 -0.1633
  273loPI   C1B 4365   9.894   5.324   9.814  0.2875 -0.1401  0.3153
  273loPI   C2B 4366   9.873   5.291   9.284 -0.1372  0.0034 -0.3568
  273loPI   C3B 4367   9.833   5.352   8.805 -0.0467  0.0844  0.3469
  273loPI   C4B 4368  10.152   5.536   8.539  0.3015 -0.0855  0.1051
  274loPI    C1 4369  16.388   8.819  11.177  0.3964  0.1925 -0.2721
  274loPI    C2 4370  16.513   8.565  11.460 -0.0601  0.0254 -0.2108
  274loPI    C3 4371  16.621   8.950  11.474  0.1816 -0.0475  0.0089
  274loPI   PO4 4372  16.343   8.607  10.983  0.0073 -0.0133  0.1135
  274loPI   GL1 4373  16.334   8.544  10.668 -0.0642 -0.0755  0.0651
  274loPI   GL2 4374  16.587   8.431  10.321 -0.2418  0.0568  0.2285
  274loPI   C1A 4375  16.184   8.613  10.109 -0.3063 -0.1684 -0.2173
  274loPI   C2A 4376  16.088   8.657   9.687  0.1195 -0.0891  0.1262
  274loPI   C3A 4377  16.099   8.609   9.277  0.0879  0.4297  0.2459
  274loPI   C4A 4378  16.110   8.735   8.806  0.0919  0.1238 -0.2861
  274loPI   C5A 4379  16.114   8.589   8.348  0.0303  0.0921 -0.0009
  274loPI   C6A 4380  15.969   8.661   7.920 -0.0934  0.2003  0.1507
  274loPI   C1B 4381  16.638   8.515   9.880 -0.0349  0.1058 -0.1812
  274loPI   C2B 4382  16.541   8.569   9.438  0.0134  0.0552 -0.0297
  274loPI   C3B 4383  16.574   8.552   9.034 -0.3090  0.1263  0.1504
  274loPI   C4B 4384  16.531   8.529   8.571  0.2878  0.1781 -0.2712
  275loPI    C1 4385   7.030   9.714  11.314  0.0787  0.1381 -0.0083
  275loPI    C2 4386   6.846   9.998  11.528  0.2240  0.2398 -0.0171
  275loPI    C3 4387   6.963   9.659  11.705 -0.1623  0.0812 -0.0559
  275loPI   PO4 4388   6.893   9.750  11.072 -0.1122 -0.1897  0.2008
  275loPI   GL1 4389   6.547   9.524  10.753 -0.0689  0.2188  0.3633
  275loPI   GL2 4390   6.920   9.277  10.735 -0.0387 -0.2171  0.0221
  275loPI   C1A 4391   6.597   9.496  10.341  0.1074 -0.1029  0.0950
  275loPI   C2A 4392   6.517   9.419   9.863  0.0207 -0.1146  0.1094
  275loPI   C3A 4393   6.553   9.402   9.383 -0.1570  0.0171 -0.1307
  275loPI   C4A 4394   6.535   9.458   9.015  0.0455 -0.2080  0.0300
  275loPI   C5A 4395   6.537   9.629   8.616 -0.0567 -0.0473 -0.0779
  275loPI   C6A 4396   6.348   9.776   8.186  0.1337  0.0900  0.0273
  275loPI   C1B 4397   7.008   9.247  10.236  0.2614  0.0870 -0.1855
  275loPI   C2B 4398   6.938   9.224   9.852 -0.1103  0.1075 -0.3350
  275loPI   C3B 4399   7.013   9.170   9.437  0.2112 -0.0921  0.3007
  275loPI   C4B 4400   6.991   9.298   8.955 -0.0324 -0.4645  0.1868
  276loPI    C1 4401   7.951   1.103  10.520 -0.0683  0.0860  0.0689
  276loPI    C2 4402   8.047   0.715  10.540  0.1303  0.1253 -0.0814
  276loPI    C3 4403   8.031   0.935  10.874 -0.1292 -0.0443  0.0216
  276loPI   PO4 4404   7.787   1.122  10.317  0.0818  0.3510  0.0244
  276loPI   GL1 4405   7.604   1.390  10.037 -0.0648  0.1013 -0.0238
  276loPI   GL2 4406   7.696   1.692  10.019  0.1164 -0.1163 -0.2247
  276loPI   C1A 4407   7.325   1.499   9.606  0.2269 -0.1117  0.2478
  276loPI   C2A 4408   7.312   1.461   9.084 -0.0770 -0.0846 -0.0770
  276loPI   C3A 4409   7.184   1.487   8.641  0.1645 -0.2851  0.1679
  276loPI   C4A 4410   7.170   1.458   8.215  0.0490  0.1225 -0.2489
  276loPI   C5A 4411   7.456   1.625   7.895 -0.2055 -0.0178 -0.1610
  276loPI   C6A 4412   7.771   2.002   7.927  0.0023 -0.2230 -0.2431
  276loPI   C1B 4413   7.729   1.885   9.658  0.2418 -0.4152 -0.2539
  276loPI   C2B 4414   7.797   1.765   9.230 -0.1544  0.0473  0.0174
  276loPI   C3B 4415   7.667   1.764   8.817  0.1043  0.0048 -0.3550
  276loPI   C4B 4416   7.628   1.789   8.358 -0.4156 -0.2043  0.2352
  277loPI    C1 4417  11.945  15.882  11.159  0.2198 -0.0607 -0.0936
  277loPI    C2 4418  11.687  15.932  11.461  0.2426 -0.2780 -0.0364
  277loPI    C3 4419  12.029  16.139  11.454  0.0147  0.1031 -0.1755
  277loPI   PO4 4420  11.797  15.922  10.892 -0.0046  0.0971 -0.0956
  277loPI   GL1 4421  11.808  15.902  10.493  0.1351 -0.3330  0.0412
  277loPI   GL2 4422  11.823  15.497  10.357 -0.0748  0.0061 -0.1328
  277loPI   C1A 4423  11.704  16.046  10.098  0.4982 -0.2160  0.4986
  277loPI   C2A 4424  11.761  15.932   9.694  0.1541  0.3530  0.1850
  277loPI   C3A 4425  11.764  15.937   9.237  0.0914 -0.0939 -0.1354
  277loPI   C4A 4426  11.762  15.948   8.892 -0.0759 -0.1497 -0.0759
  277loPI   C5A 4427  11.646  16.013   8.497  0.0521  0.1475 -0.1383
  277loPI   C6A 4428  11.351  16.208   8.301 -0.1308 -0.0914  0.1831
  277loPI   C1B 4429  11.829  15.424   9.926  0.0916  0.0292  0.0058
  277loPI   C2B 4430  11.838  15.448   9.474  0.0483 -0.4374  0.0073
  277loPI   C3B 4431  11.900  15.494   9.017  0.4812  0.0901  0.0250
  277loPI   C4B 4432  11.856  15.528   8.579 -0.3484 -0.2809 -0.3051
  278loPI    C1 4433  11.273   8.265  11.188  0.0903  0.0599 -0.0592
  278loPI    C2 4434  11.176   8.638  11.299  0.3478  0.1430 -0.1067
  278loPI    C3 4435  11.286   8.369  11.574 -0.0155  0.0454 -0.0514
  278loPI   PO4 4436  11.383   8.206  10.995 -0.2746  0.1419 -0.0327
  278loPI   GL1 4437  11.258   8.128  10.627 -0.0762 -0.1479 -0.0106
  278loPI   GL2 4438  11.574   7.999  10.472 -0.1975 -0.1638  0.0352
  278loPI   C1A 4439  11.228   8.236  10.174  0.1041 -0.0591  0.1610
  278loPI   C2A 4440  11.261   8.108   9.794  0.0964  0.0960 -0.0552
  278loPI   C3A 4441  11.256   8.104   9.329  0.3699 -0.2562  0.2209
  278loPI   C4A 4442  11.183   8.229   8.871 -0.0002  0.2206  0.1228
  278loPI   C5A 4443  11.312   8.176   8.500 -0.2475  0.2524 -0.2731
  278loPI   C6A 4444  11.259   7.795   8.257 -0.1114  0.1358  0.1470
  278loPI   C1B 4445  11.707   8.016  10.050 -0.3810  0.0907 -0.2529
  278loPI   C2B 4446  11.743   8.035   9.661  0.2639  0.0860 -0.1697
  278loPI   C3B 4447  11.708   8.016   9.226  0.0861 -0.2226  0.1142
  278loPI   C4B 4448  11.645   7.970   8.796 -0.0040  0.1033 -0.1080
  279loPI    C1 4449   5.268  10.974  11.187 -0.1302 -0.1623  0.2023
  279loPI    C2 4450   5.413  11.248  11.439  0.1598 -0.2440  0.1282
  279loPI    C3 4451   5.270  10.903  11.580  0.2312 -0.2492  0.1887
  279loPI   PO4 4452   5.424  10.899  11.021  0.0153 -0.1286  0.1364
  279loPI   GL1 4453   5.647  10.894  10.680 -0.2939 -0.1967  0.1018
  279loPI   GL2 4454   5.871  10.791  10.593  0.2132  0.4151 -0.3505
  279loPI   C1A 4455   5.378  10.977  10.360 -0.5333 -0.1179 -0.1438
  279loPI   C2A 4456   5.364  10.842   9.952 -0.0251  0.1302 -0.1347
  279loPI   C3A 4457   5.352  10.770   9.438  0.2434  0.3526 -0.0043
  279loPI   C4A 4458   5.391  10.800   8.987  0.0046 -0.0529  0.1191
  279loPI   C5A 4459   5.576  11.052   8.579 -0.3275  0.0621  0.1455
  279loPI   C6A 4460   5.394  11.315   8.387 -0.0337  0.1258 -0.1438
  279loPI   C1B 4461   5.944  10.677  10.199 -0.1787 -0.1190 -0.3902
  279loPI   C2B 4462   5.960  10.611   9.690  0.0732  0.1617 -0.1865
  279loPI   C3B 4463   5.914  10.643   9.266  0.2469 -0.0282 -0.0153
  279loPI   C4B 4464   5.832  10.682   8.817  0.2128  0.0983  0.2020
  280loPI    C1 4465  16.975  14.310  10.832 -0.0404 -0.0063 -0.0537
  280loPI    C2 4466  16.585  14.398  10.822 -0.0734 -0.1326  0.0898
  280loPI    C3 4467  16.790  14.436  11.164  0.0164 -0.1670  0.0402
  280loPI   PO4 4468  17.013  14.137  10.734  0.0498  0.2719  0.1273
  280loPI   GL1 4469  16.878  14.024  10.344 -0.2030 -0.1837 -0.1840
  280loPI   GL2 4470  16.684  13.823  10.214 -0.0187 -0.4014 -0.0780
  280loPI   C1A 4471  16.925  14.190   9.954 -0.2404 -0.0411  0.0635
  280loPI   C2A 4472  16.991  14.204   9.514  0.1723 -0.1026 -0.1607
  280loPI   C3A 4473  16.938  14.122   9.163 -0.1010  0.1556  0.1172
  280loPI   C4A 4474  16.879  14.092   8.718  0.0195 -0.1108 -0.0796
  280loPI   C5A 4475  16.911  13.997   8.343 -0.1084  0.1699 -0.0738
  280loPI   C6A 4476  16.729  13.847   7.990  0.0126 -0.0625 -0.1494
  280loPI   C1B 4477  16.571  13.839   9.761 -0.4141  0.2107 -0.0429
  280loPI   C2B 4478  16.597  13.786   9.280 -0.1433 -0.1646  0.2024
  280loPI   C3B 4479  16.583  13.721   8.871  0.1977 -0.0075  0.0877
  280loPI   C4B 4480  16.572  13.629   8.472 -0.0843  0.0824 -0.0448
  281loPI    C1 4481   2.898  17.249  10.616  0.0871  0.0396 -0.2317
  281loPI    C2 4482   2.686  17.100  10.921 -0.1497  0.3440 -0.2428
  281loPI    C3 4483   3.035  17.283  10.990 -0.0539  0.1430 -0.1887
  281loPI   PO4 4484   2.933  17.038  10.461  0.0655 -0.0281 -0.0318
  281loPI   GL1 4485   2.721  16.782  10.221 -0.1124 -0.0506 -0.1465
  281loPI   GL2 4486   2.958  16.743  10.054  0.0791  0.0284 -0.1103
  281loPI   C1A 4487   2.554  17.046   9.824 -0.1257 -0.2116 -0.3557
  281loPI   C2A 4488   2.535  16.986   9.303  0.1208 -0.0633 -0.0428
  281loPI   C3A 4489   2.585  16.994   8.885 -0.1571  0.1547  0.2209
  281loPI   C4A 4490   2.562  16.927   8.438 -0.1495 -0.0409  0.2500
  281loPI   C5A 4491   2.404  16.899   8.071 -0.0557  0.1636  0.0087
  281loPI   C6A 4492   2.455  16.610   7.794  0.0629 -0.1395 -0.0702
  281loPI   C1B 4493   2.978  16.909   9.607 -0.4755  0.2182  0.1093
  281loPI   C2B 4494   3.004  16.794   9.157 -0.1151 -0.1954 -0.4227
  281loPI   C3B 4495   2.985  16.754   8.667 -0.1440 -0.1599  0.2208
  281loPI   C4B 4496   3.091  16.766   8.180  0.1953 -0.0416 -0.1756
  282loPI    C1 4497   1.469   1.706  10.503 -0.0054 -0.3064  0.1859
  282loPI    C2 4498   1.689   1.775  10.830  0.2084  0.1165 -0.0379
  282loPI    C3 4499   1.293   1.832  10.839  0.1699 -0.1654  0.2265
  282loPI   PO4 4500   1.565   1.532  10.387  0.2276 -0.1461  0.1104
  282loPI   GL1 4501   1.578   1.254  10.079  0.2510 -0.1743 -0.0562
  282loPI   GL2 4502   1.295   1.174   9.936  0.3516  0.0525 -0.0725
  282loPI   C1A 4503   1.758   1.354   9.731 -0.0144  0.0371  0.3311
  282loPI   C2A 4504   1.857   1.287   9.306 -0.0587 -0.1556  0.1446
  282loPI   C3A 4505   1.812   1.259   8.858  0.0900  0.2439 -0.1033
  282loPI   C4A 4506   1.729   1.193   8.451  0.0615 -0.0329  0.1960
  282loPI   C5A 4507   1.934   1.246   7.982  0.1251 -0.2021 -0.3957
  282loPI   C6A 4508   2.125   1.367   7.490  0.1580  0.0231 -0.0638
  282loPI   C1B 4509   1.430   1.027   9.490 -0.0934 -0.2371  0.0786
  282loPI   C2B 4510   1.459   0.935   8.990 -0.2317  0.0879  0.2542
  282loPI   C3B 4511   1.433   0.843   8.559 -0.0542  0.1524  0.2233
  282loPI   C4B 4512   1.455   0.844   8.242 -0.0421  0.1908 -0.2729
  283loPI    C1 4513   1.190  12.605  11.344  0.4137  0.1913  0.0009
  283loPI    C2 4514   1.184  12.243  11.516 -0.1516  0.1320 -0.1260
  283loPI    C3 4515   1.284  12.565  11.731 -0.0140 -0.0495  0.0861
  283loPI   PO4 4516   1.027  12.523  11.128 -0.0766  0.2085  0.0312
  283loPI   GL1 4517   0.873  12.538  10.723  0.0749 -0.0435 -0.2104
  283loPI   GL2 4518   1.083  12.237  10.686  0.1632  0.0816  0.0079
  283loPI   C1A 4519   0.627  12.430  10.312  0.0299 -0.0427  0.1749
  283loPI   C2A 4520   0.575  12.522   9.783  0.0667  0.0691  0.0468
  283loPI   C3A 4521   0.607  12.494   9.390  0.0103  0.0549  0.0918
  283loPI   C4A 4522   0.577  12.431   8.997 -0.0036  0.1818 -0.1525
  283loPI   C5A 4523   0.745  12.402   8.578 -0.1357  0.2900  0.2678
  283loPI   C6A 4524   1.135  12.238   8.346 -0.1000 -0.1510  0.1798
  283loPI   C1B 4525   1.110  12.285  10.260 -0.0018 -0.1705 -0.0105
  283loPI   C2B 4526   1.129  12.348   9.815  0.1645 -0.1945  0.0769
  283loPI   C3B 4527   1.068  12.335   9.362 -0.0199 -0.2360  0.1084
  283loPI   C4B 4528   1.082  12.314   8.912  0.0395  0.0182 -0.0072
  284loPI    C1 4529   9.500   5.552  10.993  0.0016 -0.1846 -0.0063
  284loPI    C2 4530   9.414   5.514  11.381  0.0135  0.1298  0.0300
  284loPI    C3 4531   9.789   5.457  11.252 -0.0124 -0.0853  0.0461
  284loPI   PO4 4532   9.280   5.433  10.845  0.1196  0.0529 -0.0012
  284loPI   GL1 4533   9.315   5.329  10.433  0.2386  0.1057 -0.2202
  284loPI   GL2 4534   9.342   5.008  10.315  0.3659 -0.1290 -0.2243
  284loPI   C1A 4535   9.390   5.466  10.043 -0.1664  0.2119  0.0809
  284loPI   C2A 4536   9.449   5.515   9.649  0.5067  0.1008 -0.0128
  284loPI   C3A 4537   9.348   5.513   9.177  0.3169  0.1828  0.0845
  284loPI   C4A 4538   9.366   5.497   8.832  0.4973 -0.3195  0.3238
  284loPI   C5A 4539   9.559   5.527   8.380  0.2318  0.0307 -0.0673
  284loPI   C6A 4540   9.787   5.445   8.014 -0.2686 -0.1969  0.1148
  284loPI   C1B 4541   9.442   5.012   9.942  0.1117  0.1019 -0.2669
  284loPI   C2B 4542   9.442   5.029   9.422 -0.0477 -0.1751  0.0356
  284loPI   C3B 4543   9.437   4.965   8.986 -0.0928 -0.0647 -0.0429
  284loPI   C4B 4544   9.432   5.021   8.532 -0.2603  0.0184 -0.0631
  285loPI    C1 4545   2.293   5.131  11.143  0.2811 -0.1745 -0.1888
  285loPI    C2 4546   2.431   5.031  11.505 -0.2860 -0.2117  0.0269
  285loPI    C3 4547   2.358   5.414  11.418 -0.2205 -0.2104 -0.0229
  285loPI   PO4 4548   2.529   5.039  10.982  0.0397  0.1359 -0.2101
  285loPI   GL1 4549   2.657   5.000  10.477 -0.1252 -0.0657 -0.0908
  285loPI   GL2 4550   2.583   5.232  10.317 -0.0043 -0.0926  0.2886
  285loPI   C1A 4551   3.047   5.215  10.304  0.0739  0.2542 -0.0248
  285loPI   C2A 4552   3.052   5.156   9.937  0.2585 -0.1752 -0.1065
  285loPI   C3A 4553   3.105   5.130   9.624  0.1486  0.0692  0.2347
  285loPI   C4A 4554   3.087   5.122   9.262 -0.2464  0.2970  0.1962
  285loPI   C5A 4555   3.132   5.108   8.854 -0.2984  0.1133 -0.1452
  285loPI   C6A 4556   3.161   5.215   8.458  0.0516 -0.2136 -0.1337
  285loPI   C1B 4557   2.586   5.404   9.895 -0.1089 -0.1670 -0.1273
  285loPI   C2B 4558   2.650   5.289   9.431  0.2478  0.0690  0.0366
  285loPI   C3B 4559   2.722   5.370   8.976  0.0424  0.0566 -0.0979
  285loPI   C4B 4560   2.696   5.478   8.515 -0.0603 -0.0788  0.4195
  286loPI    C1 4561   5.170  14.712  10.852 -0.1393 -0.0648 -0.0310
  286loPI    C2 4562   5.416  14.658  11.163  0.0853 -0.2491 -0.2367
  286loPI    C3 4563   5.324  15.028  11.042  0.0534 -0.1774  0.0025
  286loPI   PO4 4564   5.206  14.531  10.708 -0.1748  0.1843  0.3122
  286loPI   GL1 4565   5.370  14.628  10.310 -0.1311  0.1956 -0.0438
  286loPI   GL2 4566   5.222  14.754  10.037 -0.2394  0.3478  0.2391
  286loPI   C1A 4567   5.667  14.567  10.098 -0.3192 -0.0910 -0.2663
  286loPI   C2A 4568   5.775  14.584   9.736  0.1636  0.0688 -0.0351
  286loPI   C3A 4569   5.593  14.470   9.420  0.1938  0.1389  0.0060
  286loPI   C4A 4570   5.597  14.485   8.973  0.0339 -0.4097 -0.0847
  286loPI   C5A 4571   5.487  14.575   8.565  0.1130 -0.3302  0.0783
  286loPI   C6A 4572   5.299  14.470   8.108 -0.1911 -0.0740 -0.1761
  286loPI   C1B 4573   5.237  14.642   9.680 -0.0808  0.2075  0.1862
  286loPI   C2B 4574   5.185  14.699   9.229  0.1015 -0.1156 -0.2033
  286loPI   C3B 4575   5.109  14.779   8.819  0.4053 -0.1887 -0.0470
  286loPI   C4B 4576   4.996  14.656   8.496 -0.2109 -0.0959  0.3048
  287loPI    C1 4577   6.368   6.627  11.476  0.0542 -0.2772  0.2891
  287loPI    C2 4578   6.134   6.854  11.708 -0.0557  0.0103 -0.0927
  287loPI    C3 4579   5.972   6.571  11.477 -0.0061  0.0687 -0.2003
  287loPI   PO4 4580   6.480   6.729  11.337  0.0641 -0.0022  0.0605
  287loPI   GL1 4581   6.627   6.748  10.944  0.1720 -0.2322  0.0311
  287loPI   GL2 4582   6.482   6.989  10.869  0.3625  0.2287  0.2367
  287loPI   C1A 4583   6.887   6.869  10.644  0.2068  0.0557  0.1156
  287loPI   C2A 4584   6.850   6.837  10.208  0.0942 -0.3683 -0.0780
  287loPI   C3A 4585   6.939   6.928   9.750  0.0833 -0.1279  0.2199
  287loPI   C4A 4586   6.975   6.836   9.259 -0.0920 -0.1551  0.1891
  287loPI   C5A 4587   6.942   6.894   8.811  0.0116 -0.1172 -0.0040
  287loPI   C6A 4588   7.164   7.052   8.408 -0.1869 -0.1610 -0.2002
  287loPI   C1B 4589   6.488   7.140  10.455 -0.3043 -0.4037 -0.0838
  287loPI   C2B 4590   6.466   7.073  10.003 -0.0240  0.0145 -0.0470
  287loPI   C3B 4591   6.428   7.071   9.605 -0.0072 -0.1669 -0.1945
  287loPI   C4B 4592   6.496   7.056   9.156  0.2518  0.2778 -0.0175
  288loPI    C1 4593  14.611  13.350  11.385 -0.0214  0.1650 -0.0398
  288loPI    C2 4594  14.926  13.120  11.472 -0.1097  0.0290 -0.0768
  288loPI    C3 4595  14.561  12.958  11.447 -0.1954  0.2000  0.0471
  288loPI   PO4 4596  14.650  13.493  11.126  0.1040  0.3841 -0.3223
  288loPI   GL1 4597  14.842  13.538  10.700 -0.2897  0.0323  0.1040
  288loPI   GL2 4598  14.867  13.837  10.553 -0.0131 -0.0002  0.2316
  288loPI   C1A 4599  14.935  13.375  10.292  0.0901 -0.2318  0.3166
  288loPI   C2A 4600  14.814  13.390   9.862  0.2719 -0.0178  0.2134
  288loPI   C3A 4601  14.890  13.452   9.510  0.0286 -0.2502  0.5815
  288loPI   C4A 4602  14.803  13.422   9.093 -0.0597  0.1432  0.0901
  288loPI   C5A 4603  14.794  13.363   8.658  0.2674 -0.0042  0.2994
  288loPI   C6A 4604  15.082  13.260   8.382  0.1715 -0.0179 -0.0936
  288loPI   C1B 4605  14.817  13.945  10.110 -0.2524 -0.1783 -0.1888
  288loPI   C2B 4606  14.819  13.934   9.659 -0.0050 -0.1410  0.2269
  288loPI   C3B 4607  14.743  13.873   9.182 -0.1276 -0.2536  0.0075
  288loPI   C4B 4608  14.782  13.898   8.764  0.0264 -0.1130 -0.1219
  289loPI    C1 4609   1.145  13.133  11.246 -0.1216  0.1388  0.0812
  289loPI    C2 4610   1.335  13.022  11.580 -0.0743  0.0299  0.0186
  289loPI    C3 4611   0.935  13.010  11.563 -0.0658 -0.2680 -0.0338
  289loPI   PO4 4612   1.189  12.986  11.003 -0.2402  0.4082  0.0244
  289loPI   GL1 4613   0.997  13.069  10.631 -0.0221 -0.0647  0.1970
  289loPI   GL2 4614   0.984  13.422  10.645 -0.0837 -0.1119 -0.1384
  289loPI   C1A 4615   0.965  12.828  10.213  0.0419 -0.3210 -0.1492
  289loPI   C2A 4616   1.001  12.845   9.823 -0.0201 -0.2607 -0.0469
  289loPI   C3A 4617   0.973  12.908   9.439  0.2076  0.4006  0.0536
  289loPI   C4A 4618   0.930  12.762   8.916 -0.2306 -0.4027 -0.0453
  289loPI   C5A 4619   1.045  12.861   8.490  0.2304 -0.0197 -0.1202
  289loPI   C6A 4620   1.388  13.157   8.614 -0.1628 -0.2264 -0.1534
  289loPI   C1B 4621   0.860  13.355  10.217  0.1553 -0.1563 -0.2284
  289loPI   C2B 4622   0.842  13.457   9.752  0.0050 -0.0147  0.0830
  289loPI   C3B 4623   0.854  13.344   9.273  0.0802  0.1000 -0.1339
  289loPI   C4B 4624   0.937  13.373   8.827  0.0073  0.0195 -0.1107
  290loPI    C1 4625   4.945   7.599  11.238  0.0563  0.0226 -0.1624
  290loPI    C2 4626   5.022   7.452  11.602  0.3278 -0.0034 -0.2285
  290loPI    C3 4627   4.775   7.256  11.355 -0.1359  0.1916  0.0660
  290loPI   PO4 4628   5.097   7.609  11.117  0.0956 -0.0592  0.3155
  290loPI   GL1 4629   5.217   7.555  10.738 -0.3398  0.1174  0.0304
  290loPI   GL2 4630   5.024   7.809  10.630  0.0659  0.2143  0.1970
  290loPI   C1A 4631   5.368   7.506  10.338  0.0321 -0.2533  0.0001
  290loPI   C2A 4632   5.486   7.503   9.931  0.1834  0.1056  0.1220
  290loPI   C3A 4633   5.571   7.515   9.427  0.0256  0.0602 -0.1651
  290loPI   C4A 4634   5.512   7.526   8.968  0.2551  0.1026  0.0610
  290loPI   C5A 4635   5.542   7.437   8.618 -0.3814  0.1892  0.2006
  290loPI   C6A 4636   5.441   7.219   8.283 -0.2819  0.1605 -0.2008
  290loPI   C1B 4637   4.970   7.691  10.180  0.0572 -0.2102 -0.0722
  290loPI   C2B 4638   5.020   7.632   9.700 -0.1012  0.0208 -0.3480
  290loPI   C3B 4639   5.075   7.653   9.258 -0.1225  0.2359  0.0183
  290loPI   C4B 4640   5.050   7.692   8.842  0.0415  0.2922  0.0822
  291loPI    C1 4641   6.403  15.649  10.699 -0.2091 -0.0847 -0.0064
  291loPI    C2 4642   6.354  15.532  11.078  0.1843 -0.1108  0.0409
  291loPI    C3 4643   6.393  15.921  10.992 -0.2615 -0.0743 -0.0180
  291loPI   PO4 4644   6.576  15.516  10.512 -0.2577  0.0077  0.1450
  291loPI   GL1 4645   6.454  15.311  10.169  0.0968  0.1926 -0.1753
  291loPI   GL2 4646   6.204  15.395  10.115  0.4374  0.0740  0.0199
  291loPI   C1A 4647   6.647  15.221   9.865  0.2205 -0.1983  0.1396
  291loPI   C2A 4648   6.635  15.183   9.446 -0.2350 -0.2277  0.0474
  291loPI   C3A 4649   6.496  15.157   9.020  0.1880  0.0240 -0.0403
  291loPI   C4A 4650   6.340  15.098   8.629 -0.0919  0.1130  0.4465
  291loPI   C5A 4651   6.241  14.766   8.297  0.0578 -0.3835 -0.0468
  291loPI   C6A 4652   6.329  14.398   8.100  0.0414  0.3342 -0.2624
  291loPI   C1B 4653   6.102  15.395   9.758  0.1356 -0.2104  0.0836
  291loPI   C2B 4654   6.111  15.451   9.288 -0.1880 -0.0770  0.1173
  291loPI   C3B 4655   5.962  15.333   8.859 -0.1269  0.0508 -0.1485
  291loPI   C4B 4656   5.892  15.285   8.431 -0.5569  0.2071  0.1275
  292loPI    C1 4657   8.103   4.551  11.083 -0.1209  0.0261  0.0154
  292loPI    C2 4658   8.321   4.876  11.169 -0.0408 -0.0630  0.1525
  292loPI    C3 4659   8.207   4.628  11.462 -0.1158 -0.1500  0.0505
  292loPI   PO4 4660   8.066   4.598  10.820  0.0241 -0.4201  0.2379
  292loPI   GL1 4661   7.831   4.818  10.476  0.3297 -0.1315  0.1094
  292loPI   GL2 4662   7.889   4.511  10.351 -0.0161 -0.4348 -0.3418
  292loPI   C1A 4663   8.039   4.943  10.086  0.4134  0.1510 -0.1502
  292loPI   C2A 4664   8.107   4.991   9.677 -0.2992 -0.0296  0.1215
  292loPI   C3A 4665   8.184   4.953   9.277  0.2576  0.2206 -0.0279
  292loPI   C4A 4666   8.064   4.972   8.842  0.0896 -0.0292  0.0843
  292loPI   C5A 4667   8.065   4.844   8.307  0.0467  0.0705 -0.0354
  292loPI   C6A 4668   8.008   4.829   7.958  0.1301 -0.0854 -0.0355
  292loPI   C1B 4669   8.112   4.520   9.838 -0.0364  0.0749  0.1125
  292loPI   C2B 4670   8.126   4.511   9.450  0.2937 -0.0428  0.0136
  292loPI   C3B 4671   8.156   4.486   8.973 -0.0048 -0.0425 -0.2577
  292loPI   C4B 4672   8.089   4.410   8.535  0.1314 -0.2256 -0.3202
  293loPI    C1 4673   2.156  13.015  11.429  0.0976 -0.1603  0.0939
  293loPI    C2 4674   2.361  13.311  11.603 -0.0178  0.0454 -0.1143
  293loPI    C3 4675   2.108  13.089  11.819 -0.0119  0.1696  0.0215
  293loPI   PO4 4676   2.095  13.102  11.203  0.2322  0.0425  0.0737
  293loPI   GL1 4677   2.088  12.964  10.825  0.0400 -0.0239 -0.1359
  293loPI   GL2 4678   2.322  12.903  10.695  0.0623 -0.2733 -0.1757
  293loPI   C1A 4679   1.870  13.097  10.531  0.3899  0.1111  0.0114
  293loPI   C2A 4680   1.788  13.103  10.132 -0.0293 -0.1421 -0.1658
  293loPI   C3A 4681   1.816  13.001   9.717 -0.4507  0.2460 -0.1003
  293loPI   C4A 4682   1.775  12.973   9.366  0.0774 -0.0873  0.0722
  293loPI   C5A 4683   1.731  12.963   8.932  0.1021 -0.1093 -0.1648
  293loPI   C6A 4684   1.827  12.792   8.497 -0.0624  0.0339  0.4066
  293loPI   C1B 4685   2.349  12.858  10.215  0.1159  0.1182 -0.2456
  293loPI   C2B 4686   2.373  12.890   9.775  0.1659  0.0053  0.2500
  293loPI   C3B 4687   2.342  12.816   9.321 -0.1725 -0.2073  0.0848
  293loPI   C4B 4688   2.185  12.763   8.857  0.1936  0.1485  0.0874
  294loPI    C1 4689   6.245  12.478  11.435 -0.2248 -0.1159 -0.0999
  294loPI    C2 4690   6.144  12.859  11.370 -0.1804 -0.1232 -0.2133
  294loPI    C3 4691   5.884  12.611  11.545 -0.0761  0.0506  0.1985
  294loPI   PO4 4692   6.364  12.453  11.167  0.0936  0.2423  0.0511
  294loPI   GL1 4693   6.296  12.287  10.789  0.3366  0.0415 -0.3722
  294loPI   GL2 4694   6.137  12.060  10.535 -0.0099  0.1577  0.0904
  294loPI   C1A 4695   6.519  12.350  10.351 -0.0744 -0.0030  0.2141
  294loPI   C2A 4696   6.500  12.342   9.859 -0.0251  0.0476  0.0280
  294loPI   C3A 4697   6.505  12.318   9.385 -0.1824 -0.1350  0.3298
  294loPI   C4A 4698   6.496  12.421   9.011 -0.1309 -0.3393 -0.1293
  294loPI   C5A 4699   6.490  12.340   8.581 -0.0610  0.0787  0.2571
  294loPI   C6A 4700   6.294  12.024   8.256 -0.0082  0.0520  0.1194
  294loPI   C1B 4701   6.144  12.015  10.047  0.3699  0.0427 -0.1009
  294loPI   C2B 4702   6.076  12.025   9.617  0.1352  0.1171  0.0818
  294loPI   C3B 4703   6.121  12.036   9.152 -0.0081  0.1677 -0.0810
  294loPI   C4B 4704   6.148  12.041   8.734  0.2604  0.1592 -0.1473
  295loPI    C1 4705  12.609   6.190  11.411  0.0942 -0.0454  0.0755
  295loPI    C2 4706  13.001   6.199  11.493  0.1179 -0.0673 -0.0332
  295loPI    C3 4707  12.778   6.528  11.543  0.1814 -0.0104 -0.1216
  295loPI   PO4 4708  12.618   6.050  11.211  0.2597  0.0884 -0.0506
  295loPI   GL1 4709  12.700   6.062  10.743  0.0676  0.0231 -0.1385
  295loPI   GL2 4710  12.726   5.786  10.676  0.1204 -0.0559  0.1906
  295loPI   C1A 4711  12.853   6.119  10.328  0.0194 -0.1946 -0.2350
  295loPI   C2A 4712  12.945   6.086   9.885  0.2326  0.1377  0.0289
  295loPI   C3A 4713  12.924   6.046   9.532  0.0600 -0.0020 -0.1087
  295loPI   C4A 4714  12.822   6.081   9.082 -0.1641  0.2666  0.4996
  295loPI   C5A 4715  12.999   5.958   8.701 -0.1638  0.2074  0.0691
  295loPI   C6A 4716  13.335   5.786   8.405 -0.0192  0.1056 -0.0775
  295loPI   C1B 4717  13.035   5.621  10.359  0.2657 -0.0968  0.4391
  295loPI   C2B 4718  12.985   5.533   9.949  0.4068  0.0773 -0.0893
  295loPI   C3B 4719  13.009   5.558   9.425  0.0066  0.0443 -0.2149
  295loPI   C4B 4720  12.869   5.538   8.941  0.2288 -0.1444 -0.1036
  296loPI    C1 4721  11.602  15.387  10.836 -0.0461  0.1848  0.0162
  296loPI    C2 4722  11.358  15.661  10.678 -0.0072  0.2021 -0.0140
  296loPI    C3 4723  11.405  15.641  11.074 -0.1966  0.0810  0.0036
  296loPI   PO4 4724  11.541  15.188  10.663  0.0928 -0.0757 -0.2189
  296loPI   GL1 4725  11.321  15.278  10.346 -0.1392  0.0323 -0.0254
  296loPI   GL2 4726  10.982  15.410  10.283 -0.1474  0.0577  0.0417
  296loPI   C1A 4727  11.437  15.140   9.991 -0.1980 -0.0092 -0.2074
  296loPI   C2A 4728  11.413  15.125   9.555  0.2628  0.2824  0.2073
  296loPI   C3A 4729  11.505  15.170   9.062  0.1559  0.2830 -0.4329
  296loPI   C4A 4730  11.487  15.208   8.692  0.0637  0.1227 -0.0928
  296loPI   C5A 4731  11.656  15.193   8.328  0.0094  0.0063  0.2324
  296loPI   C6A 4732  11.554  15.181   7.864 -0.1695 -0.0407 -0.2018
  296loPI   C1B 4733  10.949  15.320   9.864  0.1635  0.3290 -0.0912
  296loPI   C2B 4734  10.942  15.339   9.392 -0.0335 -0.0911 -0.1318
  296loPI   C3B 4735  10.993  15.360   9.071  0.2159  0.1497 -0.0430
  296loPI   C4B 4736  10.908  15.385   8.666  0.1437  0.1114  0.0997
  297loPI    C1 4737   1.411  17.412  10.886  0.1223 -0.0599  0.1313
  297loPI    C2 4738   1.106  17.615  11.046  0.0555  0.0487 -0.1274
  297loPI    C3 4739   1.400  17.476  11.280 -0.0042  0.2625  0.0782
  297loPI   PO4 4740   1.343  17.208  10.780 -0.1011  0.0548  0.0673
  297loPI   GL1 4741   1.332  17.071  10.375 -0.1391 -0.5168  0.2011
  297loPI   GL2 4742   1.618  16.928  10.348 -0.0301  0.2173 -0.0962
  297loPI   C1A 4743   1.154  17.191   9.898  0.0661  0.0456  0.1594
  297loPI   C2A 4744   1.134  17.193   9.445  0.3916  0.1991 -0.1454
  297loPI   C3A 4745   1.146  17.179   9.081 -0.1246  0.0493 -0.0653
  297loPI   C4A 4746   1.260  17.048   8.694  0.2946 -0.1114  0.0071
  297loPI   C5A 4747   1.360  17.098   8.176  0.0690  0.0205  0.0082
  297loPI   C6A 4748   1.447  17.428   7.912 -0.0650  0.0683  0.3337
  297loPI   C1B 4749   1.690  16.942   9.923 -0.0660  0.1965 -0.0136
  297loPI   C2B 4750   1.588  16.904   9.487 -0.1222 -0.0653 -0.2959
  297loPI   C3B 4751   1.657  16.900   9.046 -0.1685  0.1298  0.0602
  297loPI   C4B 4752   1.692  16.874   8.623  0.2088 -0.1744 -0.2649
  298loPI    C1 4753  14.684   0.204  11.029 -0.0296 -0.0004 -0.0891
  298loPI    C2 4754  14.878   0.553  10.992 -0.1127  0.0460 -0.0897
  298loPI    C3 4755  14.586   0.513  11.263 -0.2016  0.0212 -0.1884
  298loPI   PO4 4756  14.615   0.101  10.779 -0.1222 -0.1977  0.0860
  298loPI   GL1 4757  14.426  -0.064  10.492  0.1609 -0.1642  0.3100
  298loPI   GL2 4758  14.582  -0.046  10.245  0.3456  0.2644 -0.1882
  298loPI   C1A 4759  14.310  -0.447  10.137 -0.1773 -0.0424 -0.1356
  298loPI   C2A 4760  14.090  -0.442   9.810 -0.0461 -0.2533  0.3058
  298loPI   C3A 4761  14.023  -0.415   9.447  0.1091  0.0399  0.1383
  298loPI   C4A 4762  14.101  -0.399   9.007 -0.3229 -0.1075 -0.1462
  298loPI   C5A 4763  14.048  -0.472   8.625 -0.2842 -0.0189 -0.2180
  298loPI   C6A 4764  14.405  -0.615   8.324  0.0523  0.2355  0.2393
  298loPI   C1B 4765  14.575  -0.156   9.810  0.1169  0.1300 -0.1442
  298loPI   C2B 4766  14.517  -0.235   9.431  0.3760 -0.1919 -0.0189
  298loPI   C3B 4767  14.552  -0.097   9.012 -0.3033 -0.2049  0.0265
  298loPI   C4B 4768  14.454  -0.160   8.604 -0.2346 -0.0728  0.1080
  299loPI    C1 4769  14.490   1.870  10.924 -0.0454  0.2214 -0.0883
  299loPI    C2 4770  14.160   1.861  11.150  0.0109  0.0111 -0.0122
  299loPI    C3 4771  14.514   1.948  11.316  0.0009  0.1977 -0.0864
  299loPI   PO4 4772  14.394   1.890  10.675 -0.1885 -0.2246  0.0292
  299loPI   GL1 4773  14.566   1.890  10.268 -0.2136  0.2252 -0.1601
  299loPI   GL2 4774  14.500   1.678  10.127  0.1519 -0.2191  0.1372
  299loPI   C1A 4775  14.366   2.151   9.945  0.0470 -0.1504  0.1986
  299loPI   C2A 4776  14.351   2.245   9.578 -0.3254  0.0697 -0.1040
  299loPI   C3A 4777  14.423   2.267   9.146  0.1288  0.0532 -0.0897
  299loPI   C4A 4778  14.476   2.219   8.717 -0.0094 -0.2422 -0.0675
  299loPI   C5A 4779  14.558   2.354   8.338  0.1310  0.3537 -0.0399
  299loPI   C6A 4780  14.867   2.463   8.015  0.1089  0.0424 -0.0560
  299loPI   C1B 4781  14.502   1.686   9.690  0.0433  0.0299 -0.3672
  299loPI   C2B 4782  14.595   1.672   9.286 -0.0136 -0.1602 -0.2309
  299loPI   C3B 4783  14.535   1.732   8.909 -0.0823 -0.2106 -0.1140
  299loPI   C4B 4784  14.518   1.816   8.446  0.1599  0.1775  0.2831
  300loPI    C1 4785  15.262   9.997  11.089 -0.1754 -0.3803  0.0086
  300loPI    C2 4786  14.926  10.152  11.241 -0.0989 -0.1328 -0.0690
  300loPI    C3 4787  15.255  10.127  11.467 -0.0101  0.1532 -0.1622
  300loPI   PO4 4788  15.322  10.145  10.880  0.1295  0.0469  0.1450
  300loPI   GL1 4789  15.196  10.093  10.527 -0.1488  0.1933 -0.0481
  300loPI   GL2 4790  15.227  10.408  10.391 -0.0817 -0.0618 -0.3900
  300loPI   C1A 4791  15.391   9.873  10.163  0.0349 -0.1222 -0.1129
  300loPI   C2A 4792  15.452   9.921   9.741  0.1263  0.1289  0.0067
  300loPI   C3A 4793  15.362   9.856   9.334 -0.0815  0.0107 -0.0479
  300loPI   C4A 4794  15.398   9.916   8.901 -0.1887  0.0223  0.0916
  300loPI   C5A 4795  15.349   9.933   8.416 -0.2749  0.1461 -0.2328
  300loPI   C6A 4796  15.406  10.194   8.134  0.1780  0.1700 -0.4880
  300loPI   C1B 4797  15.230  10.301   9.904  0.0821 -0.0144 -0.0099
  300loPI   C2B 4798  15.367  10.348   9.520  0.5515  0.0547  0.2930
  300loPI   C3B 4799  15.288  10.371   9.103  0.1136 -0.2978  0.3265
  300loPI   C4B 4800  15.294  10.386   8.660  0.1528 -0.0508 -0.0012
  301loPI    C1 4801  12.078  11.546  11.293  0.1222 -0.2768 -0.0146
  301loPI    C2 4802  12.345  11.463  11.579  0.1127 -0.0585  0.0592
  301loPI    C3 4803  11.964  11.539  11.676  0.1203  0.0660 -0.0059
  301loPI   PO4 4804  12.247  11.749  11.086 -0.1240  0.3338 -0.0446
  301loPI   GL1 4805  12.328  11.598  10.712 -0.1885  0.0145 -0.2412
  301loPI   GL2 4806  12.377  11.298  10.787 -0.2327  0.1587 -0.0243
  301loPI   C1A 4807  12.060  11.612  10.292 -0.0124 -0.0953 -0.0527
  301loPI   C2A 4808  12.060  11.606   9.884  0.1104  0.2181  0.1254
  301loPI   C3A 4809  12.003  11.668   9.489 -0.0969 -0.0245 -0.1854
  301loPI   C4A 4810  12.006  11.632   9.062  0.0818  0.1581  0.0888
  301loPI   C5A 4811  11.988  11.669   8.637  0.0316  0.1739  0.2103
  301loPI   C6A 4812  11.658  11.772   8.263 -0.1085  0.0763 -0.0624
  301loPI   C1B 4813  12.575  11.370  10.301 -0.0899  0.1010 -0.1382
  301loPI   C2B 4814  12.465  11.404   9.863 -0.0851  0.2550  0.0713
  301loPI   C3B 4815  12.512  11.486   9.349  0.4790  0.2484 -0.0069
  301loPI   C4B 4816  12.445  11.524   8.852 -0.2419  0.3624  0.1668
  302loPI    C1 4817   3.425  12.746  11.274  0.0414  0.0345  0.0105
  302loPI    C2 4818   3.561  12.396  11.414  0.2563  0.0895 -0.0562
  302loPI    C3 4819   3.434  12.678  11.668  0.1296 -0.0169 -0.0001
  302loPI   PO4 4820   3.535  12.735  10.979  0.0016 -0.2457  0.1589
  302loPI   GL1 4821   3.761  12.821  10.632 -0.1256 -0.1867 -0.2602
  302loPI   GL2 4822   3.472  12.564  10.535  0.3009  0.1067 -0.0363
  302loPI   C1A 4823   3.795  12.973  10.196 -0.2181 -0.0781  0.0367
  302loPI   C2A 4824   3.703  12.908   9.725  0.1056 -0.0632 -0.3367
  302loPI   C3A 4825   3.612  12.806   9.322 -0.0759 -0.2683 -0.1536
  302loPI   C4A 4826   3.671  12.846   8.885 -0.0415 -0.2128 -0.1011
  302loPI   C5A 4827   3.798  12.853   8.406 -0.0754 -0.0233 -0.2277
  302loPI   C6A 4828   3.662  12.801   7.952 -0.0981 -0.1170 -0.1469
  302loPI   C1B 4829   3.456  12.597  10.141  0.2705  0.2349  0.2081
  302loPI   C2B 4830   3.319  12.577   9.720  0.1246 -0.0211 -0.0028
  302loPI   C3B 4831   3.255  12.430   9.319  0.1278 -0.2109 -0.2657
  302loPI   C4B 4832   3.346  12.485   8.907  0.0909 -0.1715  0.2403
  303loPI    C1 4833   6.656   1.452  10.698  0.2092  0.1720  0.1994
  303loPI    C2 4834   6.378   1.226  10.876  0.1139 -0.0121 -0.1729
  303loPI    C3 4835   6.766   1.169  10.958  0.0715 -0.0921 -0.0251
  303loPI   PO4 4836   6.595   1.462  10.436 -0.1623  0.3342 -0.0298
  303loPI   GL1 4837   6.643   1.280  10.061  0.1289  0.2635 -0.2388
  303loPI   GL2 4838   6.623   1.590   9.946  0.1061 -0.4725 -0.0861
  303loPI   C1A 4839   6.517   1.207   9.611 -0.1841  0.0479  0.0486
  303loPI   C2A 4840   6.427   1.344   9.230 -0.0518  0.0407 -0.4674
  303loPI   C3A 4841   6.342   1.258   8.801 -0.0998  0.1858 -0.0962
  303loPI   C4A 4842   6.340   1.377   8.318  0.1276  0.1149  0.0859
  303loPI   C5A 4843   6.553   1.364   7.935  0.0167 -0.0605  0.1696
  303loPI   C6A 4844   6.747   0.940   7.761 -0.0555  0.0484 -0.0628
  303loPI   C1B 4845   6.777   1.653   9.465  0.1517 -0.0867  0.0886
  303loPI   C2B 4846   6.861   1.637   9.022 -0.1136 -0.0680  0.1890
  303loPI   C3B 4847   6.714   1.697   8.595 -0.0365 -0.0808 -0.0990
  303loPI   C4B 4848   6.746   1.743   8.185 -0.0117 -0.1416 -0.0482
  304loPI    C1 4849   6.575   8.869  11.614 -0.2387  0.1676 -0.1275
  304loPI    C2 4850   6.821   9.158  11.742 -0.1639  0.0637 -0.0344
  304loPI    C3 4851   6.659   8.903  12.004 -0.1744 -0.0224 -0.1240
  304loPI   PO4 4852   6.669   8.792  11.445  0.0879  0.5124  0.1343
  304loPI   GL1 4853   6.685   8.844  10.977  0.1855  0.3751 -0.1359
  304loPI   GL2 4854   6.516   8.591  11.007 -0.4316 -0.1661  0.3130
  304loPI   C1A 4855   6.570   9.021  10.522 -0.0674 -0.0368 -0.0748
  304loPI   C2A 4856   6.540   8.959  10.110 -0.1322 -0.3114 -0.0875
  304loPI   C3A 4857   6.545   8.987   9.641  0.0541  0.2473 -0.2023
  304loPI   C4A 4858   6.632   8.936   9.227  0.1145  0.2742 -0.0182
  304loPI   C5A 4859   6.708   8.868   8.816  0.0858 -0.0884 -0.0152
  304loPI   C6A 4860   7.000   8.533   8.664 -0.0483 -0.1199 -0.2438
  304loPI   C1B 4861   6.607   8.513  10.576  0.2637 -0.0687 -0.0144
  304loPI   C2B 4862   6.609   8.462  10.134  0.0411  0.1347  0.3596
  304loPI   C3B 4863   6.716   8.505   9.650  0.0656 -0.0834  0.0733
  304loPI   C4B 4864   6.710   8.380   9.183  0.1809  0.2038 -0.1703
  305loPI    C1 4865   6.178  13.324  10.916 -0.1124  0.0980  0.0523
  305loPI    C2 4866   6.078  13.451  11.282 -0.0932  0.1363  0.0442
  305loPI    C3 4867   6.260  13.699  11.027  0.0998  0.0418  0.0886
  305loPI   PO4 4868   5.891  13.201  10.830 -0.2201 -0.2592 -0.3382
  305loPI   GL1 4869   5.791  13.028  10.548 -0.3571 -0.3669  0.4006
  305loPI   GL2 4870   6.085  13.078  10.420 -0.0416 -0.0873 -0.1057
  305loPI   C1A 4871   5.662  12.772  10.256 -0.3527 -0.2276  0.1531
  305loPI   C2A 4872   5.560  12.665   9.866  0.4239 -0.1206 -0.2549
  305loPI   C3A 4873   5.479  12.749   9.415 -0.0730 -0.2637 -0.0193
  305loPI   C4A 4874   5.513  12.600   8.985  0.0412 -0.1448  0.1498
  305loPI   C5A 4875   5.541  12.732   8.551  0.1949 -0.1450  0.2400
  305loPI   C6A 4876   5.358  12.983   8.227 -0.2647  0.0382  0.0364
  305loPI   C1B 4877   6.010  13.030  10.003  0.3734  0.1067  0.0300
  305loPI   C2B 4878   5.976  13.079   9.593 -0.3837  0.0869  0.0985
  305loPI   C3B 4879   5.893  13.034   9.149  0.1229 -0.0474  0.1248
  305loPI   C4B 4880   5.921  13.036   8.663 -0.1760 -0.3497  0.1657
  306loPI    C1 4881  16.076   5.721  10.996  0.0140 -0.0583  0.0814
  306loPI    C2 4882  15.908   5.858  11.332  0.0558 -0.0635  0.1045
  306loPI    C3 4883  16.197   5.581  11.350  0.1660  0.0485  0.0727
  306loPI   PO4 4884  16.084   5.885  10.779  0.0742 -0.1642  0.0137
  306loPI   GL1 4885  16.063   5.899  10.347  0.1168 -0.0967 -0.1747
  306loPI   GL2 4886  15.706   5.986  10.252 -0.0093 -0.1013 -0.0358
  306loPI   C1A 4887  16.112   5.801   9.916 -0.2657  0.2094 -0.4091
  306loPI   C2A 4888  16.066   5.862   9.457  0.0571  0.1855 -0.0966
  306loPI   C3A 4889  16.033   5.919   8.995  0.1318  0.0120  0.2662
  306loPI   C4A 4890  16.023   5.881   8.543  0.3038  0.2859  0.0514
  306loPI   C5A 4891  15.961   5.890   8.149 -0.0496 -0.0096 -0.1980
  306loPI   C6A 4892  16.103   5.748   7.762 -0.1484 -0.0497 -0.0800
  306loPI   C1B 4893  15.723   6.111   9.764  0.0579  0.0413  0.5006
  306loPI   C2B 4894  15.602   6.069   9.313 -0.1958  0.0861  0.0649
  306loPI   C3B 4895  15.485   6.068   8.971  0.0104 -0.2159  0.1976
  306loPI   C4B 4896  15.508   6.054   8.475 -0.1379 -0.0381 -0.0735
  307loPI    C1 4897   9.198  12.896  11.162 -0.0393  0.1022  0.0806
  307loPI    C2 4898   9.049  12.593  11.376 -0.0449  0.1005  0.0742
  307loPI    C3 4899   9.276  12.870  11.554  0.0671  0.0220  0.0546
  307loPI   PO4 4900   9.349  12.792  10.887  0.1833 -0.1593 -0.1013
  307loPI   GL1 4901   9.435  12.432  10.595 -0.1182  0.0560  0.1460
  307loPI   GL2 4902   9.672  12.258  10.422  0.2846  0.1429  0.3408
  307loPI   C1A 4903   9.181  12.234  10.278 -0.0492 -0.0860 -0.1275
  307loPI   C2A 4904   9.166  12.245   9.871  0.0643 -0.0448  0.2009
  307loPI   C3A 4905   9.092  12.193   9.424  0.1809  0.0122  0.1076
  307loPI   C4A 4906   9.213  12.351   8.994 -0.0214  0.0986  0.1740
  307loPI   C5A 4907   9.250  12.378   8.534  0.0520 -0.0689  0.1723
  307loPI   C6A 4908   9.084  12.557   8.138 -0.3697  0.3404 -0.0715
  307loPI   C1B 4909   9.581  12.481  10.096  0.1679  0.2107  0.3993
  307loPI   C2B 4910   9.561  12.475   9.578  0.4274  0.1069 -0.2072
  307loPI   C3B 4911   9.565  12.611   9.220 -0.1279  0.0465 -0.0134
  307loPI   C4B 4912   9.685  12.615   8.761 -0.0688 -0.0893  0.1576
  308loPI    C1 4913  17.611  14.369  11.461 -0.1347 -0.0293 -0.0219
  308loPI    C2 4914  17.616  14.530  11.828 -0.0332 -0.0248 -0.0249
  308loPI    C3 4915  17.714  14.145  11.777  0.2041  0.0410 -0.0785
  308loPI   PO4 4916  17.735  14.503  11.231  0.2068  0.0741  0.0765
  308loPI   GL1 4917  17.673  14.676  10.883  0.0268  0.1259 -0.0653
  308loPI   GL2 4918  17.397  14.528  10.665  0.1049  0.3728 -0.0507
  308loPI   C1A 4919  17.858  14.520  10.506  0.0693 -0.0635 -0.3524
  308loPI   C2A 4920  18.209  14.585  10.151  0.3912 -0.2668 -0.1362
  308loPI   C3A 4921  18.293  14.646   9.740 -0.0827  0.1542  0.0589
  308loPI   C4A 4922  18.205  14.588   9.371 -0.1363 -0.1815  0.0772
  308loPI   C5A 4923  18.225  14.507   8.979  0.2943  0.2285 -0.3171
  308loPI   C6A 4924  18.537  14.351   8.704  0.0982  0.1442  0.0196
  308loPI   C1B 4925  17.408  14.431  10.244  0.1622 -0.1252 -0.2990
  308loPI   C2B 4926  17.380  14.453   9.782 -0.0090 -0.0786  0.2849
  308loPI   C3B 4927  17.415  14.363   9.279 -0.0546 -0.0564 -0.0340
  308loPI   C4B 4928  17.372  14.433   8.867  0.0328 -0.0611 -0.0795
  309loPI    C1 4929  13.021   5.145  10.987 -0.3217  0.3506  0.1840
  309loPI    C2 4930  12.970   5.304  11.351 -0.1635 -0.0509  0.3886
  309loPI    C3 4931  13.161   4.954  11.311 -0.0662  0.0506 -0.0955
  309loPI   PO4 4932  12.733   5.169  10.855 -0.2116 -0.5650  0.0764
  309loPI   GL1 4933  12.517   5.100  10.560 -0.0993  0.1926  0.1822
  309loPI   GL2 4934  12.385   5.460  10.546  0.2451 -0.0874  0.1436
  309loPI   C1A 4935  12.689   5.128  10.200 -0.1521 -0.2372 -0.0708
  309loPI   C2A 4936  12.663   5.237   9.819  0.1364  0.0412  0.0140
  309loPI   C3A 4937  12.574   5.309   9.416 -0.1840  0.3196  0.3001
  309loPI   C4A 4938  12.531   5.221   9.032 -0.0433  0.4115 -0.3234
  309loPI   C5A 4939  12.389   5.251   8.677 -0.1450 -0.3613 -0.0983
  309loPI   C6A 4940  12.397   5.264   8.193  0.0979  0.0802  0.3009
  309loPI   C1B 4941  12.538   5.786  10.129  0.0173  0.1539  0.1482
  309loPI   C2B 4942  12.563   5.764   9.684 -0.2172 -0.3887  0.0592
  309loPI   C3B 4943  12.461   5.758   9.193 -0.3640  0.1018 -0.4071
  309loPI   C4B 4944  12.423   5.746   8.803  0.0041  0.0218  0.1636
  310loPI    C1 4945  14.917   9.675  11.088 -0.0586  0.1238 -0.0147
  310loPI    C2 4946  14.934   9.326  10.892  0.0416  0.1487 -0.0509
  310loPI    C3 4947  14.950   9.332  11.292 -0.3569  0.0831 -0.0296
  310loPI   PO4 4948  14.809   9.810  10.899  0.0830  0.0412 -0.2670
  310loPI   GL1 4949  14.795   9.787  10.517  0.2501  0.0657  0.0276
  310loPI   GL2 4950  14.493   9.665  10.250 -0.0826  0.1505  0.0703
  310loPI   C1A 4951  14.850  10.032  10.055 -0.1030  0.1958  0.0447
  310loPI   C2A 4952  14.958   9.985   9.622 -0.1861  0.1766 -0.0391
  310loPI   C3A 4953  14.903  10.071   9.148  0.0917  0.1287  0.1801
  310loPI   C4A 4954  14.916  10.042   8.786 -0.0596 -0.0105  0.2501
  310loPI   C5A 4955  14.861   9.999   8.451  0.0015  0.0699  0.0733
  310loPI   C6A 4956  14.524   9.890   8.112 -0.0940 -0.0971  0.2208
  310loPI   C1B 4957  14.545   9.694   9.886 -0.2101 -0.1505  0.0769
  310loPI   C2B 4958  14.570   9.756   9.355 -0.0809  0.1415 -0.0112
  310loPI   C3B 4959  14.548   9.750   8.881 -0.0420  0.0996 -0.1399
  310loPI   C4B 4960  14.538   9.606   8.517  0.1213  0.1697 -0.0119
  311loPI    C1 4961   8.965  13.372  11.018 -0.2233 -0.2023 -0.0625
  311loPI    C2 4962   8.857  13.177  11.351 -0.0586 -0.1621  0.0152
  311loPI    C3 4963   9.203  13.378  11.340 -0.0247 -0.2297 -0.2070
  311loPI   PO4 4964   8.881  13.162  10.817  0.0985  0.1055 -0.1255
  311loPI   GL1 4965   9.078  13.066  10.508  0.0736 -0.2111  0.0519
  311loPI   GL2 4966   9.239  13.390  10.405 -0.3915  0.3109  0.0833
  311loPI   C1A 4967   9.154  12.774  10.179 -0.2194  0.1979  0.1252
  311loPI   C2A 4968   9.110  12.727   9.759 -0.1978  0.0657  0.1617
  311loPI   C3A 4969   9.099  12.766   9.352 -0.2406  0.1079 -0.2193
  311loPI   C4A 4970   9.152  12.837   8.898  0.0378 -0.0346  0.1813
  311loPI   C5A 4971   9.336  12.900   8.496  0.0978  0.0785  0.0294
  311loPI   C6A 4972   9.659  13.166   8.318 -0.1953  0.2203  0.0329
  311loPI   C1B 4973   9.096  13.296   9.917 -0.0322 -0.0092 -0.0764
  311loPI   C2B 4974   9.019  13.272   9.511  0.1981  0.1641 -0.0551
  311loPI   C3B 4975   8.981  13.230   9.112 -0.2557  0.0318  0.0592
  311loPI   C4B 4976   9.006  13.241   8.672 -0.1849  0.0101 -0.0717
  312loPI    C1 4977  15.978  17.299  11.091  0.0290  0.1944 -0.0419
  312loPI    C2 4978  15.983  17.611  11.341 -0.2502  0.1621  0.0077
  312loPI    C3 4979  16.012  17.240  11.485  0.1293  0.1638 -0.0551
  312loPI   PO4 4980  15.914  17.547  10.864 -0.1532 -0.0216 -0.1305
  312loPI   GL1 4981  16.062  17.536  10.418  0.1823 -0.1150  0.1110
  312loPI   GL2 4982  15.927  17.861  10.169 -0.2089 -0.1635 -0.1552
  312loPI   C1A 4983  16.090  17.407  10.038 -0.2385 -0.2017  0.0000
  312loPI   C2A 4984  15.999  17.316   9.598  0.2096 -0.2647 -0.0803
  312loPI   C3A 4985  15.971  17.283   9.080 -0.0539 -0.1615 -0.2727
  312loPI   C4A 4986  16.066  17.263   8.666 -0.0413 -0.2297  0.0310
  312loPI   C5A 4987  16.111  17.192   8.226 -0.1492  0.4388 -0.1698
  312loPI   C6A 4988  15.880  17.031   7.824  0.0358  0.2837  0.1590
  312loPI   C1B 4989  15.869  17.840   9.647  0.0494 -0.1328  0.0905
  312loPI   C2B 4990  15.922  17.819   9.259 -0.0966 -0.0016 -0.2466
  312loPI   C3B 4991  15.889  17.831   8.780  0.1505 -0.1458 -0.0941
  312loPI   C4B 4992  15.899  17.747   8.356  0.4333 -0.1400  0.1001
  313loPI    C1 4993  15.840  10.739  11.251  0.3677 -0.3543  0.0614
  313loPI    C2 4994  15.599  10.420  11.262 -0.2361  0.0750 -0.1597
  313loPI    C3 4995  15.677  10.624  11.598 -0.0291 -0.1688 -0.0567
  313loPI   PO4 4996  15.767  10.823  10.951 -0.1695 -0.3612  0.1035
  313loPI   GL1 4997  15.825  10.984  10.498  0.1077 -0.1945 -0.5385
  313loPI   GL2 4998  15.947  10.747  10.439 -0.0045 -0.0181 -0.0213
  313loPI   C1A 4999  15.627  11.134  10.064  0.0255  0.0271 -0.3057
  313loPI   C2A 5000  15.684  11.248   9.622  0.1551 -0.1510 -0.0052
  313loPI   C3A 5001  15.584  11.222   9.219 -0.1869  0.2302 -0.2730
  313loPI   C4A 5002  15.632  11.216   8.788  0.1093  0.0883  0.0162
  313loPI   C5A 5003  15.565  10.961   8.425 -0.0782 -0.2952  0.1076
  313loPI   C6A 5004  15.514  10.642   8.189  0.1893  0.0413  0.0134
  313loPI   C1B 5005  15.792  10.688  10.087 -0.1527  0.2187 -0.0166
  313loPI   C2B 5006  15.740  10.751   9.671  0.0432 -0.2618  0.3099
  313loPI   C3B 5007  15.760  10.699   9.219  0.0766  0.0505  0.0807
  313loPI   C4B 5008  15.673  10.692   8.803 -0.1005  0.1056  0.2231
  314loPI    C1 5009   3.790   9.999  11.089 -0.1035 -0.0601 -0.2206
  314loPI    C2 5010   3.432  10.136  11.205  0.0295  0.0584  0.0574
  314loPI    C3 5011   3.664   9.937  11.464  0.2342  0.1260 -0.0717
  314loPI   PO4 5012   3.919  10.231  10.859  0.1369 -0.3113  0.0340
  314loPI   GL1 5013   4.006  10.273  10.456 -0.0344 -0.2271  0.0555
  314loPI   GL2 5014   3.847  10.560  10.562  0.1007  0.2735  0.2013
  314loPI   C1A 5015   4.199  10.327  10.110 -0.2205  0.1426 -0.2734
  314loPI   C2A 5016   4.164  10.296   9.639 -0.4819 -0.0074 -0.2490
  314loPI   C3A 5017   4.184  10.301   9.224  0.1025  0.0259 -0.2065
  314loPI   C4A 5018   4.252  10.308   8.863  0.4107  0.2199 -0.3607
  314loPI   C5A 5019   4.091  10.218   8.426  0.1579 -0.0232  0.0360
  314loPI   C6A 5020   3.878   9.979   8.096 -0.2912  0.2834  0.1629
  314loPI   C1B 5021   3.691  10.509  10.139 -0.1499  0.1881  0.0712
  314loPI   C2B 5022   3.693  10.540   9.693  0.1841  0.0802  0.3851
  314loPI   C3B 5023   3.662  10.526   9.210  0.0654 -0.0200 -0.0157
  314loPI   C4B 5024   3.650  10.613   8.739  0.3299  0.0689 -0.2492
  315loPI    C1 5025   4.625  10.201  11.123  0.1013  0.0512 -0.0307
  315loPI    C2 5026   4.583  10.542  11.328 -0.1178 -0.0454  0.0893
  315loPI    C3 5027   4.264  10.313  11.254  0.0045 -0.1517 -0.1194
  315loPI   PO4 5028   4.741  10.318  10.886  0.0258  0.0442  0.0984
  315loPI   GL1 5029   4.654  10.420  10.495  0.0092  0.1097  0.1693
  315loPI   GL2 5030   4.662  10.713  10.423  0.2964 -0.0944  0.3759
  315loPI   C1A 5031   4.688  10.228  10.056  0.2947 -0.5402 -0.2510
  315loPI   C2A 5032   4.643  10.133   9.697 -0.1695  0.0209  0.1261
  315loPI   C3A 5033   4.600  10.090   9.373 -0.2284 -0.2247 -0.2021
  315loPI   C4A 5034   4.678  10.109   9.005  0.0554 -0.0053  0.1905
  315loPI   C5A 5035   4.595  10.147   8.527  0.0437 -0.0107  0.4452
  315loPI   C6A 5036   4.532  10.515   8.243  0.1304 -0.1112  0.0886
  315loPI   C1B 5037   4.627  10.773  10.075  0.0885  0.0599  0.0986
  315loPI   C2B 5038   4.606  10.660   9.643  0.3216 -0.2365 -0.0268
  315loPI   C3B 5039   4.560  10.684   9.255 -0.0338 -0.4275  0.2116
  315loPI   C4B 5040   4.623  10.641   8.829  0.0318  0.1743 -0.1366
  316loPI    C1 5041   2.584  13.814  11.467  0.0308 -0.0105  0.0456
  316loPI    C2 5042   2.608  13.683  11.844 -0.2402 -0.2568 -0.0186
  316loPI    C3 5043   2.293  13.900  11.728 -0.1053 -0.0905 -0.0786
  316loPI   PO4 5044   2.591  13.635  11.337 -0.0164 -0.1639  0.1438
  316loPI   GL1 5045   2.425  13.776  10.965 -0.1080 -0.2756  0.0991
  316loPI   GL2 5046   2.307  13.457  10.836 -0.0188  0.1304 -0.2382
  316loPI   C1A 5047   2.384  13.864  10.540  0.1097  0.2346  0.1754
  316loPI   C2A 5048   2.185  13.858  10.085  0.1519  0.4260  0.3988
  316loPI   C3A 5049   2.099  13.811   9.660 -0.1414  0.0310  0.0639
  316loPI   C4A 5050   2.151  13.818   9.145  0.0966  0.0287  0.0493
  316loPI   C5A 5051   2.139  13.665   8.711  0.1585  0.0930 -0.1799
  316loPI   C6A 5052   1.989  13.936   8.327 -0.3425 -0.1855  0.2077
  316loPI   C1B 5053   2.281  13.350  10.470  0.0697  0.0132  0.1406
  316loPI   C2B 5054   2.212  13.320  10.052  0.2450  0.0792  0.0620
  316loPI   C3B 5055   2.202  13.304   9.570  0.0665  0.0312  0.1330
  316loPI   C4B 5056   2.174  13.299   9.109 -0.0765  0.0170 -0.0953
  317loPI    C1 5057  13.416   6.934  11.072  0.0350 -0.0115  0.2042
  317loPI    C2 5058  13.761   7.013  10.885 -0.0728 -0.0183 -0.0008
  317loPI    C3 5059  13.749   6.995  11.285  0.0996  0.2937  0.0216
  317loPI   PO4 5060  13.350   6.741  10.895 -0.2063  0.0636  0.0328
  317loPI   GL1 5061  13.298   6.514  10.495  0.1649 -0.1923 -0.1122
  317loPI   GL2 5062  13.033   6.589  10.521 -0.2526  0.0469  0.0914
  317loPI   C1A 5063  13.317   6.441  10.076 -0.2070  0.2726  0.3441
  317loPI   C2A 5064  13.305   6.381   9.638  0.0165  0.1773 -0.1695
  317loPI   C3A 5065  13.254   6.349   9.191  0.3391  0.0332 -0.0382
  317loPI   C4A 5066  13.340   6.369   8.768 -0.1473  0.0031  0.6319
  317loPI   C5A 5067  13.152   6.548   8.393 -0.0022 -0.1102  0.2208
  317loPI   C6A 5068  13.388   6.805   8.128  0.1674  0.1049 -0.2103
  317loPI   C1B 5069  12.826   6.542  10.156 -0.3665 -0.0162  0.0463
  317loPI   C2B 5070  12.797   6.563   9.673  0.0615 -0.0553  0.0108
  317loPI   C3B 5071  12.756   6.556   9.252  0.0087  0.0425 -0.0745
  317loPI   C4B 5072  12.815   6.522   8.829  0.0156  0.1640  0.1585
  318loPI    C1 5073   1.735  12.442  11.486 -0.0772 -0.0411  0.0660
  318loPI    C2 5074   1.751  12.809  11.645  0.1470  0.0136 -0.0797
  318loPI    C3 5075   2.083  12.588  11.617  0.0455 -0.1311 -0.1560
  318loPI   PO4 5076   1.632  12.436  11.309 -0.1626 -0.1394  0.5869
  318loPI   GL1 5077   1.685  12.450  10.768 -0.2751  0.2545  0.2214
  318loPI   GL2 5078   1.463  12.563  10.852  0.1425  0.1507  0.0263
  318loPI   C1A 5079   2.032  12.525  10.429 -0.0336  0.0413  0.0497
  318loPI   C2A 5080   2.016  12.564   9.937  0.0847 -0.2316  0.0502
  318loPI   C3A 5081   1.953  12.487   9.420  0.0016 -0.1129 -0.0145
  318loPI   C4A 5082   1.822  12.495   9.006  0.0548  0.2036  0.0390
  318loPI   C5A 5083   1.441  12.531   8.681 -0.0340 -0.1655 -0.2193
  318loPI   C6A 5084   1.496  12.604   8.208 -0.1048  0.2155  0.0546
  318loPI   C1B 5085   1.465  12.741  10.410 -0.0495 -0.0373  0.0250
  318loPI   C2B 5086   1.480  12.717  10.019 -0.0270  0.2168 -0.0443
  318loPI   C3B 5087   1.458  12.696   9.606  0.1322  0.0360  0.0773
  318loPI   C4B 5088   1.375  12.677   9.188 -0.1065 -0.0307  0.0196
  319loPI    C1 5089  17.085   7.868  11.252  0.2842 -0.1970  0.3139
  319loPI    C2 5090  17.398   8.117  11.242  0.1751 -0.0694 -0.1168
  319loPI    C3 5091  17.061   8.227  11.427  0.2097  0.0049 -0.0980
  319loPI   PO4 5092  17.033   7.844  10.971 -0.1734  0.0437 -0.2096
  319loPI   GL1 5093  17.228   7.988  10.584 -0.1911 -0.0030 -0.1897
  319loPI   GL2 5094  17.055   8.226  10.388 -0.0630 -0.2139 -0.0192
  319loPI   C1A 5095  17.222   7.792  10.214 -0.0997 -0.0541  0.3218
  319loPI   C2A 5096  17.193   7.814   9.770  0.0210 -0.0936 -0.0375
  319loPI   C3A 5097  17.202   7.895   9.398 -0.1758  0.2203  0.0381
  319loPI   C4A 5098  17.115   7.755   9.026  0.1563 -0.2662 -0.1057
  319loPI   C5A 5099  17.057   7.863   8.682 -0.1271  0.0840 -0.1117
  319loPI   C6A 5100  16.744   8.084   8.435  0.1167 -0.0362 -0.2861
  319loPI   C1B 5101  17.150   8.303   9.978 -0.0379 -0.6203 -0.2563
  319loPI   C2B 5102  17.100   8.316   9.585 -0.1114  0.3009  0.4030
  319loPI   C3B 5103  17.081   8.312   9.240 -0.0085  0.0039  0.1018
  319loPI   C4B 5104  16.969   8.395   8.747 -0.0362 -0.0538  0.0019
  320loPI    C1 5105  14.224   5.112  11.144 -0.0826 -0.1558  0.0884
  320loPI    C2 5106  14.042   5.344  11.415 -0.0226 -0.0355  0.0263
  320loPI    C3 5107  14.250   5.023  11.533 -0.1431 -0.0836  0.1091
  320loPI   PO4 5108  14.343   5.362  11.020  0.2832  0.0295 -0.0803
  320loPI   GL1 5109  14.377   5.480  10.509  0.1812 -0.0776 -0.2869
  320loPI   GL2 5110  14.094   5.653  10.493 -0.0822  0.2486 -0.0192
  320loPI   C1A 5111  14.359   5.540  10.108 -0.2175  0.0614 -0.1981
  320loPI   C2A 5112  14.270   5.560   9.628  0.0706 -0.1362 -0.1956
  320loPI   C3A 5113  14.402   5.543   9.218 -0.0981 -0.3330 -0.4609
  320loPI   C4A 5114  14.303   5.587   8.866  0.1327 -0.0695 -0.2941
  320loPI   C5A 5115  14.142   5.603   8.512 -0.1626  0.1530 -0.0107
  320loPI   C6A 5116  13.825   5.896   8.331 -0.0656 -0.0058  0.1991
  320loPI   C1B 5117  13.903   5.706  10.138  0.2811  0.1594 -0.2178
  320loPI   C2B 5118  13.878   5.773   9.729  0.3065 -0.1665 -0.0955
  320loPI   C3B 5119  13.923   5.721   9.247  0.1443 -0.2246  0.1857
  320loPI   C4B 5120  13.748   5.781   8.825 -0.1677 -0.2402 -0.0378
  321loPI    C1 5121   6.819   3.491  10.620  0.0018  0.0858  0.1403
  321loPI    C2 5122   6.710   3.872  10.565 -0.2604 -0.0239 -0.1237
  321loPI    C3 5123   6.558   3.663  10.870 -0.0079  0.1215  0.1057
  321loPI   PO4 5124   7.035   3.451  10.399  0.1025 -0.2234 -0.2287
  321loPI   GL1 5125   6.962   3.569   9.956  0.1055 -0.0746 -0.0134
  321loPI   GL2 5126   7.249   3.721   9.999 -0.1938  0.2306 -0.1351
  321loPI   C1A 5127   6.965   3.571   9.504  0.3508  0.1887 -0.2141
  321loPI   C2A 5128   6.971   3.630   9.077 -0.0617  0.1529  0.0440
  321loPI   C3A 5129   6.929   3.634   8.654  0.1044  0.1289  0.1619
  321loPI   C4A 5130   6.822   3.588   8.145 -0.0222  0.1928 -0.1092
  321loPI   C5A 5131   6.768   3.924   7.842  0.1398  0.0637  0.0230
  321loPI   C6A 5132   6.832   4.238   7.636  0.3596  0.1587 -0.1731
  321loPI   C1B 5133   7.320   3.863   9.522  0.2459  0.0945  0.0673
  321loPI   C2B 5134   7.385   3.959   9.112  0.1244 -0.1023 -0.1672
  321loPI   C3B 5135   7.326   3.945   8.760  0.0776 -0.0070 -0.1115
  321loPI   C4B 5136   7.358   3.807   8.267 -0.0735  0.1657 -0.1406
  322loPI    C1 5137   3.075  17.739  10.856  0.0293 -0.1820  0.0559
  322loPI    C2 5138   3.143  17.895  11.218  0.1742 -0.0821 -0.0133
  322loPI    C3 5139   3.449  17.762  10.997  0.0780 -0.2171 -0.0663
  322loPI   PO4 5140   2.961  17.774  10.652 -0.2832 -0.3725  0.0280
  322loPI   GL1 5141   2.969  17.516  10.225  0.0032  0.0402 -0.0640
  322loPI   GL2 5142   2.669  17.632  10.287 -0.0834  0.0727  0.1969
  322loPI   C1A 5143   2.922  17.435   9.749  0.1129 -0.1479  0.0298
  322loPI   C2A 5144   2.903  17.359   9.298  0.3644  0.0339  0.0782
  322loPI   C3A 5145   2.997  17.292   8.870  0.1631 -0.0886  0.0994
  322loPI   C4A 5146   2.999  17.197   8.455  0.1585  0.0155 -0.0032
  322loPI   C5A 5147   2.850  17.193   8.131 -0.0843 -0.1488 -0.2174
  322loPI   C6A 5148   2.817  17.004   7.768  0.1788 -0.3984  0.0094
  322loPI   C1B 5149   2.507  17.612   9.894  0.2016 -0.1140 -0.4457
  322loPI   C2B 5150   2.514  17.587   9.443 -0.0552  0.0580 -0.2624
  322loPI   C3B 5151   2.531  17.574   9.038  0.3065  0.1649 -0.0409
  322loPI   C4B 5152   2.617  17.445   8.607  0.1885  0.2519 -0.1691
  323loPI    C1 5153  16.798  11.667  11.206  0.1319  0.1398 -0.0347
  323loPI    C2 5154  16.582  11.847  11.491  0.1047  0.2249 -0.1088
  323loPI    C3 5155  16.872  11.592  11.592 -0.0627  0.0717 -0.0095
  323loPI   PO4 5156  16.846  11.875  10.950  0.0548 -0.2714 -0.2581
  323loPI   GL1 5157  16.887  11.936  10.578 -0.4476 -0.1527  0.1553
  323loPI   GL2 5158  16.978  11.665  10.454  0.1718  0.1155 -0.1611
  323loPI   C1A 5159  16.826  12.244  10.213  0.2220  0.2918 -0.2433
  323loPI   C2A 5160  16.853  12.289   9.792 -0.1475  0.3624  0.3086
  323loPI   C3A 5161  16.894  12.225   9.407  0.0092  0.2186 -0.2361
  323loPI   C4A 5162  16.869  12.153   9.002 -0.1660 -0.1367  0.1316
  323loPI   C5A 5163  16.855  12.067   8.638  0.0580  0.1041  0.0884
  323loPI   C6A 5164  16.615  12.075   8.260  0.0376  0.0260 -0.1768
  323loPI   C1B 5165  16.876  11.658  10.019 -0.1475  0.0584 -0.1861
  323loPI   C2B 5166  16.910  11.676   9.608 -0.1114 -0.3008  0.1709
  323loPI   C3B 5167  16.921  11.669   9.172 -0.0219  0.0182  0.1211
  323loPI   C4B 5168  16.913  11.551   8.744  0.0907  0.1863  0.1531
  324loPI    C1 5169   5.257   4.398  11.120  0.2556  0.1767  0.0454
  324loPI    C2 5170   5.183   4.378  11.513  0.1767  0.3051  0.0374
  324loPI    C3 5171   5.485   4.168  11.356  0.0570  0.0613  0.1276
  324loPI   PO4 5172   5.081   4.304  11.015 -0.2838 -0.1429 -0.0139
  324loPI   GL1 5173   5.065   4.357  10.537 -0.0799  0.3792  0.0575
  324loPI   GL2 5174   5.387   4.456  10.619  0.0248  0.3074  0.0848
  324loPI   C1A 5175   5.003   4.358  10.118 -0.2709 -0.3375 -0.1036
  324loPI   C2A 5176   4.971   4.327   9.658  0.0170  0.3495  0.1578
  324loPI   C3A 5177   4.972   4.373   9.237 -0.0408 -0.0269  0.0994
  324loPI   C4A 5178   4.954   4.270   8.857  0.1264 -0.3847 -0.0571
  324loPI   C5A 5179   5.200   4.455   8.571 -0.1509 -0.2835  0.0847
  324loPI   C6A 5180   5.406   4.820   8.447 -0.0475  0.0330 -0.1102
  324loPI   C1B 5181   5.366   4.691  10.287 -0.2538 -0.0305  0.0607
  324loPI   C2B 5182   5.324   4.603   9.812  0.1141  0.1402 -0.3189
  324loPI   C3B 5183   5.398   4.735   9.399 -0.0246  0.0117  0.1710
  324loPI   C4B 5184   5.405   4.665   8.949  0.1534 -0.5675 -0.0922
  325loPI    C1 5185   0.144  14.912  11.382  0.1365  0.1392  0.0760
  325loPI    C2 5186  -0.168  15.043  11.596  0.0133 -0.1389  0.0698
  325loPI    C3 5187   0.205  15.113  11.723 -0.0557 -0.0834  0.2443
  325loPI   PO4 5188   0.155  15.007  11.053  0.0627 -0.0326  0.1139
  325loPI   GL1 5189   0.348  14.995  10.688 -0.3891 -0.0068  0.1134
  325loPI   GL2 5190   0.478  14.703  10.612  0.1187  0.2039  0.0203
  325loPI   C1A 5191   0.339  15.054  10.322  0.0115 -0.0737 -0.0356
  325loPI   C2A 5192   0.203  15.158   9.885  0.1456 -0.4446 -0.0954
  325loPI   C3A 5193   0.162  15.031   9.458 -0.0400  0.2906  0.1283
  325loPI   C4A 5194   0.159  15.047   9.067 -0.2470  0.2895  0.1366
  325loPI   C5A 5195   0.136  15.188   8.759  0.1244  0.1646 -0.0100
  325loPI   C6A 5196   0.424  15.296   8.404 -0.0353 -0.2952 -0.0560
  325loPI   C1B 5197   0.750  14.422  10.352 -0.0535  0.0917  0.2169
  325loPI   C2B 5198   0.799  14.397   9.904  0.0540 -0.2618 -0.1888
  325loPI   C3B 5199   0.698  14.401   9.486 -0.0737  0.0220  0.1237
  325loPI   C4B 5200   0.753  14.361   9.157 -0.0523  0.1303  0.0952
  326loPI    C1 5201  17.872   1.302  10.911 -0.0523 -0.1491  0.0339
  326loPI    C2 5202  17.800   1.614  11.152  0.2224 -0.1094  0.0690
  326loPI    C3 5203  17.591   1.275  11.195 -0.0398  0.0488  0.0667
  326loPI   PO4 5204  17.857   1.402  10.695 -0.3721  0.1157 -0.0866
  326loPI   GL1 5205  17.664   1.225  10.356 -0.1635  0.1324  0.0104
  326loPI   GL2 5206  17.875   0.952  10.514  0.0801 -0.1717  0.3129
  326loPI   C1A 5207  17.542   1.201   9.865  0.0177 -0.0816  0.1307
  326loPI   C2A 5208  17.420   1.137   9.509 -0.3731  0.0831  0.0120
  326loPI   C3A 5209  17.474   1.101   9.025  0.0947  0.0935 -0.0174
  326loPI   C4A 5210  17.486   1.218   8.551 -0.1264  0.2085  0.1240
  326loPI   C5A 5211  17.393   1.166   8.142 -0.2035 -0.4249  0.1380
  326loPI   C6A 5212  17.653   1.244   7.781 -0.0249  0.0385  0.1524
  326loPI   C1B 5213  18.009   1.020  10.094 -0.1721  0.1179 -0.1634
  326loPI   C2B 5214  17.933   1.040   9.573  0.1398 -0.0371 -0.0507
  326loPI   C3B 5215  17.945   0.905   9.045 -0.2586 -0.1135 -0.1440
  326loPI   C4B 5216  18.049   0.901   8.580  0.0780 -0.3011  0.2781
  327loPI    C1 5217   5.686  16.927  10.659  0.1960  0.0820  0.0067
  327loPI    C2 5218   5.932  17.186  10.840 -0.0136  0.2252  0.0901
  327loPI    C3 5219   5.653  16.993  11.052  0.0055  0.0867 -0.0093
  327loPI   PO4 5220   5.698  16.988  10.446 -0.1064  0.2782  0.1984
  327loPI   GL1 5221   5.603  16.874   9.998 -0.0961 -0.2700  0.0658
  327loPI   GL2 5222   5.636  17.159   9.922 -0.1020 -0.0894  0.3708
  327loPI   C1A 5223   5.450  16.753   9.625  0.1221  0.0615 -0.0902
  327loPI   C2A 5224   5.471  16.587   9.194 -0.1068 -0.1017  0.1298
  327loPI   C3A 5225   5.307  16.590   8.870  0.3168 -0.3113  0.0714
  327loPI   C4A 5226   5.158  16.544   8.464  0.0207  0.1265  0.0335
  327loPI   C5A 5227   4.908  16.331   8.232  0.1302 -0.1434 -0.0078
  327loPI   C6A 5228   4.669  16.027   8.099  0.1659 -0.2033  0.1298
  327loPI   C1B 5229   5.496  17.210   9.431  0.1750 -0.3559  0.0809
  327loPI   C2B 5230   5.231  17.142   9.111  0.3979  0.2483 -0.1109
  327loPI   C3B 5231   5.196  17.072   8.669 -0.1438  0.1775  0.2012
  327loPI   C4B 5232   5.187  16.976   8.225  0.0619  0.0083  0.2116
  328loPI    C1 5233   1.483   4.501  11.001 -0.1867 -0.2360 -0.0073
  328loPI    C2 5234   1.153   4.656  11.167 -0.0146  0.0023  0.1185
  328loPI    C3 5235   1.514   4.783  11.283  0.1184 -0.0982 -0.1742
  328loPI   PO4 5236   1.416   4.453  10.675 -0.2613  0.3109  0.0858
  328loPI   GL1 5237   1.827   4.447  10.400  0.1281  0.3039 -0.0772
  328loPI   GL2 5238   1.721   4.674  10.243  0.0577 -0.0713 -0.1481
  328loPI   C1A 5239   1.818   4.244   9.983  0.0896  0.1604 -0.0815
  328loPI   C2A 5240   1.881   4.211   9.565 -0.1831  0.2943 -0.1051
  328loPI   C3A 5241   1.947   4.252   9.150 -0.1719 -0.2070  0.0568
  328loPI   C4A 5242   1.994   4.102   8.775 -0.1022  0.0458 -0.1655
  328loPI   C5A 5243   1.992   4.128   8.388 -0.1589  0.1766 -0.0664
  328loPI   C6A 5244   1.801   4.142   8.026  0.1409  0.0175  0.1850
  328loPI   C1B 5245   1.819   4.718   9.926 -0.0726  0.1020 -0.0868
  328loPI   C2B 5246   1.778   4.668   9.552 -0.2059  0.0422 -0.1952
  328loPI   C3B 5247   1.809   4.779   9.185  0.2738 -0.0377 -0.1610
  328loPI   C4B 5248   1.874   4.876   8.764 -0.0843  0.3941  0.1650
  329loPI    C1 5249   0.152   6.698  11.074  0.0044  0.0448  0.0949
  329loPI    C2 5250   0.349   6.530  11.379  0.0454  0.0942  0.0958
  329loPI    C3 5251  -0.032   6.643  11.425  0.0044 -0.0373  0.0820
  329loPI   PO4 5252   0.237   6.522  10.876  0.1974  0.0750 -0.2390
  329loPI   GL1 5253   0.370   6.584  10.389 -0.1229  0.1195  0.1684
  329loPI   GL2 5254   0.061   6.431  10.398  0.0416 -0.1255 -0.2909
  329loPI   C1A 5255   0.625   6.667  10.034 -0.0963 -0.0211  0.0927
  329loPI   C2A 5256   0.664   6.756   9.651 -0.2499  0.0430 -0.3207
  329loPI   C3A 5257   0.725   6.731   9.258  0.0163  0.0843 -0.0183
  329loPI   C4A 5258   0.812   6.829   8.790  0.0469  0.2623 -0.2654
  329loPI   C5A 5259   0.732   6.879   8.351  0.0085  0.2889  0.0326
  329loPI   C6A 5260   0.582   7.177   8.092 -0.0238 -0.0286 -0.1228
  329loPI   C1B 5261  -0.121   6.679  10.057  0.3592 -0.4532 -0.4042
  329loPI   C2B 5262  -0.227   6.610   9.602 -0.1730  0.1439 -0.1806
  329loPI   C3B 5263  -0.122   6.671   9.175  0.1398  0.0408  0.1849
  329loPI   C4B 5264  -0.238   6.699   8.723 -0.0006 -0.0937 -0.0642
  330loPI    C1 5265   4.902   9.622  11.025  0.1003 -0.0418 -0.0776
  330loPI    C2 5266   4.875   9.813  11.375  0.0957 -0.3199  0.0764
  330loPI    C3 5267   5.227   9.667  11.253  0.1611  0.0392 -0.1797
  330loPI   PO4 5268   4.752   9.791  10.873 -0.1597 -0.1497 -0.1272
  330loPI   GL1 5269   4.788   9.882  10.454  0.0772 -0.0497 -0.1257
  330loPI   GL2 5270   5.004  10.050  10.554 -0.4337 -0.2134  0.1816
  330loPI   C1A 5271   4.784   9.659  10.039  0.0135  0.0385  0.0001
  330loPI   C2A 5272   4.749   9.607   9.600  0.1009 -0.1162  0.0978
  330loPI   C3A 5273   4.800   9.629   9.205  0.2124  0.2623 -0.0105
  330loPI   C4A 5274   4.830   9.591   8.794 -0.3059 -0.1945 -0.3790
  330loPI   C5A 5275   4.918   9.752   8.419  0.0429  0.1896 -0.0289
  330loPI   C6A 5276   4.799   9.869   7.964 -0.1486  0.0635  0.2279
  330loPI   C1B 5277   5.165  10.032  10.073 -0.2759  0.0303  0.0583
  330loPI   C2B 5278   5.155   9.925   9.639 -0.0495 -0.2504  0.1070
  330loPI   C3B 5279   5.227   9.948   9.211  0.0978 -0.0957 -0.1314
  330loPI   C4B 5280   5.201  10.050   8.717 -0.1287  0.2354  0.0503
  331loPI    C1 5281  15.793  14.413  11.510  0.2107 -0.1072  0.0766
  331loPI    C2 5282  16.052  14.303  11.795  0.2320 -0.0015  0.0989
  331loPI    C3 5283  16.047  14.681  11.665  0.2321 -0.0525 -0.0516
  331loPI   PO4 5284  15.851  14.256  11.288  0.2605 -0.0391  0.4051
  331loPI   GL1 5285  15.810  14.257  10.865 -0.1790  0.1950 -0.0393
  331loPI   GL2 5286  16.066  14.348  10.764  0.0565  0.1660 -0.1775
  331loPI   C1A 5287  15.650  14.191  10.484 -0.0960  0.4536  0.0016
  331loPI   C2A 5288  15.585  14.168  10.023 -0.0248 -0.0929 -0.2526
  331loPI   C3A 5289  15.557  14.135   9.657 -0.1844 -0.1861 -0.0788
  331loPI   C4A 5290  15.687  14.174   9.222  0.3820 -0.1736  0.1078
  331loPI   C5A 5291  15.608  14.097   8.773  0.1101  0.1417  0.2599
  331loPI   C6A 5292  15.626  14.027   8.318  0.0110 -0.0614 -0.1429
  331loPI   C1B 5293  16.053  14.496  10.448 -0.1731  0.0617  0.1228
  331loPI   C2B 5294  15.999  14.501  10.006  0.1224  0.0149 -0.2347
  331loPI   C3B 5295  15.998  14.406   9.551 -0.0245  0.0435 -0.4579
  331loPI   C4B 5296  16.042  14.472   9.144  0.3807  0.1500  0.1509
  332loPI    C1 5297   3.088   6.079  11.240  0.1381  0.0977  0.0104
  332loPI    C2 5298   3.019   6.101  11.634  0.1227 -0.1510  0.0234
  332loPI    C3 5299   3.286   6.346  11.463  0.0019  0.0775  0.1574
  332loPI   PO4 5300   2.831   6.157  11.003 -0.1626  0.1684 -0.3181
  332loPI   GL1 5301   2.924   6.227  10.567 -0.0073 -0.2726  0.0454
  332loPI   GL2 5302   3.289   6.119  10.566  0.0649 -0.0377 -0.1117
  332loPI   C1A 5303   2.973   6.127  10.123  0.0071 -0.0529  0.0000
  332loPI   C2A 5304   2.987   6.156   9.676 -0.1003  0.2236 -0.0172
  332loPI   C3A 5305   2.969   6.254   9.267 -0.0940 -0.0159  0.0034
  332loPI   C4A 5306   3.110   6.263   8.842  0.1145  0.0926  0.2785
  332loPI   C5A 5307   3.138   6.164   8.340 -0.3754 -0.0418 -0.0443
  332loPI   C6A 5308   3.141   6.198   7.840  0.3048 -0.1886  0.0853
  332loPI   C1B 5309   3.503   5.918  10.188  0.1065  0.0388  0.0250
  332loPI   C2B 5310   3.426   5.950   9.702  0.0980  0.0996  0.0604
  332loPI   C3B 5311   3.428   5.989   9.322  0.0468 -0.0662 -0.1263
  332loPI   C4B 5312   3.534   5.965   8.844 -0.1063 -0.1381 -0.3541
  333loPI    C1 5313   0.267   0.458  11.052 -0.4340  0.2465  0.1359
  333loPI    C2 5314   0.592   0.689  11.094 -0.1642 -0.0393 -0.3011
  333loPI    C3 5315   0.422   0.522  11.415  0.1747  0.0426 -0.0745
  333loPI   PO4 5316   0.210   0.559  10.756  0.0072  0.2585 -0.3416
  333loPI   GL1 5317   0.169   0.275  10.418  0.1008  0.1149 -0.2256
  333loPI   GL2 5318   0.221   0.567  10.216  0.1331 -0.0551 -0.0373
  333loPI   C1A 5319   0.204   0.139  10.009  0.1706 -0.1192 -0.1881
  333loPI   C2A 5320   0.176   0.059   9.513  0.0675  0.1255  0.0082
  333loPI   C3A 5321   0.211   0.020   9.120  0.0445 -0.1339 -0.2033
  333loPI   C4A 5322   0.285  -0.033   8.612  0.2481  0.0279  0.1392
  333loPI   C5A 5323   0.070  -0.092   8.208  0.1341  0.0561 -0.2091
  333loPI   C6A 5324  -0.169  -0.201   7.857 -0.0961  0.1006 -0.0824
  333loPI   C1B 5325   0.134   0.577   9.767  0.0115 -0.0401 -0.1327
  333loPI   C2B 5326   0.021   0.495   9.264  0.0779  0.2059  0.0530
  333loPI   C3B 5327   0.094   0.440   8.874  0.0137  0.0179  0.1415
  333loPI   C4B 5328   0.120   0.409   8.436  0.0351  0.0290 -0.2986
  334loPI    C1 5329   9.343  13.734  10.880 -0.1180 -0.0636 -0.1191
  334loPI    C2 5330   9.099  13.836  11.181 -0.1503  0.1895 -0.2290
  334loPI    C3 5331   9.496  13.839  11.234 -0.1555  0.2446 -0.1915
  334loPI   PO4 5332   9.226  13.811  10.653  0.1913 -0.1801  0.0364
  334loPI   GL1 5333   9.201  14.114  10.450 -0.0149 -0.0162 -0.0920
  334loPI   GL2 5334   9.031  13.874  10.229  0.0963 -0.1224 -0.0409
  334loPI   C1A 5335   9.437  14.062   9.949  0.2905  0.0062 -0.2052
  334loPI   C2A 5336   9.383  14.078   9.517  0.0422 -0.2312  0.0309
  334loPI   C3A 5337   9.365  14.026   9.159 -0.1093 -0.2784  0.1321
  334loPI   C4A 5338   9.326  14.035   8.730  0.1096 -0.5879  0.3793
  334loPI   C5A 5339   9.154  13.935   8.297  0.1153 -0.0708  0.1301
  334loPI   C6A 5340   9.156  13.746   7.850 -0.1667 -0.1269  0.1213
  334loPI   C1B 5341   9.087  13.771   9.826  0.0094 -0.1659 -0.2347
  334loPI   C2B 5342   8.978  13.824   9.410 -0.0042 -0.2175 -0.0588
  334loPI   C3B 5343   8.968  13.690   9.129 -0.2462  0.1094 -0.1341
  334loPI   C4B 5344   8.951  13.701   8.728  0.0116 -0.1365 -0.0332
  335loPI    C1 5345   4.199   5.401  11.332  0.0346 -0.1772  0.1393
  335loPI    C2 5346   3.826   5.457  11.465  0.0071  0.1224 -0.0561
  335loPI    C3 5347   4.105   5.310  11.710 -0.1789  0.1316  0.1643
  335loPI   PO4 5348   4.174   5.297  11.120 -0.0138 -0.3460  0.0383
  335loPI   GL1 5349   4.048   5.377  10.816  0.0844 -0.1403  0.1481
  335loPI   GL2 5350   4.261   5.398  10.586 -0.1005  0.0261 -0.1684
  335loPI   C1A 5351   3.898   5.694  10.467  0.3407  0.2340  0.2322
  335loPI   C2A 5352   3.959   5.698  10.001 -0.1715 -0.2547 -0.1074
  335loPI   C3A 5353   3.893   5.777   9.541 -0.1364  0.1587 -0.2275
  335loPI   C4A 5354   3.936   5.766   9.190  0.0968  0.0182  0.3764
  335loPI   C5A 5355   3.947   5.730   8.719  0.1465  0.3061 -0.0555
  335loPI   C6A 5356   4.024   5.708   8.244 -0.1475  0.2654 -0.0022
  335loPI   C1B 5357   4.406   5.546  10.131 -0.1538 -0.1366  0.2621
  335loPI   C2B 5358   4.320   5.538   9.706 -0.1023  0.0243 -0.1485
  335loPI   C3B 5359   4.395   5.579   9.261  0.1577  0.1201  0.0364
  335loPI   C4B 5360   4.493   5.568   8.889  0.0349 -0.1612  0.3338
  336loPI    C1 5361  11.635   5.693  11.099  0.2563  0.0854 -0.0471
  336loPI    C2 5362  11.835   5.385  11.256 -0.0270 -0.0617  0.0320
  336loPI    C3 5363  11.768   5.712  11.476  0.1915  0.0199 -0.0206
  336loPI   PO4 5364  11.404   5.567  10.920 -0.0973 -0.0500  0.1810
  336loPI   GL1 5365  11.262   5.615  10.429  0.0353  0.0258  0.1713
  336loPI   GL2 5366  11.573   5.583  10.380 -0.0204  0.0479 -0.0426
  336loPI   C1A 5367  11.251   5.344  10.047 -0.0505 -0.2765  0.2174
  336loPI   C2A 5368  11.273   5.141   9.670 -0.0374 -0.1749  0.0108
  336loPI   C3A 5369  11.174   5.221   9.371  0.0211 -0.0311  0.0288
  336loPI   C4A 5370  11.230   5.320   8.890 -0.2517 -0.0086  0.1896
  336loPI   C5A 5371  11.146   5.303   8.633  0.1209 -0.0457 -0.0901
  336loPI   C6A 5372  11.148   5.118   8.293 -0.0720  0.0095 -0.1580
  336loPI   C1B 5373  11.719   5.565  10.002  0.1304 -0.2215  0.1954
  336loPI   C2B 5374  11.576   5.557   9.641 -0.1028  0.3490 -0.0389
  336loPI   C3B 5375  11.620   5.658   9.220 -0.1590 -0.2072  0.0747
  336loPI   C4B 5376  11.602   5.657   8.765  0.1240  0.0553  0.1556
  337loPI    C1 5377  14.908  11.904  11.310 -0.0437  0.0743  0.0091
  337loPI    C2 5378  14.560  11.803  11.479  0.0681 -0.5160 -0.0910
  337loPI    C3 5379  14.855  11.534  11.452  0.5427 -0.0233  0.0005
  337loPI   PO4 5380  14.771  12.065  11.039  0.0918 -0.3010  0.0514
  337loPI   GL1 5381  14.589  12.003  10.586  0.0449 -0.2687  0.1038
  337loPI   GL2 5382  14.643  12.336  10.512 -0.0286  0.3256 -0.1215
  337loPI   C1A 5383  14.607  12.001  10.139  0.3683 -0.1606 -0.3949
  337loPI   C2A 5384  14.720  12.052   9.687  0.1144  0.3730  0.1490
  337loPI   C3A 5385  14.645  12.067   9.304 -0.3196 -0.0018 -0.0646
  337loPI   C4A 5386  14.581  12.086   8.842  0.0252  0.1868 -0.1707
  337loPI   C5A 5387  14.412  12.381   8.638  0.0808  0.0152  0.0120
  337loPI   C6A 5388  14.137  12.737   8.790 -0.0726 -0.2531  0.0972
  337loPI   C1B 5389  14.634  12.576  10.221  0.2738 -0.0241 -0.0964
  337loPI   C2B 5390  14.545  12.766   9.835 -0.1211 -0.0400 -0.2454
  337loPI   C3B 5391  14.513  13.128   9.507  0.2087 -0.0999 -0.3386
  337loPI   C4B 5392  14.418  13.128   9.097  0.1608 -0.2576  0.1464
  338loPI    C1 5393   4.543   6.386  11.064 -0.2631 -0.2701  0.0622
  338loPI    C2 5394   4.719   6.278  11.406  0.0920  0.1843  0.0333
  338loPI    C3 5395   4.421   6.544  11.410 -0.1210 -0.0497  0.0136
  338loPI   PO4 5396   4.625   6.139  10.954 -0.1323  0.0578 -0.0772
  338loPI   GL1 5397   4.889   6.277  10.566 -0.0979  0.2065  0.0250
  338loPI   GL2 5398   4.855   6.615  10.706  0.1670 -0.0194 -0.0600
  338loPI   C1A 5399   4.739   6.356  10.160  0.1268 -0.2638 -0.0043
  338loPI   C2A 5400   4.749   6.395   9.644  0.0287 -0.1732 -0.2210
  338loPI   C3A 5401   4.735   6.391   9.257 -0.2627 -0.0814 -0.4995
  338loPI   C4A 5402   4.777   6.429   8.836 -0.3129  0.2196  0.1600
  338loPI   C5A 5403   4.831   6.165   8.418 -0.0223 -0.0879  0.1797
  338loPI   C6A 5404   5.097   5.835   8.332 -0.0731  0.0375  0.0003
  338loPI   C1B 5405   4.675   6.823  10.434  0.1476  0.3676 -0.2514
  338loPI   C2B 5406   4.648   6.862  10.015 -0.1687 -0.0616 -0.1440
  338loPI   C3B 5407   4.735   6.887   9.586 -0.2648  0.0279 -0.1638
  338loPI   C4B 5408   4.782   6.864   9.105 -0.1053  0.2810  0.1414
  339loPI    C1 5409  13.804  12.656  11.286  0.0052  0.1324  0.1109
  339loPI    C2 5410  14.194  12.622  11.368 -0.0109 -0.3068  0.0294
  339loPI    C3 5411  13.925  12.613  11.664  0.0438  0.1484  0.1005
  339loPI   PO4 5412  13.830  12.620  10.954 -0.1575 -0.0654  0.0440
  339loPI   GL1 5413  13.601  12.762  10.495 -0.2463  0.1067 -0.0289
  339loPI   GL2 5414  13.616  12.408  10.461  0.2161  0.2062 -0.1162
  339loPI   C1A 5415  13.590  12.902  10.125  0.2140 -0.0641  0.1169
  339loPI   C2A 5416  13.624  13.005   9.645  0.1994  0.0715  0.1984
  339loPI   C3A 5417  13.511  12.951   9.233 -0.1451 -0.2294 -0.1177
  339loPI   C4A 5418  13.603  13.004   8.800 -0.0203  0.4796  0.2306
  339loPI   C5A 5419  13.907  13.193   8.606 -0.0564 -0.1573  0.1440
  339loPI   C6A 5420  14.226  12.982   8.371 -0.3350  0.2056 -0.3049
  339loPI   C1B 5421  13.765  12.440  10.045  0.0476  0.1204  0.2779
  339loPI   C2B 5422  13.696  12.488   9.551  0.0598  0.0041 -0.0644
  339loPI   C3B 5423  13.719  12.519   9.123  0.0011  0.4689  0.0099
  339loPI   C4B 5424  13.718  12.529   8.728  0.0669  0.0885 -0.0894
  340loPI    C1 5425  17.463  17.672  10.834 -0.1321 -0.1672 -0.0677
  340loPI    C2 5426  17.215  17.847  11.095 -0.0779 -0.0722 -0.0794
  340loPI    C3 5427  17.592  17.767  11.201 -0.0864 -0.1311 -0.0931
  340loPI   PO4 5428  17.573  17.751  10.621  0.1781  0.0437 -0.2991
  340loPI   GL1 5429  17.567  17.525  10.259  0.0155  0.2945 -0.1482
  340loPI   GL2 5430  17.761  17.714  10.118  0.2606  0.3483  0.2977
  340loPI   C1A 5431  17.364  17.383   9.886  0.3199  0.0182  0.0054
  340loPI   C2A 5432  17.279  17.263   9.424 -0.1863  0.1077  0.0872
  340loPI   C3A 5433  17.313  17.317   8.931  0.0614 -0.3284 -0.2456
  340loPI   C4A 5434  17.334  17.277   8.515  0.0049  0.1642 -0.3065
  340loPI   C5A 5435  17.169  17.145   8.166  0.2234  0.1031 -0.2327
  340loPI   C6A 5436  16.819  16.852   8.044  0.1774  0.0564 -0.0825
  340loPI   C1B 5437  17.777  17.676   9.712  0.1190 -0.1787 -0.1219
  340loPI   C2B 5438  17.754  17.628   9.243  0.1475 -0.0634  0.0152
  340loPI   C3B 5439  17.746  17.604   8.761  0.1858  0.0349 -0.0344
  340loPI   C4B 5440  17.622  17.579   8.293  0.0777 -0.0563  0.0491
  341loPI    C1 5441  12.959   1.243  10.944 -0.2499 -0.0671  0.1395
  341loPI    C2 5442  12.956   1.581  11.157 -0.1227 -0.0886  0.1767
  341loPI    C3 5443  13.134   1.255  11.304  0.0076 -0.0907  0.0180
  341loPI   PO4 5444  13.023   1.229  10.725 -0.1945  0.3265  0.2268
  341loPI   GL1 5445  13.130   1.266  10.331 -0.0105  0.2139 -0.4079
  341loPI   GL2 5446  12.916   0.918  10.213  0.0766  0.0287  0.0218
  341loPI   C1A 5447  13.349   1.157   9.926  0.0781 -0.0275  0.2789
  341loPI   C2A 5448  13.411   1.094   9.440  0.2470  0.0676  0.1579
  341loPI   C3A 5449  13.382   1.221   9.078  0.1239  0.2268 -0.1971
  341loPI   C4A 5450  13.352   1.203   8.700  0.2036 -0.2265  0.1374
  341loPI   C5A 5451  13.385   1.203   8.218  0.2411 -0.0945  0.0756
  341loPI   C6A 5452  13.587   0.844   7.866  0.0730  0.1025 -0.1741
  341loPI   C1B 5453  12.928   0.924   9.728 -0.1168 -0.1886 -0.0239
  341loPI   C2B 5454  12.939   0.856   9.305  0.0107  0.1552  0.1411
  341loPI   C3B 5455  12.943   0.928   8.818 -0.2454  0.2892  0.1663
  341loPI   C4B 5456  12.939   0.917   8.423  0.1753 -0.0898 -0.1715
  342loPI    C1 5457  16.146  16.762  11.078  0.1708  0.0672 -0.0765
  342loPI    C2 5458  15.797  16.878  11.235  0.0546  0.0248 -0.2984
  342loPI    C3 5459  16.098  16.768  11.475 -0.1047  0.0006 -0.1071
  342loPI   PO4 5460  16.176  16.876  10.858  0.2620  0.0494  0.2556
  342loPI   GL1 5461  16.083  16.855  10.442 -0.2552 -0.1544 -0.0016
  342loPI   GL2 5462  15.997  16.598  10.436 -0.2434 -0.1257 -0.0204
  342loPI   C1A 5463  16.058  16.832   9.951  0.1885 -0.0130 -0.1338
  342loPI   C2A 5464  16.017  16.789   9.559  0.1295 -0.2137 -0.3126
  342loPI   C3A 5465  16.030  16.757   9.114 -0.1458  0.1552  0.1662
  342loPI   C4A 5466  16.034  16.755   8.604  0.1852  0.3780  0.2620
  342loPI   C5A 5467  16.149  16.376   8.404 -0.1499 -0.2764 -0.0935
  342loPI   C6A 5468  16.429  16.093   8.192 -0.3128  0.0394  0.1013
  342loPI   C1B 5469  16.128  16.390  10.160 -0.1824  0.0740  0.1823
  342loPI   C2B 5470  16.129  16.341   9.704 -0.3752  0.1491 -0.1189
  342loPI   C3B 5471  16.098  16.292   9.315 -0.0414  0.1470 -0.0549
  342loPI   C4B 5472  16.050  16.252   8.863 -0.2027  0.3878 -0.3519
  343loPI    C1 5473   3.762   4.009  10.793  0.0728  0.2833  0.1612
  343loPI    C2 5474   3.404   3.836  10.833  0.0927  0.1985 -0.0169
  343loPI    C3 5475   3.700   3.743  11.084  0.0508  0.1096 -0.0003
  343loPI   PO4 5476   3.835   4.079  10.503  0.3500  0.3161  0.1360
  343loPI   GL1 5477   3.806   3.870  10.203  0.0156  0.2258  0.2003
  343loPI   GL2 5478   3.477   3.764  10.256  0.0286  0.1858  0.1094
  343loPI   C1A 5479   3.746   3.917   9.749  0.1443 -0.1441 -0.2161
  343loPI   C2A 5480   3.699   3.949   9.335  0.3534 -0.3264  0.3343
  343loPI   C3A 5481   3.728   3.929   8.914  0.0225  0.1483 -0.0569
  343loPI   C4A 5482   3.801   3.846   8.526 -0.1094 -0.0573  0.1437
  343loPI   C5A 5483   3.775   4.040   8.152 -0.0034 -0.1002  0.0974
  343loPI   C6A 5484   3.616   4.302   7.752 -0.1625 -0.0773  0.1431
  343loPI   C1B 5485   3.372   3.606   9.891  0.1640  0.1264  0.0418
  343loPI   C2B 5486   3.332   3.673   9.532 -0.1124 -0.1176  0.0646
  343loPI   C3B 5487   3.427   3.588   9.087  0.2288  0.0104  0.2000
  343loPI   C4B 5488   3.381   3.484   8.712  0.3024  0.1033  0.0410
  344loPI    C1 5489   3.741  15.715  11.100 -0.0961  0.1247 -0.0216
  344loPI    C2 5490   4.080  15.918  11.162  0.0032 -0.0028 -0.1398
  344loPI    C3 5491   4.056  15.533  11.266 -0.1560  0.0451  0.0050
  344loPI   PO4 5492   3.749  15.816  10.817  0.1088 -0.0039 -0.0906
  344loPI   GL1 5493   3.656  15.688  10.470  0.1751 -0.1928 -0.1509
  344loPI   GL2 5494   3.943  15.412  10.397  0.2135  0.1668  0.2689
  344loPI   C1A 5495   3.650  15.751  10.102 -0.1060 -0.1434 -0.1262
  344loPI   C2A 5496   3.676  15.798   9.718 -0.2514 -0.1813  0.1089
  344loPI   C3A 5497   3.665  15.680   9.328  0.0206  0.0843 -0.0226
  344loPI   C4A 5498   3.575  15.585   8.878  0.0569  0.2153  0.3030
  344loPI   C5A 5499   3.519  15.521   8.434  0.1092  0.0264  0.0070
  344loPI   C6A 5500   3.786  15.185   8.226  0.0584 -0.1353  0.0253
  344loPI   C1B 5501   3.762  15.208  10.044  0.1676 -0.1909 -0.1153
  344loPI   C2B 5502   3.786  15.240   9.582 -0.0446 -0.0277  0.1182
  344loPI   C3B 5503   3.712  15.181   9.166  0.0591  0.0220  0.1537
  344loPI   C4B 5504   3.726  15.129   8.707  0.0428 -0.2401  0.1006
  345loPI    C1 5505   8.943  10.575  11.001 -0.1008  0.0147 -0.1593
  345loPI    C2 5506   9.138  10.370  11.285  0.0110  0.0986 -0.1746
  345loPI    C3 5507   9.187  10.766  11.255 -0.0466  0.0987 -0.2735
  345loPI   PO4 5508   8.940  10.439  10.846 -0.0217 -0.0829 -0.0755
  345loPI   GL1 5509   8.892  10.789  10.460 -0.1131  0.0494 -0.4004
  345loPI   GL2 5510   8.645  10.608  10.487  0.3080  0.1413 -0.0905
  345loPI   C1A 5511   8.914  10.979  10.032 -0.1403  0.1580 -0.0633
  345loPI   C2A 5512   8.980  10.968   9.670 -0.1259  0.2285  0.1308
  345loPI   C3A 5513   9.051  10.919   9.319  0.2812 -0.2069  0.1527
  345loPI   C4A 5514   9.007  10.929   8.899 -0.0160 -0.1906 -0.3104
  345loPI   C5A 5515   8.992  10.979   8.497 -0.0562 -0.1425  0.1835
  345loPI   C6A 5516   9.383  11.124   8.287  0.4754  0.0056  0.2132
  345loPI   C1B 5517   8.546  10.512  10.070 -0.0173 -0.3297 -0.2464
  345loPI   C2B 5518   8.640  10.572   9.729 -0.0385  0.2080  0.1656
  345loPI   C3B 5519   8.601  10.569   9.232  0.1199  0.0591  0.0571
  345loPI   C4B 5520   8.539  10.596   8.737 -0.3752 -0.0411  0.0679
  346loPI    C1 5521  14.951   1.071  10.721 -0.0192 -0.3354 -0.0065
  346loPI    C2 5522  14.660   1.004  10.987  0.0357 -0.1266  0.1088
  346loPI    C3 5523  15.039   1.039  11.110  0.0576  0.0017  0.0070
  346loPI   PO4 5524  14.878   0.846  10.556  0.0325  0.4331 -0.0322
  346loPI   GL1 5525  14.708   0.721  10.284  0.0086  0.1067 -0.0399
  346loPI   GL2 5526  14.720   0.412  10.362 -0.1013  0.1277 -0.0577
  346loPI   C1A 5527  14.879   0.774   9.876 -0.0667  0.1260 -0.3764
  346loPI   C2A 5528  14.853   0.670   9.414 -0.1372  0.0177  0.1457
  346loPI   C3A 5529  14.750   0.694   9.090 -0.1768 -0.1630 -0.0800
  346loPI   C4A 5530  14.754   0.796   8.616 -0.1913  0.0495  0.2348
  346loPI   C5A 5531  14.942   1.052   8.262  0.1668  0.3007  0.1310
  346loPI   C6A 5532  14.818   1.461   8.159 -0.0260 -0.1901 -0.0127
  346loPI   C1B 5533  14.883   0.245   9.969 -0.0051  0.1168  0.1619
  346loPI   C2B 5534  14.958   0.111   9.555 -0.0245 -0.0350 -0.1731
  346loPI   C3B 5535  14.863   0.238   9.138  0.1537  0.3860  0.4792
  346loPI   C4B 5536  14.856   0.314   8.709  0.1265  0.0337 -0.1811
  347loPI    C1 5537  17.252  14.618  11.187  0.1023 -0.2127  0.0570
  347loPI    C2 5538  17.350  14.826  11.515  0.2291 -0.1309 -0.0321
  347loPI    C3 5539  17.122  14.499  11.546 -0.0550  0.0754  0.0988
  347loPI   PO4 5540  17.164  14.865  11.004 -0.1881 -0.1201  0.3431
  347loPI   GL1 5541  16.909  14.782  10.618 -0.1056 -0.1110 -0.1812
  347loPI   GL2 5542  16.863  15.109  10.403  0.0047 -0.0256  0.2115
  347loPI   C1A 5543  16.852  14.632  10.196  0.3211 -0.2579 -0.2043
  347loPI   C2A 5544  16.937  14.694   9.751  0.1392  0.2058  0.1432
  347loPI   C3A 5545  16.874  14.607   9.263  0.0157 -0.0207  0.0273
  347loPI   C4A 5546  16.839  14.617   8.857  0.0004  0.2718  0.1518
  347loPI   C5A 5547  16.725  14.571   8.428 -0.1274 -0.0135  0.0118
  347loPI   C6A 5548  16.340  14.632   8.287  0.0909  0.2399 -0.0923
  347loPI   C1B 5549  16.773  15.115   9.972  0.4030  0.0942  0.0301
  347loPI   C2B 5550  16.836  15.123   9.489  0.2669  0.0197 -0.3049
  347loPI   C3B 5551  16.797  15.123   9.041  0.0083  0.0293  0.1261
  347loPI   C4B 5552  16.668  15.000   8.664 -0.1412 -0.2840 -0.1721
  348loPI    C1 5553   2.693   4.252  11.024  0.2622  0.2186 -0.0660
  348loPI    C2 5554   2.892   3.910  11.081  0.0394  0.0570 -0.2368
  348loPI    C3 5555   2.606   4.020  11.337  0.1901  0.1759 -0.1173
  348loPI   PO4 5556   2.650   4.231  10.747  0.1281  0.2682  0.0451
  348loPI   GL1 5557   2.719   4.374  10.314 -0.3121  0.0014 -0.1867
  348loPI   GL2 5558   2.630   4.140  10.224  0.0586 -0.1286  0.2875
  348loPI   C1A 5559   2.669   4.810  10.038 -0.1288  0.2779  0.0662
  348loPI   C2A 5560   2.653   4.858   9.661  0.0093 -0.2464 -0.1835
  348loPI   C3A 5561   2.683   4.831   9.218  0.2589  0.1141 -0.2172
  348loPI   C4A 5562   2.701   4.853   8.924 -0.0035 -0.1637 -0.1057
  348loPI   C5A 5563   2.744   4.791   8.558 -0.0877 -0.0194 -0.0154
  348loPI   C6A 5564   2.973   4.679   8.294 -0.1533  0.2833  0.2330
  348loPI   C1B 5565   2.739   4.329   9.810 -0.3126  0.1894  0.4169
  348loPI   C2B 5566   2.763   4.352   9.333  0.1408  0.0280  0.0109
  348loPI   C3B 5567   2.848   4.383   8.904 -0.0776  0.1122 -0.0127
  348loPI   C4B 5568   2.834   4.189   8.439  0.1686  0.0544  0.0214
  349loPI    C1 5569  14.250   1.074  10.723  0.1734  0.0505  0.2134
  349loPI    C2 5570  14.191   1.405  10.940 -0.0460  0.1596 -0.0067
  349loPI    C3 5571  13.881   1.221  10.767  0.0651 -0.2031  0.1681
  349loPI   PO4 5572  14.442   1.088  10.533  0.1522 -0.2418 -0.0290
  349loPI   GL1 5573  14.492   1.205  10.238 -0.1566 -0.0917 -0.2495
  349loPI   GL2 5574  14.797   1.206  10.238  0.0441  0.0282 -0.0009
  349loPI   C1A 5575  14.162   1.314   9.929 -0.0854 -0.0340 -0.0251
  349loPI   C2A 5576  14.213   1.276   9.489 -0.0761  0.0129  0.1507
  349loPI   C3A 5577  14.173   1.398   9.079  0.2079  0.0388  0.3148
  349loPI   C4A 5578  14.166   1.417   8.658  0.1333  0.3019 -0.1748
  349loPI   C5A 5579  14.188   1.439   8.269  0.0581 -0.2524 -0.0872
  349loPI   C6A 5580  14.302   1.612   7.989  0.2112  0.0781  0.2342
  349loPI   C1B 5581  14.704   1.222   9.767 -0.1790  0.0929 -0.0324
  349loPI   C2B 5582  14.735   1.127   9.325  0.4153  0.2617  0.2171
  349loPI   C3B 5583  14.650   1.218   8.948  0.2178  0.2283 -0.2485
  349loPI   C4B 5584  14.617   1.287   8.584  0.1527 -0.1073 -0.1052
  350loPI    C1 5585   6.196  16.876  10.497  0.0679 -0.0809 -0.2523
  350loPI    C2 5586   6.283  17.264  10.540  0.0629 -0.1059  0.0034
  350loPI    C3 5587   6.448  16.994  10.784 -0.0086 -0.2551 -0.1113
  350loPI   PO4 5588   6.205  16.730  10.287  0.1829 -0.0752  0.1979
  350loPI   GL1 5589   6.236  16.645   9.992  0.0136 -0.1924 -0.1108
  350loPI   GL2 5590   6.440  16.825   9.739  0.1156 -0.1393 -0.0872
  350loPI   C1A 5591   5.949  16.873   9.650 -0.1089 -0.1592 -0.0194
  350loPI   C2A 5592   5.878  16.948   9.269 -0.0401 -0.1268  0.0363
  350loPI   C3A 5593   5.742  16.912   8.888  0.2223  0.2135 -0.3125
  350loPI   C4A 5594   5.574  16.788   8.493  0.3049 -0.1203 -0.1800
  350loPI   C5A 5595   5.524  16.589   8.024 -0.1046  0.1378  0.0077
  350loPI   C6A 5596   5.302  16.281   7.844  0.0005  0.1381  0.1604
  350loPI   C1B 5597   6.394  16.747   9.390 -0.1831  0.3785 -0.1277
  350loPI   C2B 5598   6.255  16.730   8.914 -0.0720 -0.0128  0.0563
  350loPI   C3B 5599   6.084  16.697   8.489 -0.2087 -0.1115  0.0321
  350loPI   C4B 5600   6.051  16.549   8.090  0.1772 -0.3135  0.0778
  351loPI    C1 5601   3.307  15.462  10.899  0.0994 -0.0683 -0.1240
  351loPI    C2 5602   2.911  15.518  10.911  0.1191  0.0418  0.0519
  351loPI    C3 5603   3.087  15.276  11.177  0.1537 -0.1155 -0.1122
  351loPI   PO4 5604   3.349  15.389  10.685 -0.0702 -0.0149 -0.0883
  351loPI   GL1 5605   3.571  15.023  10.446 -0.3201  0.2208  0.3154
  351loPI   GL2 5606   3.896  14.948  10.475 -0.1679 -0.2226  0.2933
  351loPI   C1A 5607   3.358  14.859  10.090 -0.1945  0.2120 -0.1168
  351loPI   C2A 5608   3.371  14.915   9.612  0.0341  0.1643  0.0544
  351loPI   C3A 5609   3.370  14.852   9.140  0.0181 -0.3516  0.1263
  351loPI   C4A 5610   3.292  14.747   8.659  0.2613  0.3217  0.0499
  351loPI   C5A 5611   3.269  14.516   8.220  0.0601  0.0570  0.0191
  351loPI   C6A 5612   3.257  14.454   7.719  0.2804  0.1502 -0.3118
  351loPI   C1B 5613   3.927  14.733  10.183 -0.0397  0.0861 -0.4829
  351loPI   C2B 5614   3.741  14.695   9.805  0.0991  0.0908  0.2059
  351loPI   C3B 5615   3.862  14.704   9.386 -0.1068  0.1512 -0.0649
  351loPI   C4B 5616   3.749  14.689   8.947 -0.0451 -0.2146  0.0361
  352loPI    C1 5617   4.974   1.740  10.703 -0.2092 -0.1436  0.1568
  352loPI    C2 5618   5.360   1.717  10.804 -0.0831 -0.1157 -0.2933
  352loPI    C3 5619   5.076   1.657  11.080  0.2400 -0.3413 -0.0016
  352loPI   PO4 5620   5.023   1.832  10.464  0.0048  0.1554  0.0624
  352loPI   GL1 5621   4.860   1.991  10.091  0.0277  0.1528  0.0836
  352loPI   GL2 5622   4.648   1.707  10.036 -0.0303  0.2386 -0.3932
  352loPI   C1A 5623   4.982   1.895   9.722  0.0577  0.3251  0.3130
  352loPI   C2A 5624   5.005   1.972   9.187 -0.4033 -0.3286 -0.0334
  352loPI   C3A 5625   4.896   1.910   8.785  0.2250  0.0641  0.0362
  352loPI   C4A 5626   4.897   1.964   8.434 -0.0795 -0.1942 -0.1700
  352loPI   C5A 5627   4.833   2.210   8.053  0.1540  0.1024  0.1176
  352loPI   C6A 5628   4.667   2.389   7.707  0.3167  0.2714 -0.0124
  352loPI   C1B 5629   4.559   1.622   9.638 -0.0728  0.0432 -0.2625
  352loPI   C2B 5630   4.517   1.714   9.163 -0.0973 -0.0322 -0.0961
  352loPI   C3B 5631   4.500   1.659   8.728 -0.0822  0.1862 -0.2895
  352loPI   C4B 5632   4.596   1.461   8.343  0.2125 -0.0200 -0.0953
  353loPI    C1 5633  16.696   4.145  10.402  0.2934 -0.0618  0.1607
  353loPI    C2 5634  16.700   3.799  10.603  0.1728 -0.0385  0.2042
  353loPI    C3 5635  16.784   4.141  10.792 -0.1693  0.0116  0.2719
  353loPI   PO4 5636  16.773   4.076  10.149 -0.3316  0.2039  0.2699
  353loPI   GL1 5637  16.704   4.206   9.696  0.5657 -0.0697  0.0302
  353loPI   GL2 5638  16.423   4.093   9.742  0.0661  0.2600 -0.2418
  353loPI   C1A 5639  16.999   4.230   9.302 -0.0298 -0.4163  0.1283
  353loPI   C2A 5640  17.070   4.393   8.936  0.0216  0.3144 -0.2551
  353loPI   C3A 5641  17.270   4.569   8.564 -0.1097 -0.1361  0.0016
  353loPI   C4A 5642  17.441   4.563   8.183  0.0380 -0.1220 -0.1656
  353loPI   C5A 5643  17.771   4.405   7.890  0.1950  0.1676  0.3069
  353loPI   C6A 5644  18.253   4.312   7.820  0.0421 -0.0737  0.1262
  353loPI   C1B 5645  16.381   4.337   9.304  0.0603 -0.1715  0.4315
  353loPI   C2B 5646  16.395   4.422   8.864 -0.1016 -0.0415  0.2004
  353loPI   C3B 5647  16.321   4.427   8.327  0.0661  0.4522 -0.0175
  353loPI   C4B 5648  15.955   4.533   8.025 -0.1831 -0.0941 -0.0095
  354loPI    C1 5649   2.941   2.604  11.006  0.0538  0.1470  0.0623
  354loPI    C2 5650   2.616   2.634  11.236  0.1052  0.0169  0.1532
  354loPI    C3 5651   2.962   2.793  11.358  0.1232 -0.0184  0.1481
  354loPI   PO4 5652   2.847   2.602  10.739  0.1850 -0.0077  0.1304
  354loPI   GL1 5653   2.878   2.613  10.171 -0.1677 -0.0322 -0.0926
  354loPI   GL2 5654   3.021   2.897  10.016  0.3648  0.0841 -0.0273
  354loPI   C1A 5655   2.684   2.580   9.793  0.1801  0.0760 -0.0259
  354loPI   C2A 5656   2.559   2.449   9.262 -0.2147  0.2942  0.3793
  354loPI   C3A 5657   2.645   2.361   8.787 -0.2152  0.1249 -0.0080
  354loPI   C4A 5658   2.747   2.410   8.334  0.0970  0.4420 -0.3107
  354loPI   C5A 5659   2.815   2.415   7.915  0.0572 -0.2087 -0.1415
  354loPI   C6A 5660   2.503   2.582   7.605 -0.2558  0.1480  0.0112
  354loPI   C1B 5661   2.989   2.880   9.556  0.2440  0.2457 -0.1615
  354loPI   C2B 5662   3.067   2.666   9.117 -0.0932 -0.1209  0.0442
  354loPI   C3B 5663   3.054   2.635   8.663 -0.0170  0.1534  0.0046
  354loPI   C4B 5664   2.970   2.806   8.294 -0.0595 -0.0124  0.1672
  355loPI    C1 5665   6.809  17.487  10.371 -0.0429 -0.3707 -0.0584
  355loPI    C2 5666   6.737  17.378  10.749  0.0043 -0.1698  0.0101
  355loPI    C3 5667   6.978  17.688  10.673 -0.1463 -0.0965 -0.1791
  355loPI   PO4 5668   6.956  17.339  10.279  0.2817 -0.0453  0.1234
  355loPI   GL1 5669   7.179  17.272   9.914  0.0739  0.1492  0.0299
  355loPI   GL2 5670   7.082  16.947   9.945 -0.1059  0.0782  0.2839
  355loPI   C1A 5671   7.038  17.516   9.515  0.0415 -0.0919  0.0614
  355loPI   C2A 5672   7.063  17.352   9.135  0.0629 -0.1867  0.1136
  355loPI   C3A 5673   7.082  17.300   8.707  0.1295 -0.0493  0.2237
  355loPI   C4A 5674   7.207  17.503   8.291 -0.3557 -0.0282 -0.1235
  355loPI   C5A 5675   7.458  17.680   7.937 -0.0879 -0.0446 -0.1119
  355loPI   C6A 5676   7.519  17.697   7.523 -0.3124  0.0106 -0.0766
  355loPI   C1B 5677   7.196  16.899   9.517  0.0156 -0.0135  0.0296
  355loPI   C2B 5678   7.239  16.860   9.121  0.1104  0.2620 -0.0789
  355loPI   C3B 5679   7.162  16.756   8.680  0.3085 -0.0495 -0.0595
  355loPI   C4B 5680   7.044  16.954   8.259  0.0441 -0.0734  0.0030
  356loPI    C1 5681   2.283   9.089  10.949 -0.2985  0.1762  0.1227
  356loPI    C2 5682   2.395   8.888  11.276 -0.1015 -0.0153 -0.0592
  356loPI    C3 5683   2.281   9.271  11.305  0.1916  0.0570  0.1933
  356loPI   PO4 5684   2.198   8.867  10.770 -0.3248  0.1797  0.3937
  356loPI   GL1 5685   2.249   8.873  10.367  0.0262  0.2044 -0.0907
  356loPI   GL2 5686   2.138   9.099  10.130  0.0150  0.2275  0.3276
  356loPI   C1A 5687   2.572   8.873  10.084  0.2152  0.2035  0.3044
  356loPI   C2A 5688   2.769   8.938   9.762  0.0709  0.0815  0.1232
  356loPI   C3A 5689   2.624   8.988   9.308 -0.0040  0.0827 -0.0310
  356loPI   C4A 5690   2.593   8.988   8.808 -0.0475 -0.1627  0.1164
  356loPI   C5A 5691   2.721   8.934   8.454 -0.0206  0.1974  0.2923
  356loPI   C6A 5692   2.813   9.128   8.187  0.0445  0.0239 -0.2378
  356loPI   C1B 5693   2.248   9.086   9.692  0.1348  0.1706  0.0642
  356loPI   C2B 5694   2.102   9.098   9.211 -0.0832  0.0457 -0.0163
  356loPI   C3B 5695   2.132   9.093   8.760 -0.2019  0.5917  0.1340
  356loPI   C4B 5696   2.127   9.033   8.364  0.1189 -0.0408 -0.2747
  357loPI    C1 5697   8.346   5.387  11.213  0.0728  0.0310  0.0771
  357loPI    C2 5698   8.073   5.173  11.411  0.0506 -0.0916 -0.0839
  357loPI    C3 5699   8.112   5.564  11.485 -0.0501 -0.1082  0.0631
  357loPI   PO4 5700   8.288   5.407  11.010 -0.0824  0.1705  0.2193
  357loPI   GL1 5701   8.360   5.555  10.599 -0.1421 -0.0659 -0.0674
  357loPI   GL2 5702   8.040   5.405  10.571 -0.1375 -0.1578  0.2870
  357loPI   C1A 5703   8.394   5.708  10.272  0.1317 -0.2959 -0.1709
  357loPI   C2A 5704   8.393   5.860   9.932 -0.2272  0.0873 -0.0343
  357loPI   C3A 5705   8.426   5.843   9.499 -0.0694  0.0659 -0.1444
  357loPI   C4A 5706   8.444   5.802   9.087  0.3478  0.0937 -0.1754
  357loPI   C5A 5707   8.313   5.821   8.609 -0.0220 -0.2269  0.0322
  357loPI   C6A 5708   8.495   5.824   8.240 -0.3026  0.0148  0.2478
  357loPI   C1B 5709   7.968   5.436  10.179  0.2077 -0.0030  0.2664
  357loPI   C2B 5710   7.972   5.506   9.682  0.3360 -0.1315  0.0326
  357loPI   C3B 5711   8.043   5.476   9.296  0.2357 -0.0278  0.0218
  357loPI   C4B 5712   7.990   5.521   8.902  0.0854 -0.2967  0.0383
  358loPI    C1 5713  16.757  15.620  11.183  0.1169 -0.1216  0.2114
  358loPI    C2 5714  16.740  16.002  11.302  0.2754  0.0214 -0.2043
  358loPI    C3 5715  16.705  15.706  11.570  0.0249  0.3234  0.1054
  358loPI   PO4 5716  16.821  15.670  10.937 -0.1252  0.0800 -0.1993
  358loPI   GL1 5717  16.816  15.652  10.591 -0.3418  0.1757  0.5356
  358loPI   GL2 5718  16.496  15.422  10.660 -0.2159 -0.0622  0.0351
  358loPI   C1A 5719  16.690  15.609  10.182 -0.1576 -0.3429 -0.1515
  358loPI   C2A 5720  16.755  15.692   9.746  0.1977 -0.0797  0.0364
  358loPI   C3A 5721  16.691  15.660   9.229  0.0527  0.2449 -0.0839
  358loPI   C4A 5722  16.711  15.658   8.857 -0.1633  0.0577  0.1420
  358loPI   C5A 5723  16.675  15.663   8.346  0.2434  0.3571 -0.1691
  358loPI   C6A 5724  16.787  15.904   7.912 -0.0734  0.2346 -0.4316
  358loPI   C1B 5725  16.352  15.270  10.311 -0.0145 -0.3262  0.1655
  358loPI   C2B 5726  16.360  15.323   9.826 -0.2788  0.1157 -0.0978
  358loPI   C3B 5727  16.300  15.285   9.396 -0.3949  0.0574  0.0454
  358loPI   C4B 5728  16.275  15.309   8.958 -0.2489  0.2122  0.1049
  359loPI    C1 5729   5.158  13.694  10.962 -0.0991 -0.0107 -0.0190
  359loPI    C2 5730   5.048  13.497  11.293 -0.1706  0.0894  0.0171
  359loPI    C3 5731   4.904  13.864  11.220 -0.0553  0.1198 -0.0610
  359loPI   PO4 5732   5.091  13.560  10.732 -0.2639 -0.1137 -0.3851
  359loPI   GL1 5733   4.988  13.760  10.412 -0.3471  0.1748 -0.0278
  359loPI   GL2 5734   4.668  13.525  10.432  0.0572 -0.0499  0.1246
  359loPI   C1A 5735   5.410  13.730  10.086  0.0851 -0.0698  0.2433
  359loPI   C2A 5736   5.337  13.718   9.717  0.0869 -0.2706 -0.1190
  359loPI   C3A 5737   5.316  13.664   9.248  0.3343  0.1841  0.1225
  359loPI   C4A 5738   5.244  13.737   8.740 -0.2560  0.4479 -0.1263
  359loPI   C5A 5739   5.250  13.472   8.339  0.1868 -0.1178  0.1066
  359loPI   C6A 5740   4.962  13.537   7.996 -0.1257  0.2808 -0.0617
  359loPI   C1B 5741   4.565  13.539   9.948  0.2279 -0.0053  0.1562
  359loPI   C2B 5742   4.395  13.492   9.533  0.2528  0.2761  0.2736
  359loPI   C3B 5743   4.493  13.540   9.129  0.0140  0.1517  0.0681
  359loPI   C4B 5744   4.392  13.508   8.686  0.0621  0.1583 -0.2466
  360loPI    C1 5745  17.332  17.208  11.352 -0.1708  0.0191 -0.1007
  360loPI    C2 5746  17.032  17.450  11.458 -0.1944 -0.0400 -0.0321
  360loPI    C3 5747  16.986  17.053  11.476 -0.0981 -0.0492  0.0180
  360loPI   PO4 5748  17.351  17.288  11.096  0.1716 -0.0065  0.2622
  360loPI   GL1 5749  17.211  17.284  10.662  0.3797  0.0711  0.2560
  360loPI   GL2 5750  17.434  17.072  10.607  0.2765 -0.0956  0.0577
  360loPI   C1A 5751  17.044  17.131  10.274 -0.1206  0.1451  0.0281
  360loPI   C2A 5752  17.024  16.965   9.846  0.1982  0.0092  0.1013
  360loPI   C3A 5753  16.899  16.931   9.416 -0.1049  0.2508  0.2081
  360loPI   C4A 5754  16.903  16.850   8.992 -0.0325  0.0948 -0.0013
  360loPI   C5A 5755  17.022  16.847   8.535  0.1225 -0.0264  0.2386
  360loPI   C6A 5756  17.251  16.656   8.354  0.1845  0.0510 -0.0274
  360loPI   C1B 5757  17.487  16.829  10.253  0.1035  0.4016 -0.2977
  360loPI   C2B 5758  17.422  16.738   9.769 -0.0774  0.1776 -0.2183
  360loPI   C3B 5759  17.422  16.785   9.295 -0.1446 -0.0343 -0.1011
  360loPI   C4B 5760  17.428  16.811   8.878  0.0045 -0.1192  0.0680
  361loPI    C1 5761   2.597  14.852  11.070 -0.0365 -0.0014 -0.0793
  361loPI    C2 5762   2.777  14.930  11.418 -0.2278 -0.0235  0.0255
  361loPI    C3 5763   2.421  14.749  11.413 -0.2201 -0.0350 -0.1828
  361loPI   PO4 5764   2.727  15.061  10.895 -0.0605  0.2202 -0.1363
  361loPI   GL1 5765   2.789  15.171  10.552 -0.2429 -0.2431 -0.0257
  361loPI   GL2 5766   3.052  15.097  10.397 -0.0591 -0.0879 -0.1599
  361loPI   C1A 5767   2.404  15.181  10.192  0.2798  0.1288  0.2238
  361loPI   C2A 5768   2.320  15.144   9.740  0.1492  0.0969 -0.0749
  361loPI   C3A 5769   2.292  15.143   9.345 -0.0526  0.3085  0.2830
  361loPI   C4A 5770   2.302  15.256   8.972 -0.6755  0.2888 -0.0608
  361loPI   C5A 5771   2.363  15.205   8.567 -0.0206 -0.0139  0.1416
  361loPI   C6A 5772   2.408  15.506   8.236  0.2885 -0.1169  0.1607
  361loPI   C1B 5773   2.846  15.037   9.977 -0.1304  0.1214 -0.0058
  361loPI   C2B 5774   2.891  14.998   9.569 -0.0749 -0.3485  0.0081
  361loPI   C3B 5775   2.837  14.986   9.237  0.0047  0.0319  0.0542
  361loPI   C4B 5776   2.807  14.902   8.798 -0.2110 -0.1550 -0.1820
  362loPI    C1 5777  10.276  14.807  11.065  0.1509  0.0100  0.1160
  362loPI    C2 5778  10.095  15.022  11.348 -0.1358  0.1489 -0.1669
  362loPI    C3 5779  10.023  14.630  11.318 -0.0400  0.1174  0.0023
  362loPI   PO4 5780  10.302  14.816  10.851 -0.3056 -0.0710 -0.2159
  362loPI   GL1 5781  10.156  14.826  10.542 -0.0481  0.1495 -0.2713
  362loPI   GL2 5782  10.030  15.114  10.471  0.0608 -0.2341 -0.1022
  362loPI   C1A 5783  10.109  14.777  10.074  0.2343 -0.1975 -0.0190
  362loPI   C2A 5784  10.198  14.681   9.623  0.0399  0.2285  0.0640
  362loPI   C3A 5785  10.169  14.691   9.164 -0.0983  0.0239  0.1353
  362loPI   C4A 5786  10.207  14.743   8.708  0.0376  0.0403  0.0960
  362loPI   C5A 5787  10.231  14.700   8.221 -0.0214  0.0695 -0.1560
  362loPI   C6A 5788   9.946  14.996   7.907 -0.2028  0.1756  0.0415
  362loPI   C1B 5789  10.129  15.305  10.135  0.0567  0.0199  0.1467
  362loPI   C2B 5790  10.060  15.292   9.841 -0.2053 -0.0751  0.2614
  362loPI   C3B 5791  10.147  15.264   9.417 -0.0587  0.1540 -0.1838
  362loPI   C4B 5792  10.090  15.182   9.047 -0.0237  0.0219 -0.0266
  363loPI    C1 5793  14.435  10.363  11.153 -0.0038 -0.0286  0.1601
  363loPI    C2 5794  14.449   9.968  11.217 -0.2496 -0.0329  0.1975
  363loPI    C3 5795  14.530  10.223  11.515  0.2505 -0.0518  0.0861
  363loPI   PO4 5796  14.270  10.445  10.894  0.4040  0.0032 -0.3349
  363loPI   GL1 5797  13.964  10.332  10.562  0.0045 -0.0173  0.3528
  363loPI   GL2 5798  13.735  10.167  10.384  0.0807  0.0599 -0.2029
  363loPI   C1A 5799  14.069  10.440  10.122 -0.1908  0.1079  0.0135
  363loPI   C2A 5800  14.010  10.408   9.668 -0.1499  0.0727  0.1015
  363loPI   C3A 5801  13.864  10.432   9.287 -0.1168 -0.1732  0.0629
  363loPI   C4A 5802  13.898  10.480   8.927 -0.1050 -0.2815 -0.1161
  363loPI   C5A 5803  13.974  10.598   8.584 -0.1387  0.0695 -0.0973
  363loPI   C6A 5804  13.792  10.841   8.200 -0.2817 -0.1626  0.3605
  363loPI   C1B 5805  13.675  10.097   9.918 -0.0390 -0.0505 -0.0592
  363loPI   C2B 5806  13.633  10.080   9.537 -0.1632 -0.4811 -0.0381
  363loPI   C3B 5807  13.552  10.122   9.057 -0.0513 -0.0145  0.1220
  363loPI   C4B 5808  13.579  10.243   8.532 -0.0148  0.1601  0.0545
  364loPI    C1 5809  10.326   3.773  10.828  0.0563  0.1095  0.0107
  364loPI    C2 5810  10.662   3.597  10.954  0.0115 -0.0075 -0.0316
  364loPI    C3 5811  10.504   3.899  11.163  0.0295 -0.0890  0.1013
  364loPI   PO4 5812  10.383   3.772  10.559  0.0363  0.0042 -0.1707
  364loPI   GL1 5813  10.692   3.594  10.402 -0.0165 -0.0575 -0.0089
  364loPI   GL2 5814  10.901   3.855  10.227 -0.3087  0.0188  0.0788
  364loPI   C1A 5815  10.630   3.619   9.934 -0.3377 -0.2342 -0.0560
  364loPI   C2A 5816  10.694   3.604   9.499 -0.0433 -0.1456 -0.1187
  364loPI   C3A 5817  10.599   3.593   9.126 -0.1092 -0.1233  0.0689
  364loPI   C4A 5818  10.608   3.630   8.674  0.2485 -0.1106 -0.0341
  364loPI   C5A 5819  10.586   3.620   8.181  0.0913 -0.1356  0.0117
  364loPI   C6A 5820  10.232   3.576   7.892 -0.1075 -0.1134 -0.3044
  364loPI   C1B 5821  11.023   3.894   9.762  0.0854  0.1758 -0.0599
  364loPI   C2B 5822  11.109   3.930   9.314  0.4071 -0.1313 -0.1318
  364loPI   C3B 5823  10.901   3.975   8.830  0.0374 -0.1248 -0.0235
  364loPI   C4B 5824  10.993   3.900   8.432  0.1462 -0.0097  0.2702
  365loPI    C1 5825  10.772   7.130  11.055  0.1383  0.0383 -0.1195
  365loPI    C2 5826  10.594   6.873  11.306  0.1722 -0.0930 -0.2286
  365loPI    C3 5827  10.791   7.190  11.450  0.0732 -0.0910 -0.0960
  365loPI   PO4 5828  10.587   7.190  10.860 -0.1086 -0.1588 -0.0392
  365loPI   GL1 5829  10.487   7.087  10.439  0.1041 -0.1251  0.1045
  365loPI   GL2 5830  10.400   7.461  10.354  0.0403  0.2384 -0.0801
  365loPI   C1A 5831  10.573   6.898  10.062 -0.2797 -0.4703  0.2991
  365loPI   C2A 5832  10.581   6.902   9.668  0.1858  0.1509  0.2827
  365loPI   C3A 5833  10.465   6.983   9.225 -0.2524  0.1105  0.0454
  365loPI   C4A 5834  10.408   6.971   8.755  0.1527 -0.0631  0.5202
  365loPI   C5A 5835  10.138   6.839   8.332 -0.0961 -0.0582  0.1078
  365loPI   C6A 5836   9.854   6.644   8.052 -0.0031 -0.1916 -0.1000
  365loPI   C1B 5837  10.480   7.415   9.909  0.3616  0.2102  0.1271
  365loPI   C2B 5838  10.500   7.451   9.461  0.0991  0.3452  0.2810
  365loPI   C3B 5839  10.447   7.494   9.085 -0.1899 -0.0171  0.1905
  365loPI   C4B 5840  10.365   7.447   8.614 -0.1964 -0.0293  0.2134
  366loPI    C1 5841  11.393   0.191  10.888  0.2262 -0.0264  0.1063
  366loPI    C2 5842  11.262   0.064  11.244  0.0955  0.0718  0.0940
  366loPI    C3 5843  11.507   0.379  11.223 -0.1280  0.2477  0.0797
  366loPI   PO4 5844  11.226   0.182  10.737  0.1407  0.1302  0.0775
  366loPI   GL1 5845  11.182   0.262  10.364 -0.2268 -0.0735  0.1071
  366loPI   GL2 5846  11.534   0.412  10.280 -0.1061  0.0723  0.2978
  366loPI   C1A 5847  11.252   0.040  10.009  0.2352  0.1154  0.0401
  366loPI   C2A 5848  11.363  -0.003   9.585  0.0157 -0.1096 -0.1583
  366loPI   C3A 5849  11.307   0.013   9.239  0.1168  0.2264 -0.0791
  366loPI   C4A 5850  11.234   0.058   8.750 -0.1310 -0.1206 -0.0266
  366loPI   C5A 5851  11.217   0.003   8.343 -0.0582  0.0120  0.0827
  366loPI   C6A 5852  11.424   0.341   7.989  0.0315  0.1774 -0.0431
  366loPI   C1B 5853  11.703   0.380   9.822  0.1724 -0.1793  0.0285
  366loPI   C2B 5854  11.704   0.381   9.464  0.1603  0.1963  0.0915
  366loPI   C3B 5855  11.605   0.386   9.005 -0.0182  0.0041 -0.2053
  366loPI   C4B 5856  11.552   0.406   8.471 -0.1644  0.1817  0.1482
  367loPI    C1 5857   7.660   2.984  10.845 -0.1231  0.0787  0.0258
  367loPI    C2 5858   7.828   3.300  11.023 -0.1020 -0.0231  0.1886
  367loPI    C3 5859   7.503   3.129  11.182 -0.1362 -0.0600  0.0801
  367loPI   PO4 5860   7.725   3.029  10.535  0.0567  0.0495 -0.0701
  367loPI   GL1 5861   7.773   3.135  10.182  0.0170  0.0615  0.1296
  367loPI   GL2 5862   7.398   3.222  10.143  0.4345 -0.2752  0.0838
  367loPI   C1A 5863   7.821   3.211   9.704  0.1360 -0.0399  0.1030
  367loPI   C2A 5864   7.898   3.226   9.199  0.0559 -0.0710 -0.0885
  367loPI   C3A 5865   7.908   3.177   8.812 -0.1544  0.1898  0.0606
  367loPI   C4A 5866   7.788   3.190   8.387  0.0325 -0.0230  0.0161
  367loPI   C5A 5867   7.530   3.340   7.986 -0.0960 -0.2591  0.0720
  367loPI   C6A 5868   7.244   3.526   7.796 -0.0179 -0.0835  0.1029
  367loPI   C1B 5869   7.381   3.365   9.693  0.1171  0.2197 -0.2944
  367loPI   C2B 5870   7.398   3.409   9.288  0.1452  0.0829  0.0042
  367loPI   C3B 5871   7.368   3.455   8.934 -0.0501  0.0207 -0.1495
  367loPI   C4B 5872   7.326   3.356   8.554  0.1494  0.1863  0.1057
  368loPI    C1 5873   0.053   6.067  10.787 -0.2308  0.2313 -0.1288
  368loPI    C2 5874   0.085   5.791  11.075  0.2569  0.3159 -0.0927
  368loPI    C3 5875   0.047   6.177  11.172  0.3589  0.3382 -0.1403
  368loPI   PO4 5876   0.300   6.022  10.674  0.3252  0.2898 -0.0586
  368loPI   GL1 5877   0.419   6.121  10.239 -0.0019  0.1362 -0.3046
  368loPI   GL2 5878   0.758   6.239  10.138 -0.0936 -0.0601  0.2219
  368loPI   C1A 5879   0.291   6.406   9.813  0.2178 -0.0487  0.0739
  368loPI   C2A 5880   0.289   6.424   9.340  0.1125  0.0085  0.0826
  368loPI   C3A 5881   0.244   6.475   8.933 -0.1799 -0.0515 -0.0261
  368loPI   C4A 5882   0.394   6.603   8.544  0.1004 -0.1764  0.1235
  368loPI   C5A 5883   0.508   6.589   8.069  0.0653  0.3416  0.0024
  368loPI   C6A 5884   0.908   6.695   7.830 -0.2198  0.0649  0.1785
  368loPI   C1B 5885   0.775   6.214   9.701 -0.0624 -0.1261  0.0377
  368loPI   C2B 5886   0.806   6.221   9.315 -0.2689 -0.1942 -0.0675
  368loPI   C3B 5887   0.770   6.358   8.898 -0.1072 -0.2408  0.1617
  368loPI   C4B 5888   0.781   6.312   8.443 -0.1369 -0.0295  0.1018
  369loPI    C1 5889   2.632   5.590  11.074  0.0764 -0.1132 -0.1118
  369loPI    C2 5890   2.845   5.303  11.252  0.2564  0.2644  0.3018
  369loPI    C3 5891   2.879   5.682  11.375 -0.2029  0.4228 -0.0329
  369loPI   PO4 5892   2.589   5.490  10.809  0.0625 -0.0029 -0.2239
  369loPI   GL1 5893   2.750   5.682  10.459  0.0818  0.0016 -0.1835
  369loPI   GL2 5894   3.034   5.652  10.349 -0.0129  0.0938 -0.1106
  369loPI   C1A 5895   2.581   5.873  10.082 -0.2360 -0.2516  0.1935
  369loPI   C2A 5896   2.569   5.894   9.648 -0.0333  0.3165  0.0983
  369loPI   C3A 5897   2.612   5.805   9.232  0.0360 -0.2886  0.0380
  369loPI   C4A 5898   2.659   5.990   8.814  0.0625 -0.2761  0.0175
  369loPI   C5A 5899   2.594   5.970   8.372 -0.0065 -0.0224  0.1869
  369loPI   C6A 5900   2.366   5.835   8.065  0.0575  0.2683 -0.0669
  369loPI   C1B 5901   3.087   5.675   9.933  0.1866 -0.3007  0.0748
  369loPI   C2B 5902   3.092   5.641   9.440 -0.1053 -0.1342  0.2727
  369loPI   C3B 5903   3.098   5.677   9.037 -0.0536 -0.1436  0.1621
  369loPI   C4B 5904   3.172   5.692   8.559  0.1017 -0.1284  0.1270
  370loPI    C1 5905   8.910   7.663  11.110  0.0489 -0.0132 -0.0355
  370loPI    C2 5906   9.142   7.806  11.402 -0.0175 -0.0693  0.0454
  370loPI    C3 5907   8.745   7.795  11.450 -0.0382  0.0342 -0.0957
  370loPI   PO4 5908   8.885   7.784  10.891 -0.0672 -0.0448  0.0719
  370loPI   GL1 5909   9.120   7.790  10.459  0.1119 -0.0695 -0.0167
  370loPI   GL2 5910   8.990   8.065  10.350  0.2225 -0.1778  0.0586
  370loPI   C1A 5911   9.106   7.463   9.999 -0.2233  0.2101  0.0168
  370loPI   C2A 5912   9.064   7.435   9.453 -0.0588  0.0230  0.0669
  370loPI   C3A 5913   9.088   7.518   9.013  0.1634  0.2811 -0.1940
  370loPI   C4A 5914   8.984   7.573   8.635  0.1828  0.2170 -0.2661
  370loPI   C5A 5915   9.036   7.749   8.180 -0.0714 -0.0621 -0.1127
  370loPI   C6A 5916   9.043   8.172   7.918  0.0344 -0.0842 -0.0051
  370loPI   C1B 5917   9.000   7.965   9.923  0.0128  0.0981  0.0060
  370loPI   C2B 5918   9.008   7.933   9.419 -0.0421  0.0234 -0.2205
  370loPI   C3B 5919   8.965   8.011   8.942  0.2217  0.1719  0.2191
  370loPI   C4B 5920   8.877   8.099   8.533  0.0611  0.3002 -0.0520
  371loPI    C1 5921  11.506   3.274  10.897  0.1077  0.0737  0.0229
  371loPI    C2 5922  11.286   3.475  11.164  0.0258  0.0953 -0.0603
  371loPI    C3 5923  11.683   3.455  11.207  0.0220  0.1745  0.0135
  371loPI   PO4 5924  11.457   3.304  10.668 -0.3272  0.1224  0.2161
  371loPI   GL1 5925  11.599   3.184  10.303  0.1481 -0.0151  0.2690
  371loPI   GL2 5926  11.697   2.943  10.429 -0.2619 -0.4271  0.0219
  371loPI   C1A 5927  11.571   3.184   9.739  0.0115 -0.1086  0.0004
  371loPI   C2A 5928  11.594   3.313   9.229  0.2332 -0.2044 -0.0869
  371loPI   C3A 5929  11.580   3.293   8.816  0.0107 -0.1190  0.1135
  371loPI   C4A 5930  11.490   3.180   8.456  0.0444  0.2198  0.3695
  371loPI   C5A 5931  11.484   2.752   8.156 -0.1237 -0.0352  0.0228
  371loPI   C6A 5932  11.257   2.502   8.005  0.0235  0.1226  0.2093
  371loPI   C1B 5933  11.697   2.747  10.009 -0.0927  0.0628  0.0272
  371loPI   C2B 5934  11.647   2.715   9.547 -0.1403  0.1680 -0.1889
  371loPI   C3B 5935  11.737   2.686   9.015 -0.5023 -0.2385 -0.2599
  371loPI   C4B 5936  11.564   2.757   8.713 -0.1769  0.1319  0.1709
  372loPI    C1 5937  10.233   6.441  11.303  0.0881  0.0056  0.1052
  372loPI    C2 5938   9.969   6.689  11.473  0.0598  0.1467 -0.1400
  372loPI    C3 5939  10.316   6.610  11.655 -0.0009  0.2379  0.0168
  372loPI   PO4 5940  10.222   6.486  11.082  0.0417  0.1595 -0.0635
  372loPI   GL1 5941   9.973   6.449  10.728 -0.1389 -0.3417 -0.1662
  372loPI   GL2 5942   9.719   6.316  10.550  0.0851 -0.2681 -0.1283
  372loPI   C1A 5943  10.201   6.166  10.303  0.2449 -0.0267  0.4289
  372loPI   C2A 5944  10.173   6.119   9.921 -0.0999  0.0890 -0.0030
  372loPI   C3A 5945  10.200   6.142   9.488 -0.0879 -0.1041 -0.4060
  372loPI   C4A 5946  10.171   6.232   9.058  0.1325  0.1510  0.0596
  372loPI   C5A 5947   9.958   6.357   8.590 -0.3334 -0.3519 -0.1066
  372loPI   C6A 5948   9.897   6.072   8.262  0.0696 -0.0905  0.0086
  372loPI   C1B 5949   9.633   6.283  10.168  0.0496  0.3392 -0.0033
  372loPI   C2B 5950   9.739   6.283   9.765 -0.1744 -0.1883  0.0920
  372loPI   C3B 5951   9.714   6.347   9.348  0.1954  0.2023 -0.1064
  372loPI   C4B 5952   9.714   6.351   9.002  0.0370  0.1955  0.3517
  373loPI    C1 5953  15.917   1.432  10.909 -0.2478  0.1268  0.0831
  373loPI    C2 5954  16.292   1.572  10.913 -0.1487 -0.1265 -0.0992
  373loPI    C3 5955  16.136   1.408  11.243 -0.1026 -0.0140 -0.0208
  373loPI   PO4 5956  15.900   1.328  10.663 -0.0637  0.1249 -0.1401
  373loPI   GL1 5957  15.918   1.232  10.318 -0.1517 -0.0087  0.2046
  373loPI   GL2 5958  16.170   1.234  10.151  0.0224  0.0483  0.4028
  373loPI   C1A 5959  15.664   1.423  10.017  0.2126  0.0879  0.0013
  373loPI   C2A 5960  15.584   1.311   9.621 -0.1481  0.2127 -0.0806
  373loPI   C3A 5961  15.579   1.295   9.247  0.2313  0.1655  0.1291
  373loPI   C4A 5962  15.648   1.350   8.800  0.3178  0.3330 -0.0116
  373loPI   C5A 5963  15.611   1.538   8.363  0.2047 -0.1563 -0.1825
  373loPI   C6A 5964  15.330   1.587   8.097 -0.0440 -0.0974  0.1154
  373loPI   C1B 5965  16.143   1.248   9.739 -0.0911 -0.2209 -0.0783
  373loPI   C2B 5966  16.093   1.186   9.391  0.1545 -0.1302  0.1332
  373loPI   C3B 5967  16.113   1.179   9.002  0.0723 -0.2944  0.2715
  373loPI   C4B 5968  16.065   1.160   8.632 -0.0301 -0.1386 -0.0912
  374loPI    C1 5969  14.024   3.481  11.208 -0.0229 -0.1328  0.2683
  374loPI    C2 5970  14.381   3.489  11.389  0.1103  0.2419  0.0015
  374loPI    C3 5971  14.117   3.782  11.455 -0.1238  0.0049  0.1397
  374loPI   PO4 5972  13.992   3.435  11.011  0.0879  0.0454 -0.1081
  374loPI   GL1 5973  13.984   3.524  10.663  0.0542 -0.1381 -0.1481
  374loPI   GL2 5974  14.079   3.850  10.581  0.1252 -0.4143  0.1680
  374loPI   C1A 5975  13.898   3.449  10.201  0.5683  0.0560 -0.0902
  374loPI   C2A 5976  13.854   3.518   9.799  0.1777  0.2272  0.0213
  374loPI   C3A 5977  13.763   3.393   9.380  0.2064  0.1007  0.2138
  374loPI   C4A 5978  13.819   3.386   8.935 -0.3281  0.2188  0.0500
  374loPI   C5A 5979  13.753   3.393   8.481 -0.1232  0.0956  0.1735
  374loPI   C6A 5980  13.703   3.510   8.025 -0.0488  0.0345 -0.1767
  374loPI   C1B 5981  14.223   4.073  10.217 -0.0188  0.0651  0.1649
  374loPI   C2B 5982  14.063   4.235   9.829 -0.1501 -0.0174  0.0726
  374loPI   C3B 5983  14.115   4.279   9.352 -0.0048 -0.1879  0.2500
  374loPI   C4B 5984  14.082   4.263   8.999  0.2282 -0.0622 -0.1208
  375loPI    C1 5985  14.513   6.155  11.289  0.0010  0.0859 -0.0385
  375loPI    C2 5986  14.716   6.329  11.588 -0.2521  0.0094  0.1816
  375loPI    C3 5987  14.498   6.001  11.658 -0.2007 -0.0925 -0.1198
  375loPI   PO4 5988  14.434   6.335  11.117  0.0667 -0.2499 -0.1516
  375loPI   GL1 5989  14.449   6.342  10.641  0.1441 -0.0436  0.1045
  375loPI   GL2 5990  14.712   6.102  10.455 -0.0677 -0.5416  0.0001
  375loPI   C1A 5991  14.302   6.048  10.216  0.2635  0.1099  0.1519
  375loPI   C2A 5992  14.236   6.070   9.860 -0.0976  0.1040  0.1496
  375loPI   C3A 5993  14.254   6.063   9.410 -0.0144  0.2538  0.1617
  375loPI   C4A 5994  14.194   6.072   8.964  0.1831  0.2087 -0.2106
  375loPI   C5A 5995  14.307   6.082   8.569  0.0851 -0.0192  0.1576
  375loPI   C6A 5996  14.562   5.873   8.263 -0.3417 -0.1129  0.1033
  375loPI   C1B 5997  14.765   5.837  10.175  0.1868  0.1484 -0.2207
  375loPI   C2B 5998  14.708   5.850   9.766  0.1683 -0.2389  0.1436
  375loPI   C3B 5999  14.702   5.929   9.266  0.3341  0.0380  0.1939
  375loPI   C4B 6000  14.691   5.888   8.834  0.1143  0.1151  0.1381
  376loPI    C1 6001   1.162  11.479  11.032  0.1458  0.0594  0.0246
  376loPI    C2 6002   1.198  11.703  11.362  0.1265 -0.0016  0.0683
  376loPI    C3 6003   1.024  11.343  11.383 -0.0701  0.0849 -0.0487
  376loPI   PO4 6004   1.138  11.660  10.839  0.1121 -0.2138 -0.2694
  376loPI   GL1 6005   1.079  11.672  10.472 -0.0634 -0.0536  0.1833
  376loPI   GL2 6006   1.268  11.479  10.349 -0.1318 -0.2208 -0.1149
  376loPI   C1A 6007   1.166  11.836  10.048 -0.2137 -0.1253 -0.1071
  376loPI   C2A 6008   1.193  11.929   9.636 -0.3860  0.1092 -0.0713
  376loPI   C3A 6009   1.206  11.842   9.189 -0.0309 -0.0806  0.1202
  376loPI   C4A 6010   1.198  11.823   8.677  0.1704 -0.2607 -0.1732
  376loPI   C5A 6011   1.583  12.035   8.450 -0.1572 -0.1257  0.1348
  376loPI   C6A 6012   1.957  12.323   8.504 -0.2153 -0.0298  0.2055
  376loPI   C1B 6013   1.281  11.358   9.912 -0.0241  0.0889 -0.0260
  376loPI   C2B 6014   1.334  11.267   9.538 -0.0770  0.0117  0.1534
  376loPI   C3B 6015   1.276  11.295   9.102  0.0801  0.2954 -0.0840
  376loPI   C4B 6016   1.244  11.297   8.660  0.0800 -0.2136  0.1608
  377loPI    C1 6017   0.023   3.654  10.315 -0.1980 -0.0321 -0.0949
  377loPI    C2 6018  -0.295   3.649  10.072 -0.3022 -0.1411  0.0419
  377loPI    C3 6019  -0.332   3.531  10.453 -0.1535  0.0830  0.1284
  377loPI   PO4 6020   0.164   3.904  10.233  0.0391 -0.1376  0.1622
  377loPI   GL1 6021   0.150   3.886   9.842 -0.1385  0.1556 -0.0334
  377loPI   GL2 6022   0.505   3.872   9.665  0.0926 -0.1711 -0.1327
  377loPI   C1A 6023   0.083   4.070   9.409 -0.1321 -0.1061 -0.1188
  377loPI   C2A 6024   0.061   4.011   8.999 -0.0071  0.1936 -0.0290
  377loPI   C3A 6025   0.192   3.801   8.599  0.1579  0.2031 -0.0376
  377loPI   C4A 6026   0.219   3.693   8.196 -0.1076 -0.1388  0.0147
  377loPI   C5A 6027  -0.006   3.364   8.013 -0.0792  0.2513  0.0221
  377loPI   C6A 6028  -0.121   3.152   7.667  0.0571  0.0823 -0.4454
  377loPI   C1B 6029   0.659   3.874   9.270  0.0164  0.3330  0.1977
  377loPI   C2B 6030   0.621   3.803   8.842  0.0384 -0.1023 -0.1406
  377loPI   C3B 6031   0.657   3.631   8.442  0.0667  0.2008  0.0845
  377loPI   C4B 6032   0.561   3.403   8.029  0.2432 -0.0543 -0.0693
  378loPI    C1 6033   6.094  11.004  11.051  0.0488 -0.1008  0.1626
  378loPI    C2 6034   6.181  10.955  11.438 -0.2356 -0.2270  0.2131
  378loPI    C3 6035   5.802  10.930  11.314 -0.1272 -0.3613 -0.1002
  378loPI   PO4 6036   6.261  10.905  10.939 -0.1030 -0.1416 -0.0344
  378loPI   GL1 6037   6.422  10.921  10.627 -0.1425  0.2143  0.1459
  378loPI   GL2 6038   6.735  10.727  10.466 -0.0388 -0.3112  0.0427
  378loPI   C1A 6039   6.311  11.040  10.248 -0.0762  0.1177  0.5460
  378loPI   C2A 6040   6.317  10.938   9.784  0.1028 -0.3158 -0.2315
  378loPI   C3A 6041   6.299  10.934   9.384  0.2318  0.0028  0.1570
  378loPI   C4A 6042   6.245  11.033   9.004  0.3485 -0.1166 -0.0017
  378loPI   C5A 6043   6.168  11.054   8.614 -0.3403  0.1360  0.2513
  378loPI   C6A 6044   5.926  10.791   8.310  0.0368 -0.0116  0.0072
  378loPI   C1B 6045   6.755  10.812   9.997  0.1569 -0.0574 -0.0874
  378loPI   C2B 6046   6.848  10.739   9.579  0.0461  0.2772  0.2607
  378loPI   C3B 6047   6.759  10.830   9.278  0.4866  0.0096  0.0208
  378loPI   C4B 6048   6.735  10.828   8.873 -0.0543 -0.0342 -0.2652
  379loPI    C1 6049  15.668  15.399  11.069 -0.1289  0.2341  0.0885
  379loPI    C2 6050  15.415  15.374  11.378  0.1707  0.2437  0.3390
  379loPI    C3 6051  15.741  15.605  11.404  0.3483  0.0229  0.1224
  379loPI   PO4 6052  15.702  15.177  11.009 -0.0239 -0.0105 -0.2671
  379loPI   GL1 6053  15.577  14.971  10.688  0.1621  0.0163  0.1575
  379loPI   GL2 6054  15.657  14.699  10.633  0.1338 -0.1687  0.2385
  379loPI   C1A 6055  15.535  15.160  10.341  0.3129 -0.0733 -0.1535
  379loPI   C2A 6056  15.535  15.179   9.935  0.0987 -0.1572  0.1108
  379loPI   C3A 6057  15.504  15.079   9.464  0.0316  0.0041  0.0069
  379loPI   C4A 6058  15.410  15.083   9.029 -0.1350  0.2090 -0.0929
  379loPI   C5A 6059  15.390  14.934   8.611  0.0025 -0.0837  0.2018
  379loPI   C6A 6060  15.220  14.823   8.167 -0.1360  0.1602  0.3121
  379loPI   C1B 6061  15.528  14.638  10.266 -0.4470 -0.0688  0.0035
  379loPI   C2B 6062  15.536  14.678   9.841 -0.1425 -0.1569 -0.1188
  379loPI   C3B 6063  15.496  14.572   9.421 -0.0275  0.1402  0.2361
  379loPI   C4B 6064  15.458  14.560   8.966 -0.3544 -0.0400  0.4162
  380loPI    C1 6065   3.880  10.760  11.047 -0.0200  0.1786  0.0997
  380loPI    C2 6066   3.686  10.810  11.394  0.1572  0.0743  0.2157
  380loPI    C3 6067   3.814  10.447  11.287 -0.0194  0.0806 -0.0273
  380loPI   PO4 6068   3.759  10.967  10.845  0.2385 -0.0873  0.1210
  380loPI   GL1 6069   3.450  10.950  10.525  0.2182  0.0859 -0.1125
  380loPI   GL2 6070   3.742  11.128  10.399  0.0539 -0.2359 -0.1157
  380loPI   C1A 6071   3.258  10.649  10.293 -0.0156  0.3179 -0.0576
  380loPI   C2A 6072   3.228  10.646   9.865  0.0898  0.0612  0.0270
  380loPI   C3A 6073   3.231  10.671   9.390  0.0182 -0.1848 -0.1859
  380loPI   C4A 6074   3.195  10.639   8.960  0.1106  0.1423 -0.1080
  380loPI   C5A 6075   3.113  10.724   8.489 -0.0480 -0.1366  0.1839
  380loPI   C6A 6076   2.771  10.627   8.202  0.1700  0.0766  0.4975
  380loPI   C1B 6077   3.592  11.024   9.984  0.1562  0.0513  0.2969
  380loPI   C2B 6078   3.619  11.015   9.589  0.0445 -0.1505  0.0888
  380loPI   C3B 6079   3.599  11.059   9.100  0.5133 -0.1358  0.0081
  380loPI   C4B 6080   3.537  11.084   8.688 -0.1937  0.0767  0.0789
  381loPI    C1 6081   7.171   0.959  10.794  0.0448 -0.0490  0.1538
  381loPI    C2 6082   7.558   0.903  10.713  0.0766 -0.0412  0.2978
  381loPI    C3 6083   7.333   0.597  10.837 -0.0111 -0.0899  0.0260
  381loPI   PO4 6084   7.083   1.035  10.526  0.1568 -0.0860 -0.1704
  381loPI   GL1 6085   7.364   0.956  10.152 -0.2819  0.1272 -0.1197
  381loPI   GL2 6086   7.087   0.926  10.045  0.1544  0.2845 -0.0491
  381loPI   C1A 6087   7.501   1.021   9.691 -0.1786  0.0039 -0.0819
  381loPI   C2A 6088   7.413   0.906   9.261  0.0998  0.1917  0.0321
  381loPI   C3A 6089   7.244   1.023   8.825  0.1813  0.0339 -0.0193
  381loPI   C4A 6090   7.382   0.875   8.410 -0.0743  0.2308  0.0051
  381loPI   C5A 6091   7.601   1.134   8.083 -0.1235 -0.0012  0.1995
  381loPI   C6A 6092   7.938   1.427   8.073 -0.0367 -0.1492  0.0178
  381loPI   C1B 6093   6.997   1.038   9.677  0.1219 -0.0207 -0.0349
  381loPI   C2B 6094   7.000   1.156   9.303  0.3845 -0.1806 -0.3612
  381loPI   C3B 6095   6.779   1.044   8.904  0.0186 -0.0128  0.2358
  381loPI   C4B 6096   6.859   1.169   8.499 -0.0168 -0.0675 -0.0336
  382loPI    C1 6097   4.154  13.678  11.152 -0.0917 -0.0815  0.2316
  382loPI    C2 6098   4.450  13.705  11.421 -0.0242 -0.2163  0.1719
  382loPI    C3 6099   4.127  13.939  11.454  0.2761  0.2354 -0.0001
  382loPI   PO4 6100   4.145  13.447  11.089  0.1621  0.2749  0.1448
  382loPI   GL1 6101   4.199  13.215  10.693  0.1479 -0.1114 -0.0989
  382loPI   GL2 6102   4.504  13.035  10.658  0.1797  0.1154 -0.0375
  382loPI   C1A 6103   4.189  13.304  10.228 -0.0633 -0.1275 -0.0985
  382loPI   C2A 6104   4.100  13.224   9.851  0.0803 -0.3431  0.1171
  382loPI   C3A 6105   4.025  13.175   9.379 -0.2397  0.0529 -0.0884
  382loPI   C4A 6106   4.035  13.181   8.955  0.0044 -0.3475  0.0015
  382loPI   C5A 6107   3.964  13.336   8.511 -0.0299 -0.0363  0.1712
  382loPI   C6A 6108   3.963  13.223   8.108 -0.1121  0.0162 -0.2291
  382loPI   C1B 6109   4.662  13.050  10.199 -0.0804 -0.3273  0.0622
  382loPI   C2B 6110   4.575  13.065   9.774 -0.2526  0.0955 -0.1810
  382loPI   C3B 6111   4.507  13.056   9.351 -0.1445  0.0600 -0.4215
  382loPI   C4B 6112   4.522  13.035   8.906  0.0971  0.2829 -0.0000
  383loPI    C1 6113   5.596   3.536  10.771  0.0785  0.0175 -0.0043
  383loPI    C2 6114   5.486   3.743  11.095  0.1434 -0.2318  0.1803
  383loPI    C3 6115   5.744   3.440  11.130  0.2049 -0.2167 -0.1167
  383loPI   PO4 6116   5.301   3.414  10.586 -0.0408 -0.3436  0.2513
  383loPI   GL1 6117   5.067   3.384  10.191  0.0295  0.1428  0.0036
  383loPI   GL2 6118   4.637   3.491  10.052 -0.3211  0.3194 -0.1525
  383loPI   C1A 6119   5.179   3.306   9.786 -0.0538  0.1477 -0.0231
  383loPI   C2A 6120   5.178   3.270   9.367  0.1715  0.2959 -0.2200
  383loPI   C3A 6121   5.176   3.335   8.981 -0.1150  0.0762  0.1591
  383loPI   C4A 6122   5.263   3.209   8.559 -0.0497 -0.3342 -0.1743
  383loPI   C5A 6123   5.121   3.306   8.120 -0.2285 -0.1151 -0.4142
  383loPI   C6A 6124   4.904   3.363   7.708  0.1818  0.1542  0.4313
  383loPI   C1B 6125   4.686   3.522   9.634 -0.2702 -0.0572  0.0332
  383loPI   C2B 6126   4.679   3.536   9.258 -0.1374  0.1174 -0.0684
  383loPI   C3B 6127   4.686   3.453   8.899 -0.3056  0.1806 -0.2259
  383loPI   C4B 6128   4.710   3.582   8.440 -0.2982 -0.0587 -0.1012
  384loPI    C1 6129   7.173   6.121  11.431  0.0654 -0.0402  0.0628
  384loPI    C2 6130   7.467   6.328  11.605  0.0034  0.0665  0.0418
  384loPI    C3 6131   7.147   6.219  11.818  0.0988 -0.1289  0.0877
  384loPI   PO4 6132   7.204   6.137  11.170 -0.1715 -0.0764  0.1047
  384loPI   GL1 6133   6.988   6.266  10.811  0.2359 -0.0743  0.0208
  384loPI   GL2 6134   7.095   5.922  10.718 -0.5168  0.2214 -0.2028
  384loPI   C1A 6135   7.038   6.361  10.378 -0.0167  0.1316 -0.2864
  384loPI   C2A 6136   6.953   6.392   9.966  0.3187  0.1286  0.0092
  384loPI   C3A 6137   6.984   6.397   9.504 -0.0939 -0.2229  0.1476
  384loPI   C4A 6138   6.994   6.367   9.111  0.0070  0.0843 -0.0981
  384loPI   C5A 6139   7.156   6.470   8.624  0.0142  0.2619 -0.0329
  384loPI   C6A 6140   7.575   6.718   8.475 -0.1763  0.0561 -0.1252
  384loPI   C1B 6141   7.120   5.827  10.308  0.2147 -0.1263 -0.1978
  384loPI   C2B 6142   7.034   5.877   9.984 -0.1431  0.0558  0.0313
  384loPI   C3B 6143   7.091   5.916   9.581  0.0322  0.1865  0.0661
  384loPI   C4B 6144   7.068   5.881   9.251  0.1315  0.0245  0.0373
  385loPI    C1 6145   4.344   3.322  10.684  0.0615  0.1936 -0.0691
  385loPI    C2 6146   4.543   3.233  11.020  0.1403 -0.1417 -0.2005
  385loPI    C3 6147   4.143   3.219  11.014  0.1207  0.2317 -0.0211
  385loPI   PO4 6148   4.479   3.163  10.470 -0.0146  0.0657  0.1104
  385loPI   GL1 6149   4.576   2.818  10.235 -0.0762 -0.0245 -0.0550
  385loPI   GL2 6150   4.911   2.691  10.278 -0.2213  0.1520  0.0227
  385loPI   C1A 6151   4.709   3.047   9.894 -0.1732 -0.0156  0.0910
  385loPI   C2A 6152   4.763   2.986   9.498 -0.0469 -0.1923  0.1791
  385loPI   C3A 6153   4.773   3.033   9.125  0.0401 -0.0932  0.3986
  385loPI   C4A 6154   4.805   3.000   8.697 -0.0981  0.0529  0.2057
  385loPI   C5A 6155   4.729   2.978   8.290 -0.0053 -0.2281  0.1491
  385loPI   C6A 6156   4.475   2.783   8.079  0.0981  0.2488  0.1122
  385loPI   C1B 6157   4.854   2.477   9.763 -0.0469 -0.2485 -0.0158
  385loPI   C2B 6158   4.863   2.482   9.349 -0.0057 -0.4175  0.2475
  385loPI   C3B 6159   4.857   2.433   8.942 -0.0159 -0.1321  0.1122
  385loPI   C4B 6160   4.859   2.473   8.492  0.4006  0.1316  0.2049
  386loPI    C1 6161  15.822   5.225  10.909 -0.0539  0.1150 -0.0530
  386loPI    C2 6162  15.523   5.085  11.135  0.0129 -0.0155 -0.0450
  386loPI    C3 6163  15.645   5.463  11.177  0.2719 -0.1406  0.4042
  386loPI   PO4 6164  15.753   5.073  10.688 -0.2122  0.1400  0.1130
  386loPI   GL1 6165  15.583   4.736  10.280 -0.0968 -0.1755 -0.0781
  386loPI   GL2 6166  15.675   4.995  10.227 -0.0305  0.2914  0.2175
  386loPI   C1A 6167  15.329   4.689   9.808 -0.2810  0.0962  0.0813
  386loPI   C2A 6168  15.368   4.705   9.364  0.0738  0.3145  0.3657
  386loPI   C3A 6169  15.338   4.702   8.902 -0.1193 -0.2102  0.1109
  386loPI   C4A 6170  15.210   4.761   8.593 -0.0532  0.1076 -0.0631
  386loPI   C5A 6171  15.028   4.684   8.250  0.2353 -0.0915  0.0288
  386loPI   C6A 6172  14.749   4.497   7.873 -0.2419 -0.1506  0.2884
  386loPI   C1B 6173  15.696   5.006   9.751  0.4396  0.1092  0.0176
  386loPI   C2B 6174  15.709   5.053   9.247 -0.3406  0.1001 -0.0559
  386loPI   C3B 6175  15.732   5.037   8.817 -0.0379 -0.0603 -0.0432
  386loPI   C4B 6176  15.750   5.028   8.350  0.1198 -0.1165  0.0656
  387loPI    C1 6177   9.823  11.261  11.323  0.0980  0.0914 -0.1689
  387loPI    C2 6178   9.554  11.043  11.122 -0.0182 -0.0449  0.1288
  387loPI    C3 6179   9.658  10.939  11.494  0.1819  0.2128  0.1476
  387loPI   PO4 6180  10.064  11.303  11.039  0.2759 -0.2376 -0.0445
  387loPI   GL1 6181  10.061  11.479  10.690 -0.0462  0.0306  0.0250
  387loPI   GL2 6182  10.280  11.249  10.548 -0.1681 -0.2508  0.3168
  387loPI   C1A 6183  10.146  11.770  10.346 -0.0698 -0.0416 -0.0004
  387loPI   C2A 6184  10.157  11.824   9.819  0.0604 -0.1472  0.1383
  387loPI   C3A 6185  10.135  11.877   9.364 -0.1952 -0.1919 -0.2137
  387loPI   C4A 6186  10.186  11.834   8.964  0.2261  0.0170  0.1904
  387loPI   C5A 6187  10.234  11.850   8.644  0.3016  0.2282  0.1918
  387loPI   C6A 6188  10.607  11.587   8.395 -0.1177 -0.0556  0.0545
  387loPI   C1B 6189  10.282  11.360  10.087  0.0197  0.1200 -0.1632
  387loPI   C2B 6190  10.313  11.383   9.625  0.1463  0.2585 -0.0105
  387loPI   C3B 6191  10.188  11.315   9.222  0.0497 -0.4600 -0.1266
  387loPI   C4B 6192  10.224  11.375   8.741  0.0677 -0.1511 -0.1458
  388loPI    C1 6193   8.036  17.678  10.732 -0.0889  0.1690  0.2783
  388loPI    C2 6194   8.257  17.408  10.927 -0.0439  0.0787  0.1044
  388loPI    C3 6195   7.950  17.587  11.111 -0.0074 -0.0115  0.2542
  388loPI   PO4 6196   8.106  17.558  10.454  0.0515 -0.0114 -0.1515
  388loPI   GL1 6197   7.992  17.262  10.126 -0.3866  0.1104  0.1205
  388loPI   GL2 6198   7.831  17.183  10.126  0.0670 -0.0059  0.3134
  388loPI   C1A 6199   8.092  17.188   9.631 -0.1109  0.2501 -0.3313
  388loPI   C2A 6200   8.064  17.127   9.137 -0.1216 -0.2975 -0.0395
  388loPI   C3A 6201   8.100  17.103   8.718 -0.0500 -0.0932 -0.0174
  388loPI   C4A 6202   7.954  17.243   8.264  0.2008 -0.3332  0.2164
  388loPI   C5A 6203   8.003  17.403   7.862 -0.5000  0.0827  0.2399
  388loPI   C6A 6204   8.049  17.728   7.598  0.0141 -0.4302 -0.0188
  388loPI   C1B 6205   7.624  17.273   9.742 -0.2094 -0.0472  0.0429
  388loPI   C2B 6206   7.576  17.209   9.338 -0.3058 -0.3771 -0.0371
  388loPI   C3B 6207   7.578  17.227   9.000  0.0139  0.4019  0.0187
  388loPI   C4B 6208   7.548  17.248   8.538 -0.1808  0.1964 -0.2163
  389loPI    C1 6209  17.129  15.270  11.306 -0.0436  0.1973 -0.0011
  389loPI    C2 6210  17.445  15.394  11.518  0.0607  0.0076 -0.0430
  389loPI    C3 6211  17.093  15.335  11.699  0.1889 -0.3063  0.1116
  389loPI   PO4 6212  17.205  15.408  11.094 -0.1535 -0.2885  0.0546
  389loPI   GL1 6213  17.219  15.342  10.725  0.2921  0.3580  0.1150
  389loPI   GL2 6214  17.337  14.960  10.533  0.0524  0.0181 -0.1275
  389loPI   C1A 6215  17.267  15.413  10.270 -0.0309  0.0683  0.0150
  389loPI   C2A 6216  17.148  15.412   9.851 -0.1179 -0.2011 -0.1481
  389loPI   C3A 6217  17.277  15.479   9.386 -0.2306  0.0858 -0.1632
  389loPI   C4A 6218  17.187  15.509   8.883  0.1769  0.2105 -0.0037
  389loPI   C5A 6219  17.090  15.445   8.486  0.0638  0.1323 -0.0133
  389loPI   C6A 6220  17.065  15.542   8.052  0.2074 -0.3052  0.1981
  389loPI   C1B 6221  17.276  14.934  10.100  0.2059 -0.0397  0.0079
  389loPI   C2B 6222  17.321  14.996   9.659 -0.0155 -0.1726 -0.0943
  389loPI   C3B 6223  17.301  14.923   9.287 -0.0323  0.2214  0.0075
  389loPI   C4B 6224  17.195  14.917   8.881 -0.1541 -0.1526  0.2122
  390loPI    C1 6225   6.437   0.358  10.671 -0.1633  0.0250 -0.0630
  390loPI    C2 6226   6.370   0.704  10.861 -0.2817 -0.0198 -0.0224
  390loPI    C3 6227   6.343   0.358  11.060 -0.1776 -0.0536 -0.0664
  390loPI   PO4 6228   6.393   0.399  10.477 -0.0236  0.0998  0.1028
  390loPI   GL1 6229   6.629   0.502  10.149  0.1174 -0.1573  0.0189
  390loPI   GL2 6230   6.473   0.210  10.028  0.3216 -0.1188  0.1262
  390loPI   C1A 6231   6.615   0.714   9.770 -0.1572  0.0024 -0.0037
  390loPI   C2A 6232   6.560   0.796   9.295  0.2113  0.4411 -0.1563
  390loPI   C3A 6233   6.470   0.671   8.846 -0.1780  0.0356  0.1872
  390loPI   C4A 6234   6.463   0.820   8.445 -0.0232 -0.1747  0.0766
  390loPI   C5A 6235   6.290   0.743   7.917  0.2103  0.1798  0.2521
  390loPI   C6A 6236   5.912   0.495   7.672 -0.1290  0.2086 -0.0294
  390loPI   C1B 6237   6.585   0.250   9.581  0.0834 -0.0556 -0.0897
  390loPI   C2B 6238   6.539   0.162   9.167  0.1356 -0.2869 -0.2973
  390loPI   C3B 6239   6.619   0.141   8.748  0.2414 -0.3570 -0.1419
  390loPI   C4B 6240   6.384   0.328   8.393  0.0610  0.0457 -0.1386
  391loPI    C1 6241   0.996   3.854  10.580 -0.3242  0.0534  0.2458
  391loPI    C2 6242   1.252   3.585  10.730  0.1066  0.0724 -0.4119
  391loPI    C3 6243   1.228   3.951  10.891 -0.2645 -0.2432  0.2966
  391loPI   PO4 6244   1.046   3.815  10.357 -0.0771 -0.0971  0.0276
  391loPI   GL1 6245   1.106   3.648   9.987  0.2980  0.0289  0.2256
  391loPI   GL2 6246   1.365   3.870   9.913  0.0341 -0.2786  0.1284
  391loPI   C1A 6247   0.984   3.596   9.584 -0.1669 -0.0396  0.1077
  391loPI   C2A 6248   1.072   3.595   9.222 -0.1497 -0.1769  0.1442
  391loPI   C3A 6249   1.086   3.535   8.843 -0.1012  0.0475 -0.1506
  391loPI   C4A 6250   1.129   3.466   8.476 -0.0856  0.0936 -0.0936
  391loPI   C5A 6251   1.031   3.530   8.147 -0.2576 -0.2424 -0.1463
  391loPI   C6A 6252   0.660   3.890   7.981  0.1102 -0.1367  0.0579
  391loPI   C1B 6253   1.482   3.893   9.534 -0.2977  0.0702 -0.2933
  391loPI   C2B 6254   1.562   3.925   9.143  0.0848 -0.3648  0.0114
  391loPI   C3B 6255   1.488   3.846   8.698  0.0594 -0.1003 -0.3266
  391loPI   C4B 6256   1.525   3.778   8.292 -0.0371 -0.1013 -0.2894
  392loPI    C1 6257  12.669  17.473  11.383  0.0816 -0.0401  0.1495
  392loPI    C2 6258  13.032  17.626  11.452  0.0071  0.1644  0.0947
  392loPI    C3 6259  12.787  17.547  11.758  0.1514 -0.1134  0.1423
  392loPI   PO4 6260  12.746  17.398  11.126 -0.0051  0.2872  0.0209
  392loPI   GL1 6261  12.700  17.673  10.703 -0.2992  0.0968 -0.1970
  392loPI   GL2 6262  12.710  17.986  10.595 -0.1304 -0.0751  0.1145
  392loPI   C1A 6263  12.674  17.592  10.320 -0.0173 -0.1466 -0.0338
  392loPI   C2A 6264  12.775  17.494   9.851 -0.0266  0.0563 -0.2395
  392loPI   C3A 6265  12.797  17.432   9.429  0.0097 -0.0859 -0.2431
  392loPI   C4A 6266  12.752  17.587   9.071  0.2271 -0.0543  0.0266
  392loPI   C5A 6267  12.744  17.621   8.646  0.1140 -0.1132  0.2413
  392loPI   C6A 6268  12.612  17.674   8.211 -0.1042 -0.0257 -0.1879
  392loPI   C1B 6269  12.606  18.053  10.211 -0.0975 -0.1697  0.1621
  392loPI   C2B 6270  12.654  17.982   9.750 -0.0421 -0.2057 -0.0051
  392loPI   C3B 6271  12.653  18.032   9.316  0.0497  0.1772 -0.2373
  392loPI   C4B 6272  12.611  18.039   8.889  0.1344 -0.1640  0.0328
  393loPI    C1 6273   1.087  16.676  10.990  0.2025  0.2573 -0.1912
  393loPI    C2 6274   1.308  16.932  11.204  0.0531 -0.0308  0.3269
  393loPI    C3 6275   0.916  16.899  11.275  0.0487 -0.3180  0.1849
  393loPI   PO4 6276   1.115  16.742  10.759 -0.1213  0.1830  0.2974
  393loPI   GL1 6277   0.811  16.787  10.427  0.4653 -0.1516  0.0486
  393loPI   GL2 6278   0.502  16.503  10.396 -0.0759 -0.1643 -0.0570
  393loPI   C1A 6279   0.697  16.847  10.036  0.1498  0.3959 -0.3466
  393loPI   C2A 6280   0.754  16.851   9.670 -0.0845  0.3054 -0.0681
  393loPI   C3A 6281   0.773  16.861   9.238  0.1285  0.0974  0.0327
  393loPI   C4A 6282   0.772  16.728   8.809 -0.0495  0.0843  0.0002
  393loPI   C5A 6283   0.630  16.566   8.317  0.2636  0.0015  0.0074
  393loPI   C6A 6284   0.697  16.485   7.930  0.1457  0.0184  0.1904
  393loPI   C1B 6285   0.407  16.468  10.038  0.1222 -0.1402  0.0179
  393loPI   C2B 6286   0.364  16.485   9.590  0.3185  0.2238  0.2087
  393loPI   C3B 6287   0.421  16.444   9.179  0.1929 -0.1592  0.1272
  393loPI   C4B 6288   0.367  16.385   8.715 -0.1660 -0.1197 -0.1831
  394loPI    C1 6289   9.553  15.148  10.800  0.3037  0.1930 -0.1599
  394loPI    C2 6290   9.812  14.890  10.962  0.1758  0.1918  0.0459
  394loPI    C3 6291   9.491  15.009  11.169  0.0097  0.1925 -0.2070
  394loPI   PO4 6292   9.670  15.331  10.743  0.1722  0.0462  0.0900
  394loPI   GL1 6293   9.680  15.491  10.264 -0.1652 -0.2352 -0.1733
  394loPI   GL2 6294   9.629  15.104  10.088  0.2092 -0.0789  0.0043
  394loPI   C1A 6295   9.637  15.545   9.849  0.0123  0.1112 -0.1190
  394loPI   C2A 6296   9.625  15.381   9.457  0.0412  0.3223 -0.0375
  394loPI   C3A 6297   9.554  15.375   9.033  0.1809  0.0360 -0.0085
  394loPI   C4A 6298   9.744  15.308   8.606  0.0072 -0.1978 -0.1280
  394loPI   C5A 6299  10.097  15.323   8.376  0.1989 -0.0959 -0.0308
  394loPI   C6A 6300  10.260  15.422   8.066 -0.0875  0.0162  0.3007
  394loPI   C1B 6301   9.754  14.926   9.767 -0.3079  0.3387  0.2476
  394loPI   C2B 6302   9.744  14.914   9.353  0.0124 -0.1337  0.1210
  394loPI   C3B 6303   9.669  14.892   8.884  0.1848  0.0347  0.0206
  394loPI   C4B 6304   9.793  14.860   8.420 -0.0793  0.1839 -0.0603
  395loPI    C1 6305   5.857  17.595  10.575  0.0337  0.2625 -0.0133
  395loPI    C2 6306   5.513  17.440  10.709  0.2142 -0.1975 -0.0628
  395loPI    C3 6307   5.764  17.619  10.964 -0.0004  0.0287 -0.0057
  395loPI   PO4 6308   5.823  17.452  10.312 -0.1634 -0.2433  0.1686
  395loPI   GL1 6309   5.930  17.626   9.938  0.0598  0.1625  0.1657
  395loPI   GL2 6310   6.056  17.898   9.918  0.0977 -0.0947 -0.0064
  395loPI   C1A 6311   5.733  17.637   9.587 -0.0585 -0.1760 -0.0163
  395loPI   C2A 6312   5.680  17.542   9.140  0.1135 -0.1313 -0.2840
  395loPI   C3A 6313   5.637  17.366   8.734  0.3008  0.0502  0.2055
  395loPI   C4A 6314   5.548  17.339   8.292 -0.0971 -0.0136  0.0134
  395loPI   C5A 6315   5.133  17.462   8.088  0.0814  0.0914  0.1731
  395loPI   C6A 6316   4.839  17.308   7.815  0.0413  0.1044  0.1912
  395loPI   C1B 6317   6.166  17.914   9.442  0.1996 -0.0148 -0.1685
  395loPI   C2B 6318   6.188  17.849   9.030  0.0621 -0.1245  0.0691
  395loPI   C3B 6319   6.192  17.836   8.568 -0.1209 -0.0573 -0.2254
  395loPI   C4B 6320   6.120  18.026   8.062  0.2129 -0.2128 -0.2467
  396loPI    C1 6321   0.407   1.817  10.702  0.0137 -0.0464 -0.0935
  396loPI    C2 6322   0.703   1.766  10.967  0.0776  0.1430 -0.1271
  396loPI    C3 6323   0.399   1.506  10.954  0.2415 -0.0522 -0.0914
  396loPI   PO4 6324   0.534   1.850  10.452  0.0491 -0.1022 -0.3391
  396loPI   GL1 6325   0.505   1.910  10.049 -0.2757  0.0431  0.0244
  396loPI   GL2 6326   0.688   1.660   9.949  0.1407 -0.0006 -0.1606
  396loPI   C1A 6327   0.374   1.869   9.608 -0.1271  0.4179  0.2189
  396loPI   C2A 6328   0.532   1.787   9.195  0.0341  0.0561  0.3551
  396loPI   C3A 6329   0.381   1.695   8.799 -0.0750  0.1684  0.0821
  396loPI   C4A 6330   0.056   1.581   8.391  0.1693  0.1792  0.3373
  396loPI   C5A 6331   0.084   1.181   8.160  0.1179  0.1587  0.1314
  396loPI   C6A 6332   0.029   0.736   7.962 -0.1555 -0.0518 -0.2443
  396loPI   C1B 6333   0.948   1.861   9.658 -0.5919 -0.1474 -0.1189
  396loPI   C2B 6334   0.990   1.674   9.310  0.1147  0.0130 -0.1214
  396loPI   C3B 6335   0.836   1.533   8.924  0.1894 -0.0387  0.5510
  396loPI   C4B 6336   0.900   1.514   8.534 -0.0709 -0.3998  0.2858
  397loPI    C1 6337  17.144   5.536  10.836  0.0208 -0.0232 -0.0203
  397loPI    C2 6338  17.145   5.226  11.089 -0.1568  0.0480  0.0694
  397loPI    C3 6339  17.184   5.598  11.229 -0.1369  0.0797 -0.0200
  397loPI   PO4 6340  17.304   5.524  10.668 -0.1262  0.2396 -0.0450
  397loPI   GL1 6341  17.348   5.725  10.362  0.1038 -0.4556  0.2321
  397loPI   GL2 6342  17.465   5.362  10.250  0.1209 -0.1917  0.1437
  397loPI   C1A 6343  17.482   5.798   9.998 -0.0444 -0.1552 -0.1074
  397loPI   C2A 6344  17.426   5.782   9.623 -0.1679  0.0944 -0.1574
  397loPI   C3A 6345  17.481   5.771   9.229 -0.2114  0.1389  0.0981
  397loPI   C4A 6346  17.552   5.906   8.785  0.1007  0.0791 -0.3441
  397loPI   C5A 6347  17.436   5.857   8.411  0.4434  0.1315  0.1084
  397loPI   C6A 6348  17.620   5.560   8.038  0.1090  0.2591 -0.3296
  397loPI   C1B 6349  17.152   5.456   9.948 -0.0302 -0.3378 -0.1720
  397loPI   C2B 6350  17.037   5.450   9.631 -0.0447 -0.1942 -0.0081
  397loPI   C3B 6351  17.062   5.541   9.233 -0.2210  0.2708 -0.0714
  397loPI   C4B 6352  17.130   5.579   8.758 -0.0952 -0.0414  0.2352
  398loPI    C1 6353  15.678   6.172  10.914 -0.0419 -0.2825  0.0479
  398loPI    C2 6354  15.367   6.412  10.990  0.0346 -0.1185 -0.1485
  398loPI    C3 6355  15.564   6.238  11.291 -0.0522  0.0262 -0.0067
  398loPI   PO4 6356  15.811   6.296  10.689  0.3784  0.0457 -0.0984
  398loPI   GL1 6357  15.768   6.593  10.353 -0.5143  0.0099 -0.1269
  398loPI   GL2 6358  16.047   6.756  10.179  0.2820 -0.0785 -0.1154
  398loPI   C1A 6359  15.633   6.580   9.941  0.1996 -0.0229 -0.0460
  398loPI   C2A 6360  15.512   6.615   9.514  0.0480 -0.0967  0.1340
  398loPI   C3A 6361  15.531   6.546   9.085  0.0080  0.0584 -0.0263
  398loPI   C4A 6362  15.505   6.592   8.604 -0.3337 -0.0827  0.2105
  398loPI   C5A 6363  15.426   6.604   8.192  0.5277 -0.3876  0.1917
  398loPI   C6A 6364  15.015   6.515   7.921  0.0229  0.0626 -0.0217
  398loPI   C1B 6365  15.920   6.901   9.761  0.1137  0.0985 -0.1727
  398loPI   C2B 6366  15.893   6.899   9.335  0.0254 -0.1289  0.0319
  398loPI   C3B 6367  15.875   6.906   8.923 -0.1881  0.2077 -0.4950
  398loPI   C4B 6368  15.899   6.857   8.529  0.1899  0.3091 -0.1099
  399loPI    C1 6369   1.880   0.608  10.806  0.0050  0.3516  0.0897
  399loPI    C2 6370   1.536   0.412  10.749  0.2101  0.0245 -0.0498
  399loPI    C3 6371   1.549   0.722  11.000 -0.1346 -0.1015  0.1308
  399loPI   PO4 6372   1.971   0.576  10.571 -0.3889 -0.1606  0.2848
  399loPI   GL1 6373   2.009   0.875  10.203  0.1406 -0.0134  0.2960
  399loPI   GL2 6374   2.335   0.729  10.269  0.0639  0.0755  0.1172
  399loPI   C1A 6375   1.838   0.832   9.771 -0.0584  0.0305 -0.1277
  399loPI   C2A 6376   1.832   0.805   9.331 -0.0164  0.0345  0.1624
  399loPI   C3A 6377   2.009   0.718   8.921  0.0590 -0.0209  0.1316
  399loPI   C4A 6378   2.011   0.797   8.481 -0.1654  0.3919 -0.1257
  399loPI   C5A 6379   1.992   0.540   8.123 -0.1136  0.0252  0.0028
  399loPI   C6A 6380   1.988   0.300   7.751  0.3779  0.2854  0.1564
  399loPI   C1B 6381   2.305   0.741   9.732  0.0760  0.0028 -0.3529
  399loPI   C2B 6382   2.362   0.617   9.281  0.0560 -0.2518  0.1755
  399loPI   C3B 6383   2.491   0.566   8.927 -0.1721  0.1898 -0.0310
  399loPI   C4B 6384   2.461   0.551   8.532  0.0368  0.1918  0.0105
  400loPI    C1 6385   1.255  11.053  10.743  0.0032  0.2285 -0.1050
  400loPI    C2 6386   1.551  11.314  10.674  0.0576  0.1714 -0.0874
  400loPI    C3 6387   1.508  11.150  11.037 -0.0421  0.2379 -0.0690
  400loPI   PO4 6388   1.169  10.922  10.525  0.2824 -0.2441  0.0614
  400loPI   GL1 6389   0.909  11.085  10.297 -0.0410  0.2386  0.0343
  400loPI   GL2 6390   0.578  11.032  10.286  0.2712  0.1165 -0.2492
  400loPI   C1A 6391   0.984  11.017   9.802  0.1683 -0.1664  0.0553
  400loPI   C2A 6392   0.924  10.990   9.441 -0.0286  0.2037  0.1543
  400loPI   C3A 6393   0.926  10.961   9.019  0.2501 -0.2541  0.0718
  400loPI   C4A 6394   0.905  10.924   8.585  0.2240  0.2995  0.0183
  400loPI   C5A 6395   0.965  10.852   8.129  0.0445 -0.2051  0.1207
  400loPI   C6A 6396   1.150  10.948   7.725 -0.2578  0.0573  0.0992
  400loPI   C1B 6397   0.392  11.214   9.871 -0.2485  0.0899 -0.1396
  400loPI   C2B 6398   0.358  11.183   9.370 -0.3504  0.2177  0.0060
  400loPI   C3B 6399   0.364  11.127   8.961 -0.3074 -0.0435  0.0097
  400loPI   C4B 6400   0.402  11.155   8.522  0.2305 -0.1064 -0.0623
  401loPI    C1 6401  15.667   3.774  10.606 -0.0992  0.0268 -0.1019
  401loPI    C2 6402  15.327   3.639  10.766 -0.0312 -0.2117 -0.1548
  401loPI    C3 6403  15.630   3.747  11.003 -0.1919  0.1373 -0.1028
  401loPI   PO4 6404  15.625   3.874  10.366  0.1939 -0.0923  0.0405
  401loPI   GL1 6405  15.439   4.036  10.198  0.0364  0.2252 -0.5048
  401loPI   GL2 6406  15.522   4.304  10.067 -0.4246  0.0543  0.0924
  401loPI   C1A 6407  15.189   3.881   9.850  0.5095 -0.0414 -0.1966
  401loPI   C2A 6408  15.055   3.852   9.425  0.1031 -0.0911 -0.0308
  401loPI   C3A 6409  15.059   3.887   8.948 -0.0852 -0.0187  0.2623
  401loPI   C4A 6410  15.200   3.786   8.428 -0.1265  0.1086 -0.1096
  401loPI   C5A 6411  14.972   3.698   8.083  0.1004 -0.0065 -0.0706
  401loPI   C6A 6412  14.514   3.620   8.097  0.0723 -0.1061 -0.2404
  401loPI   C1B 6413  15.476   4.225   9.691 -0.0746  0.2568 -0.2651
  401loPI   C2B 6414  15.466   4.242   9.276  0.5312  0.1130  0.1960
  401loPI   C3B 6415  15.535   4.260   8.851 -0.2759 -0.1431  0.1888
  401loPI   C4B 6416  15.237   4.238   8.540 -0.1260 -0.0434  0.1034
  402loPI    C1 6417  15.526   2.882  10.752 -0.1299 -0.0834  0.0510
  402loPI    C2 6418  15.303   3.107  10.996 -0.3247  0.0949 -0.2840
  402loPI    C3 6419  15.667   3.231  10.887 -0.1402 -0.0961  0.0950
  402loPI   PO4 6420  15.316   2.813  10.461  0.0671  0.2771 -0.0725
  402loPI   GL1 6421  15.101   2.976  10.174  0.5118 -0.1958 -0.2212
  402loPI   GL2 6422  14.759   3.126  10.122  0.0657 -0.1776  0.0063
  402loPI   C1A 6423  15.218   2.888   9.771 -0.2501  0.0441  0.3678
  402loPI   C2A 6424  15.223   2.911   9.332 -0.0406 -0.2115  0.2320
  402loPI   C3A 6425  15.311   2.868   8.883 -0.0331 -0.1130 -0.0411
  402loPI   C4A 6426  15.392   2.869   8.436 -0.0921  0.0865 -0.0240
  402loPI   C5A 6427  15.167   2.972   8.174  0.0451  0.1315  0.2222
  402loPI   C6A 6428  14.714   2.934   8.013 -0.0097 -0.0163  0.1987
  402loPI   C1B 6429  14.725   3.044   9.623  0.1366  0.0451 -0.0675
  402loPI   C2B 6430  14.773   3.095   9.150 -0.1306 -0.1849 -0.1825
  402loPI   C3B 6431  14.847   3.064   8.778 -0.0726  0.2614  0.1209
  402loPI   C4B 6432  14.899   3.273   8.424 -0.0058  0.0506 -0.3028
  403loPI    C1 6433  10.862  15.750  11.038  0.3673  0.0882  0.0462
  403loPI    C2 6434  11.014  15.505  11.314  0.1439  0.0310  0.1204
  403loPI    C3 6435  11.061  15.900  11.351  0.1112  0.0239  0.2433
  403loPI   PO4 6436  10.902  15.659  10.848 -0.3323 -0.0224  0.0539
  403loPI   GL1 6437  10.957  15.935  10.516  0.0165  0.3871 -0.1117
  403loPI   GL2 6438  10.802  16.054  10.299 -0.0269  0.0071 -0.0957
  403loPI   C1A 6439  11.271  15.794  10.244 -0.0301 -0.1175  0.2822
  403loPI   C2A 6440  11.356  15.656   9.850  0.1604  0.0983 -0.0765
  403loPI   C3A 6441  11.372  15.609   9.389  0.0187 -0.1769 -0.0819
  403loPI   C4A 6442  11.402  15.629   9.009  0.4067  0.2693 -0.2476
  403loPI   C5A 6443  11.335  15.691   8.632 -0.1537  0.1269 -0.1408
  403loPI   C6A 6444  11.313  15.555   8.174  0.2855  0.1982  0.0959
  403loPI   C1B 6445  10.900  15.883   9.915 -0.1124  0.0485  0.1446
  403loPI   C2B 6446  10.921  15.857   9.403 -0.2915  0.2613  0.2711
  403loPI   C3B 6447  10.789  15.761   8.935  0.3097  0.0294  0.1416
  403loPI   C4B 6448  10.905  15.902   8.507 -0.3832 -0.0589  0.2928
  404loPI    C1 6449  13.269   7.528  11.065 -0.1386  0.0009 -0.0384
  404loPI    C2 6450  13.328   7.281  11.374  0.0373  0.0586 -0.0251
  404loPI    C3 6451  13.332   7.677  11.430 -0.1281  0.0673 -0.0672
  404loPI   PO4 6452  13.385   7.441  10.866  0.2670 -0.0036 -0.0715
  404loPI   GL1 6453  13.424   7.113  10.537  0.0549 -0.1431  0.1618
  404loPI   GL2 6454  13.205   7.042  10.505  0.4023  0.1398 -0.0299
  404loPI   C1A 6455  13.594   7.252  10.100 -0.2399  0.0746 -0.3133
  404loPI   C2A 6456  13.602   7.215   9.686  0.0069 -0.2590 -0.1255
  404loPI   C3A 6457  13.559   7.198   9.317 -0.2322  0.4788  0.0965
  404loPI   C4A 6458  13.618   7.239   8.903  0.0501 -0.1420  0.0053
  404loPI   C5A 6459  13.636   7.327   8.518  0.2167  0.2044 -0.0354
  404loPI   C6A 6460  13.609   7.548   8.209  0.2116  0.0997 -0.2604
  404loPI   C1B 6461  13.194   6.913  10.086  0.0032 -0.1403 -0.0073
  404loPI   C2B 6462  13.193   6.884   9.658  0.1016 -0.2090 -0.0098
  404loPI   C3B 6463  13.210   6.873   9.271  0.1223 -0.3336  0.0762
  404loPI   C4B 6464  13.269   6.874   8.775 -0.0713 -0.1958 -0.1597
  405loPI    C1 6465   5.009  10.315  11.450  0.1039 -0.0189 -0.0938
  405loPI    C2 6466   4.866  10.572  11.722 -0.2340  0.0822 -0.3609
  405loPI    C3 6467   5.041  10.233  11.841 -0.0247  0.3067 -0.0112
  405loPI   PO4 6468   5.056  10.521  11.206  0.0702 -0.2069  0.2808
  405loPI   GL1 6469   5.157  10.586  10.716  0.2353  0.2162 -0.1475
  405loPI   GL2 6470   5.410  10.416  10.856 -0.2618 -0.2944  0.0404
  405loPI   C1A 6471   5.063  10.503  10.226  0.2090 -0.2034 -0.0440
  405loPI   C2A 6472   5.045  10.460   9.772 -0.3075  0.0113  0.1144
  405loPI   C3A 6473   5.028  10.359   9.420 -0.1076  0.0023  0.1223
  405loPI   C4A 6474   5.064  10.468   9.010 -0.2644 -0.2823 -0.1363
  405loPI   C5A 6475   5.016  10.463   8.634 -0.1238  0.0942 -0.0685
  405loPI   C6A 6476   5.150  10.734   8.280 -0.1455  0.1943 -0.2730
  405loPI   C1B 6477   5.511  10.430  10.406 -0.1552  0.0477 -0.0506
  405loPI   C2B 6478   5.544  10.356   9.903  0.0532 -0.0718 -0.0984
  405loPI   C3B 6479   5.534  10.270   9.561  0.1067 -0.0535 -0.2153
  405loPI   C4B 6480   5.539  10.330   9.106  0.2060 -0.0554 -0.0248
  406loPI    C1 6481   9.929   8.552  10.831  0.0684  0.1095 -0.0914
  406loPI    C2 6482   9.702   8.380  11.112  0.0370  0.0239 -0.1685
  406loPI    C3 6483  10.087   8.459  11.187 -0.0090  0.1394 -0.0489
  406loPI   PO4 6484   9.970   8.441  10.632 -0.1172  0.2331 -0.0490
  406loPI   GL1 6485   9.952   8.541  10.291  0.2493  0.0089 -0.0042
  406loPI   GL2 6486   9.754   8.654  10.221 -0.2397 -0.1977 -0.2410
  406loPI   C1A 6487   9.935   8.230   9.991  0.3315  0.0200 -0.0500
  406loPI   C2A 6488   9.938   8.082   9.607  0.0169  0.3993 -0.1172
  406loPI   C3A 6489   9.892   8.157   9.177 -0.0372  0.1419 -0.1298
  406loPI   C4A 6490   9.826   8.181   8.720  0.0813  0.3000  0.1418
  406loPI   C5A 6491   9.824   8.123   8.337 -0.1427 -0.0271 -0.2029
  406loPI   C6A 6492   9.485   8.190   8.114 -0.0891 -0.0877 -0.0467
  406loPI   C1B 6493   9.844   8.711   9.823 -0.0492 -0.2061  0.2589
  406loPI   C2B 6494   9.784   8.680   9.305  0.1227  0.0655  0.2131
  406loPI   C3B 6495   9.778   8.626   8.942 -0.4609 -0.1523 -0.0795
  406loPI   C4B 6496   9.697   8.693   8.537  0.0717  0.3279  0.1956
  407loPI    C1 6497   5.851   4.323  11.021  0.2031 -0.0009 -0.3943
  407loPI    C2 6498   5.985   3.995  11.206 -0.2035 -0.1171 -0.2961
  407loPI    C3 6499   6.019   4.352  11.383  0.2468 -0.0992 -0.4063
  407loPI   PO4 6500   5.665   4.114  10.843 -0.1579  0.2059 -0.0187
  407loPI   GL1 6501   5.576   4.096  10.370 -0.1924  0.0120  0.2900
  407loPI   GL2 6502   5.615   3.865  10.373  0.2262 -0.1251 -0.0703
  407loPI   C1A 6503   5.400   4.099   9.899 -0.0709 -0.0496  0.1695
  407loPI   C2A 6504   5.575   4.118   9.567  0.2511  0.0316  0.2835
  407loPI   C3A 6505   5.464   4.152   9.155 -0.1173 -0.0046 -0.1622
  407loPI   C4A 6506   5.505   4.055   8.755 -0.0477 -0.0240  0.3586
  407loPI   C5A 6507   5.677   4.283   8.414  0.2158  0.2545 -0.0325
  407loPI   C6A 6508   5.896   4.630   8.367  0.0740  0.0938 -0.0361
  407loPI   C1B 6509   5.492   3.633  10.022 -0.1650  0.1559  0.2772
  407loPI   C2B 6510   5.517   3.614   9.581  0.2439  0.1718  0.1104
  407loPI   C3B 6511   5.542   3.670   9.155 -0.0271  0.1488 -0.1114
  407loPI   C4B 6512   5.609   3.528   8.756  0.2470  0.0885 -0.3303
  408loPI    C1 6513  14.358   8.431  10.973  0.2812  0.0171  0.0362
  408loPI    C2 6514  14.679   8.476  11.207  0.1259 -0.0953  0.2748
  408loPI    C3 6515  14.383   8.232  11.319 -0.0545  0.0261  0.0685
  408loPI   PO4 6516  14.532   8.456  10.653  0.0491 -0.1993  0.1325
  408loPI   GL1 6517  14.435   8.392  10.273  0.0124  0.1921  0.0379
  408loPI   GL2 6518  14.099   8.427  10.392 -0.1192  0.1953 -0.1222
  408loPI   C1A 6519  14.347   8.324   9.893 -0.1299 -0.4657 -0.1146
  408loPI   C2A 6520  14.356   8.348   9.315  0.2290 -0.1555  0.0559
  408loPI   C3A 6521  14.304   8.403   8.945  0.0841 -0.1602  0.1163
  408loPI   C4A 6522  14.311   8.439   8.632 -0.2999 -0.0028  0.2775
  408loPI   C5A 6523  14.326   8.285   8.148 -0.2322 -0.1634  0.1216
  408loPI   C6A 6524  14.389   8.124   7.741 -0.1389  0.2537  0.0212
  408loPI   C1B 6525  13.910   8.539  10.008 -0.0586 -0.2449 -0.1005
  408loPI   C2B 6526  13.894   8.477   9.540 -0.4118 -0.1220 -0.4191
  408loPI   C3B 6527  13.913   8.555   9.219 -0.0830  0.0409  0.0056
  408loPI   C4B 6528  13.822   8.608   8.767 -0.1635  0.0056  0.0617
  409loPI    C1 6529  16.412   6.497  11.050 -0.0152 -0.1365  0.0105
  409loPI    C2 6530  16.466   6.101  11.028  0.1848 -0.1125  0.0528
  409loPI    C3 6531  16.102   6.250  11.100  0.0634 -0.2804 -0.2004
  409loPI   PO4 6532  16.543   6.598  10.918 -0.2503  0.1321 -0.1048
  409loPI   GL1 6533  16.451   6.618  10.430 -0.0327 -0.4153 -0.3092
  409loPI   GL2 6534  16.315   6.340  10.571 -0.0234  0.5101 -0.0004
  409loPI   C1A 6535  16.481   6.686   9.933 -0.2163 -0.1065  0.1519
  409loPI   C2A 6536  16.411   6.672   9.551  0.0725 -0.2201  0.3590
  409loPI   C3A 6537  16.361   6.734   9.127  0.0181 -0.1715  0.0766
  409loPI   C4A 6538  16.322   6.718   8.669 -0.0978 -0.0732  0.1100
  409loPI   C5A 6539  16.222   6.797   8.181  0.2616 -0.0163 -0.0872
  409loPI   C6A 6540  16.553   6.668   7.932 -0.0107  0.3098 -0.2478
  409loPI   C1B 6541  16.105   6.294  10.080  0.2058 -0.3463  0.0991
  409loPI   C2B 6542  16.078   6.413   9.715 -0.0001  0.0457 -0.3187
  409loPI   C3B 6543  15.986   6.333   9.268 -0.2996 -0.0307 -0.0125
  409loPI   C4B 6544  15.909   6.344   8.763 -0.0836 -0.1243  0.1800
  410loPI    C1 6545   4.289   1.076  10.530 -0.1375 -0.1398  0.1089
  410loPI    C2 6546   4.168   1.404  10.725 -0.2510 -0.0760 -0.0664
  410loPI    C3 6547   4.310   1.091  10.929 -0.0124  0.1334  0.0947
  410loPI   PO4 6548   4.321   1.103  10.297  0.0625 -0.1203 -0.1707
  410loPI   GL1 6549   4.339   1.267   9.961  0.0869 -0.1285 -0.1521
  410loPI   GL2 6550   4.547   1.045   9.871 -0.2697 -0.2939  0.1865
  410loPI   C1A 6551   4.074   1.394   9.676 -0.0739 -0.3300 -0.0895
  410loPI   C2A 6552   4.082   1.322   9.186 -0.1561  0.1044  0.3384
  410loPI   C3A 6553   4.122   1.283   8.778 -0.0242 -0.3636  0.1546
  410loPI   C4A 6554   4.151   1.210   8.439 -0.0670  0.2312 -0.0825
  410loPI   C5A 6555   4.175   1.367   8.073  0.2980 -0.2123 -0.1523
  410loPI   C6A 6556   4.595   1.287   7.765  0.4217 -0.1437  0.0989
  410loPI   C1B 6557   4.639   1.200   9.430  0.0500  0.0552  0.0219
  410loPI   C2B 6558   4.562   1.168   8.996 -0.0524 -0.2063 -0.0283
  410loPI   C3B 6559   4.663   0.968   8.628  0.1567 -0.0917 -0.1025
  410loPI   C4B 6560   4.518   0.958   8.180  0.0048  0.0505  0.1211
  411loPI    C1 6561   7.400  14.491  11.193 -0.1495 -0.2028  0.1086
  411loPI    C2 6562   7.669  14.281  11.402  0.1112 -0.1531 -0.1707
  411loPI    C3 6563   7.716  14.675  11.355 -0.2605 -0.0616  0.1674
  411loPI   PO4 6564   7.319  14.337  10.982  0.2662  0.1476  0.0167
  411loPI   GL1 6565   7.513  14.394  10.629 -0.1000 -0.0200  0.1170
  411loPI   GL2 6566   7.589  14.542  10.376  0.2124 -0.3045 -0.1153
  411loPI   C1A 6567   7.303  14.107  10.321 -0.2308 -0.1681  0.1383
  411loPI   C2A 6568   7.168  13.958   9.955 -0.1735 -0.0294 -0.2721
  411loPI   C3A 6569   7.170  14.049   9.536  0.2301 -0.4831  0.3909
  411loPI   C4A 6570   7.078  14.038   9.079 -0.1396 -0.3198  0.0183
  411loPI   C5A 6571   7.167  13.873   8.697 -0.2503  0.0969  0.0630
  411loPI   C6A 6572   7.108  14.097   8.217  0.2356  0.1089 -0.1549
  411loPI   C1B 6573   7.655  14.362   9.964  0.0652 -0.1157 -0.2376
  411loPI   C2B 6574   7.665  14.295   9.586 -0.0593  0.0595  0.1353
  411loPI   C3B 6575   7.580  14.315   9.216  0.0283 -0.0984 -0.1621
  411loPI   C4B 6576   7.488  14.239   8.789  0.2210  0.1634  0.1079
  412loPI    C1 6577  15.076   6.799  10.900  0.2291 -0.0573  0.0048
  412loPI    C2 6578  14.901   6.442  10.852 -0.1367  0.1431 -0.1962
  412loPI    C3 6579  14.956   6.590  11.219  0.1290 -0.1693 -0.1051
  412loPI   PO4 6580  14.968   6.899  10.681 -0.0831  0.2899  0.3278
  412loPI   GL1 6581  14.791   6.625  10.330  0.0765 -0.1090 -0.0265
  412loPI   GL2 6582  14.556   6.828  10.398 -0.1609  0.0757  0.0315
  412loPI   C1A 6583  14.659   6.348  10.018  0.1977  0.0309  0.1202
  412loPI   C2A 6584  14.662   6.397   9.622 -0.0368  0.1735  0.1158
  412loPI   C3A 6585  14.704   6.382   9.128  0.3635 -0.1421  0.1886
  412loPI   C4A 6586  14.611   6.441   8.695 -0.0821  0.1255 -0.0099
  412loPI   C5A 6587  14.636   6.507   8.229  0.0013  0.0346  0.2066
  412loPI   C6A 6588  14.519   6.261   7.905  0.4227  0.1724 -0.0973
  412loPI   C1B 6589  14.553   6.856   9.928 -0.3107  0.0580 -0.1137
  412loPI   C2B 6590  14.556   6.907   9.391 -0.0478 -0.2206  0.0016
  412loPI   C3B 6591  14.521   6.894   8.959  0.0637 -0.3223  0.3707
  412loPI   C4B 6592  14.377   6.878   8.468  0.0491 -0.1772 -0.0767
  413loPI    C1 6593  12.496  13.089  11.067 -0.2511  0.0103 -0.2264
  413loPI    C2 6594  12.276  13.101  11.401 -0.0710 -0.1889 -0.0981
  413loPI    C3 6595  12.674  13.130  11.423 -0.0759  0.0945 -0.3223
  413loPI   PO4 6596  12.424  13.271  10.916  0.0793 -0.3425  0.0772
  413loPI   GL1 6597  12.393  13.647  10.645 -0.0216 -0.1724  0.0938
  413loPI   GL2 6598  12.681  13.773  10.365 -0.0803  0.1307 -0.1333
  413loPI   C1A 6599  12.200  13.470  10.319  0.0438  0.0604  0.0209
  413loPI   C2A 6600  12.154  13.445   9.905  0.0195  0.2308  0.0884
  413loPI   C3A 6601  12.108  13.522   9.495 -0.0414  0.0391  0.1584
  413loPI   C4A 6602  12.102  13.512   9.065 -0.1847  0.3150  0.4743
  413loPI   C5A 6603  11.923  13.438   8.623  0.2071  0.0068  0.0193
  413loPI   C6A 6604  11.680  13.375   8.278 -0.2399  0.3886 -0.5253
  413loPI   C1B 6605  12.535  13.780   9.941 -0.1908  0.1568  0.1514
  413loPI   C2B 6606  12.575  13.817   9.498 -0.1415  0.2184 -0.0126
  413loPI   C3B 6607  12.506  13.820   9.120  0.1607  0.1296  0.0482
  413loPI   C4B 6608  12.353  13.685   8.654  0.0996  0.0545 -0.0536
  414loPI    C1 6609   8.270   9.474  11.315  0.0620 -0.0703 -0.1196
  414loPI    C2 6610   8.609   9.673  11.240  0.0180  0.0293 -0.0572
  414loPI    C3 6611   8.430   9.710  11.596 -0.1496  0.1113 -0.1489
  414loPI   PO4 6612   8.228   9.313  11.108 -0.1845  0.0428 -0.1963
  414loPI   GL1 6613   8.319   9.422  10.759 -0.0875 -0.1356 -0.0845
  414loPI   GL2 6614   8.044   9.201  10.647 -0.0625 -0.1208  0.2163
  414loPI   C1A 6615   8.360   9.701  10.375 -0.0053  0.0800 -0.0342
  414loPI   C2A 6616   8.265   9.721   9.931  0.0624  0.0165 -0.1625
  414loPI   C3A 6617   8.214   9.741   9.461 -0.0522  0.1608 -0.1422
  414loPI   C4A 6618   8.185   9.775   9.028  0.1502 -0.1959 -0.0259
  414loPI   C5A 6619   8.156   9.765   8.661  0.0859 -0.0764 -0.0301
  414loPI   C6A 6620   8.301   9.706   8.253  0.1718 -0.2709 -0.0428
  414loPI   C1B 6621   8.302   9.153  10.289 -0.2313  0.3139 -0.2350
  414loPI   C2B 6622   8.347   9.199   9.829 -0.1683  0.1549 -0.0655
  414loPI   C3B 6623   8.309   9.268   9.451 -0.2066  0.2390 -0.1574
  414loPI   C4B 6624   8.314   9.250   8.966  0.1356  0.2028  0.1693
  415loPI    C1 6625  15.841  15.994  11.110 -0.1480  0.2235 -0.1593
  415loPI    C2 6626  15.896  16.352  11.278  0.2254 -0.0178  0.2559
  415loPI    C3 6627  15.652  16.086  11.451  0.1375 -0.0527  0.0803
  415loPI   PO4 6628  15.855  16.015  10.799  0.1073 -0.3144 -0.1403
  415loPI   GL1 6629  15.965  15.986  10.348  0.0621  0.2454  0.3182
  415loPI   GL2 6630  16.284  15.778  10.368 -0.0468 -0.0987 -0.0359
  415loPI   C1A 6631  15.773  16.041   9.957 -0.0786 -0.0048  0.0153
  415loPI   C2A 6632  15.747  15.983   9.625 -0.0456 -0.0225  0.0870
  415loPI   C3A 6633  15.757  15.943   9.198  0.1213  0.0699 -0.2656
  415loPI   C4A 6634  15.703  15.874   8.810 -0.2262 -0.2740 -0.0022
  415loPI   C5A 6635  15.507  15.769   8.398 -0.0117  0.2498  0.1483
  415loPI   C6A 6636  15.469  15.750   7.969  0.0031 -0.3241 -0.1454
  415loPI   C1B 6637  16.255  15.764   9.958 -0.1401  0.1400  0.1676
  415loPI   C2B 6638  16.284  15.802   9.586 -0.0044 -0.1696  0.1486
  415loPI   C3B 6639  16.183  15.783   9.054  0.0152  0.3351  0.1690
  415loPI   C4B 6640  16.196  15.739   8.593  0.1329 -0.0471  0.0499
  416loPI    C1 6641   4.773  15.614  10.632 -0.0121  0.1594  0.0803
  416loPI    C2 6642   5.020  15.578  10.945  0.1357 -0.1920 -0.0705
  416loPI    C3 6643   4.946  15.939  10.789  0.0158 -0.0054  0.3999
  416loPI   PO4 6644   4.876  15.399  10.457  0.0126 -0.0118 -0.0030
  416loPI   GL1 6645   4.893  15.442  10.051  0.2135  0.1134 -0.1839
  416loPI   GL2 6646   4.882  15.170   9.983  0.2218  0.2075 -0.3685
  416loPI   C1A 6647   4.572  15.428   9.684  0.0086 -0.1117 -0.1265
  416loPI   C2A 6648   4.496  15.417   9.228  0.1067  0.1113  0.2997
  416loPI   C3A 6649   4.556  15.503   8.785 -0.2916  0.0462  0.1072
  416loPI   C4A 6650   4.484  15.543   8.271  0.0415  0.0069  0.1265
  416loPI   C5A 6651   4.942  15.542   8.081  0.1566  0.0644 -0.1836
  416loPI   C6A 6652   5.152  15.417   7.754 -0.1934 -0.0150  0.1811
  416loPI   C1B 6653   4.765  14.962   9.668 -0.4642  0.0262  0.1600
  416loPI   C2B 6654   4.654  14.930   9.285  0.1305  0.2427 -0.1981
  416loPI   C3B 6655   4.641  14.987   8.778  0.0144  0.3482  0.1042
  416loPI   C4B 6656   4.618  15.044   8.319  0.2254  0.1970  0.1859
  417loPI    C1 6657   6.116   8.563  11.479  0.3263 -0.1146  0.0494
  417loPI    C2 6658   6.021   8.799  11.788 -0.2334  0.0211 -0.2147
  417loPI    C3 6659   6.051   8.404  11.841 -0.0248  0.0727  0.0733
  417loPI   PO4 6660   5.936   8.581  11.321  0.1059  0.1943 -0.2524
  417loPI   GL1 6661   5.958   8.525  10.904  0.1786 -0.3389  0.1552
  417loPI   GL2 6662   6.111   8.735  10.791  0.0438 -0.0437  0.0028
  417loPI   C1A 6663   5.858   8.318  10.534 -0.1381 -0.0857 -0.0173
  417loPI   C2A 6664   5.871   8.285  10.038 -0.2211  0.0551 -0.1442
  417loPI   C3A 6665   5.884   8.327   9.605  0.0288 -0.0709  0.0979
  417loPI   C4A 6666   5.877   8.299   9.150 -0.2420 -0.1131  0.0504
  417loPI   C5A 6667   6.021   8.239   8.744 -0.0092  0.0090 -0.0864
  417loPI   C6A 6668   5.782   8.256   8.376  0.2657 -0.0589  0.0509
  417loPI   C1B 6669   6.153   8.686  10.346 -0.1398 -0.0136 -0.0946
  417loPI   C2B 6670   6.209   8.634   9.900  0.1005 -0.1464 -0.1705
  417loPI   C3B 6671   6.194   8.655   9.421 -0.0401 -0.0919 -0.0900
  417loPI   C4B 6672   6.292   8.602   8.994  0.0200  0.1767  0.1398
  418loPI    C1 6673   3.068   3.419  10.673  0.1154 -0.0311 -0.0144
  418loPI    C2 6674   2.975   3.081  10.865 -0.0734  0.0052 -0.0396
  418loPI    C3 6675   2.748   3.407  10.912  0.1490  0.1510  0.0415
  418loPI   PO4 6676   3.177   3.324  10.428 -0.2810 -0.0314  0.0283
  418loPI   GL1 6677   3.506   3.181  10.174 -0.1868 -0.0301 -0.0798
  418loPI   GL2 6678   3.750   2.840  10.046  0.0184 -0.1797  0.1292
  418loPI   C1A 6679   3.378   3.141   9.720 -0.1731  0.1354  0.1618
  418loPI   C2A 6680   3.449   3.120   9.295 -0.0764 -0.0615  0.0837
  418loPI   C3A 6681   3.419   3.005   8.851 -0.2040  0.0261  0.2340
  418loPI   C4A 6682   3.385   3.004   8.409 -0.1072 -0.1343 -0.2767
  418loPI   C5A 6683   3.444   2.952   8.038 -0.1095  0.1014  0.1735
  418loPI   C6A 6684   3.839   3.146   7.900  0.3282 -0.0660  0.4075
  418loPI   C1B 6685   3.841   2.907   9.605 -0.1075 -0.0932  0.0833
  418loPI   C2B 6686   3.886   2.876   9.092 -0.0737  0.0511 -0.1636
  418loPI   C3B 6687   3.862   2.816   8.624 -0.1898 -0.1082 -0.0364
  418loPI   C4B 6688   3.977   2.744   8.212  0.0656  0.1804  0.0522
  419loPI    C1 6689   2.512   7.966  11.172 -0.0581 -0.0834  0.0182
  419loPI    C2 6690   2.153   8.104  11.283 -0.0177 -0.1849  0.2824
  419loPI    C3 6691   2.428   8.016  11.560  0.2153 -0.1008  0.0815
  419loPI   PO4 6692   2.449   7.901  10.846 -0.0784  0.0837 -0.1523
  419loPI   GL1 6693   2.194   7.856  10.422 -0.0243  0.0883 -0.2079
  419loPI   GL2 6694   2.292   7.591  10.307  0.2629  0.0881 -0.1239
  419loPI   C1A 6695   2.338   7.884   9.929 -0.5453 -0.0096 -0.2639
  419loPI   C2A 6696   2.341   7.858   9.581  0.2086 -0.1475 -0.0561
  419loPI   C3A 6697   2.375   7.971   9.118 -0.0647 -0.2011 -0.2745
  419loPI   C4A 6698   2.347   8.087   8.681 -0.1682 -0.1169 -0.2822
  419loPI   C5A 6699   2.253   8.351   8.338 -0.1089  0.1899  0.0048
  419loPI   C6A 6700   1.986   8.586   8.175  0.2679  0.1003  0.0976
  419loPI   C1B 6701   2.298   7.400   9.923  0.1093  0.4435 -0.0500
  419loPI   C2B 6702   2.426   7.365   9.443 -0.1442 -0.0834  0.1710
  419loPI   C3B 6703   2.511   7.444   9.006 -0.1128  0.1359  0.0867
  419loPI   C4B 6704   2.475   7.598   8.550 -0.1396  0.1851 -0.2294
  420loPI    C1 6705  13.214  17.094  11.145  0.2499 -0.0663  0.0405
  420loPI    C2 6706  13.163  16.763  11.365 -0.1323  0.0485  0.1321
  420loPI    C3 6707  12.963  17.097  11.456  0.0688  0.2382 -0.1045
  420loPI   PO4 6708  13.122  17.043  10.910 -0.0092 -0.1177 -0.1007
  420loPI   GL1 6709  12.996  17.132  10.583 -0.0287  0.0851  0.1635
  420loPI   GL2 6710  13.191  17.459  10.451 -0.0079  0.1215  0.1188
  420loPI   C1A 6711  12.850  17.062  10.250  0.2961 -0.0114  0.0082
  420loPI   C2A 6712  12.853  16.942   9.875 -0.1650  0.2167  0.2012
  420loPI   C3A 6713  12.886  16.984   9.420 -0.0598  0.0423  0.1021
  420loPI   C4A 6714  12.865  17.048   8.983  0.1153 -0.1435 -0.0349
  420loPI   C5A 6715  12.794  17.079   8.577  0.1532 -0.0818  0.2104
  420loPI   C6A 6716  12.808  17.027   8.029 -0.1784  0.0181  0.0435
  420loPI   C1B 6717  13.296  17.278  10.074  0.1154 -0.2213  0.1530
  420loPI   C2B 6718  13.233  17.250   9.671 -0.2886 -0.1387  0.3504
  420loPI   C3B 6719  13.209  17.299   9.247  0.1543  0.0444  0.1875
  420loPI   C4B 6720  13.162  17.378   8.751 -0.0214  0.2159  0.1667
  421loPI    C1 6721  10.954   3.122  10.991 -0.2159  0.1469  0.0091
  421loPI    C2 6722  10.998   2.725  10.983  0.0559  0.1784 -0.5073
  421loPI    C3 6723  11.263   2.952  11.179 -0.1926  0.1015 -0.0697
  421loPI   PO4 6724  10.954   3.162  10.743  0.4995 -0.2573 -0.1261
  421loPI   GL1 6725  11.102   3.284  10.348 -0.1742  0.1237 -0.0660
  421loPI   GL2 6726  11.111   2.956  10.336 -0.1024 -0.0206  0.2232
  421loPI   C1A 6727  11.076   3.370   9.877  0.2480 -0.0041 -0.1975
  421loPI   C2A 6728  11.162   3.424   9.468  0.1545  0.0753 -0.0915
  421loPI   C3A 6729  11.101   3.489   9.007 -0.2131  0.1896 -0.0037
  421loPI   C4A 6730  11.070   3.390   8.611  0.2162  0.1287  0.3993
  421loPI   C5A 6731  11.088   3.406   8.280 -0.0987  0.0682  0.1540
  421loPI   C6A 6732  11.250   3.175   7.874 -0.0387  0.1351  0.1603
  421loPI   C1B 6733  11.243   2.898   9.899  0.0163  0.1036  0.3660
  421loPI   C2B 6734  11.255   2.947   9.408 -0.0111  0.2009  0.0905
  421loPI   C3B 6735  11.199   2.981   8.989  0.3149  0.1325 -0.1170
  421loPI   C4B 6736  11.094   2.925   8.557 -0.2160 -0.1515  0.0420
  422loPI    C1 6737  17.679   0.786  11.062 -0.0680  0.0643  0.0224
  422loPI    C2 6738  17.837   0.552  11.345 -0.0342 -0.0531 -0.0925
  422loPI    C3 6739  17.992   0.914  11.275  0.2781 -0.2217 -0.2988
  422loPI   PO4 6740  17.645   0.634  10.831 -0.2301 -0.1201 -0.2147
  422loPI   GL1 6741  17.668   0.479  10.507 -0.0981 -0.2416  0.4438
  422loPI   GL2 6742  17.640   0.221  10.368 -0.1038 -0.1225  0.0149
  422loPI   C1A 6743  17.639   0.703  10.176 -0.0720 -0.0409 -0.2424
  422loPI   C2A 6744  17.543   0.690   9.728  0.0586  0.2326  0.1538
  422loPI   C3A 6745  17.477   0.637   9.219 -0.3054 -0.0794  0.1900
  422loPI   C4A 6746  17.569   0.732   8.735  0.0124 -0.0890 -0.2009
  422loPI   C5A 6747  17.527   0.708   8.286 -0.2190 -0.0495  0.2142
  422loPI   C6A 6748  17.450   0.677   7.839 -0.3455 -0.2938  0.0291
  422loPI   C1B 6749  17.659   0.255   9.927 -0.0902 -0.2317 -0.0358
  422loPI   C2B 6750  17.667   0.139   9.460  0.0619 -0.5270 -0.3136
  422loPI   C3B 6751  17.670   0.178   9.022 -0.0333  0.2046  0.1759
  422loPI   C4B 6752  17.646   0.200   8.553 -0.0859  0.0591 -0.2841
  423loPI    C1 6753  16.393   3.049  10.264 -0.0552  0.0815 -0.0028
  423loPI    C2 6754  16.460   3.337  10.533 -0.1765  0.1556 -0.0515
  423loPI    C3 6755  16.561   2.959  10.615 -0.0129  0.2122  0.0109
  423loPI   PO4 6756  16.348   3.230  10.057  0.1350 -0.2352  0.0392
  423loPI   GL1 6757  16.017   3.239   9.850 -0.4582 -0.0323  0.0857
  423loPI   GL2 6758  15.771   3.160   9.969  0.1284  0.1894 -0.0387
  423loPI   C1A 6759  16.086   3.026   9.440  0.2883  0.2195  0.2189
  423loPI   C2A 6760  16.225   3.032   9.050 -0.2042  0.2060  0.0152
  423loPI   C3A 6761  16.453   3.125   8.622 -0.1513  0.3344  0.0466
  423loPI   C4A 6762  16.371   3.134   8.208  0.4644  0.0888 -0.0620
  423loPI   C5A 6763  16.425   3.165   7.716  0.0181 -0.1845 -0.0250
  423loPI   C6A 6764  16.359   2.819   7.503 -0.0569 -0.2133 -0.2003
  423loPI   C1B 6765  15.581   3.154   9.571  0.2220  0.1798  0.0082
  423loPI   C2B 6766  15.681   3.255   9.189  0.0485  0.1759 -0.0053
  423loPI   C3B 6767  15.832   3.196   8.770  0.1337 -0.1104  0.3818
  423loPI   C4B 6768  15.900   3.001   8.309  0.1209  0.1973 -0.0490
  424loPI    C1 6769   7.159  14.879  10.963 -0.0169 -0.0319 -0.0212
  424loPI    C2 6770   7.159  15.241  11.132  0.1110  0.0643 -0.2234
  424loPI    C3 6771   7.250  14.919  11.351  0.0957  0.1650 -0.0667
  424loPI   PO4 6772   7.353  14.939  10.692 -0.1884 -0.2023  0.0701
  424loPI   GL1 6773   7.361  14.931  10.266 -0.1414 -0.0542  0.1787
  424loPI   GL2 6774   7.044  15.064  10.104  0.4816 -0.1030 -0.1566
  424loPI   C1A 6775   7.532  14.829   9.881  0.2713  0.1121  0.0782
  424loPI   C2A 6776   7.544  14.814   9.416  0.0258 -0.0029  0.1020
  424loPI   C3A 6777   7.516  14.947   9.016 -0.1321  0.2691  0.1139
  424loPI   C4A 6778   7.393  14.712   8.724  0.2675  0.0762  0.0080
  424loPI   C5A 6779   7.194  14.799   8.279  0.1492  0.1212 -0.0838
  424loPI   C6A 6780   7.326  14.493   7.892 -0.0445 -0.1125 -0.0980
  424loPI   C1B 6781   7.121  15.085   9.620 -0.1055  0.0394 -0.1180
  424loPI   C2B 6782   7.081  15.034   9.176 -0.4150 -0.0147 -0.2937
  424loPI   C3B 6783   6.954  14.960   8.766  0.0931 -0.3356 -0.0595
  424loPI   C4B 6784   6.699  14.940   8.369 -0.0544 -0.1931  0.0026
  425loPI    C1 6785   0.646   6.834  10.876 -0.0933 -0.0588  0.0961
  425loPI    C2 6786   0.662   6.914  11.268 -0.0495 -0.1191  0.1069
  425loPI    C3 6787   0.815   6.572  11.127  0.3795  0.1206 -0.0256
  425loPI   PO4 6788   0.709   7.056  10.717 -0.1416 -0.0466 -0.0078
  425loPI   GL1 6789   0.583   7.135  10.354  0.0682  0.1008  0.1300
  425loPI   GL2 6790   0.727   7.394  10.212  0.0991 -0.1759  0.1445
  425loPI   C1A 6791   0.242   7.047  10.095 -0.1106 -0.1507 -0.0194
  425loPI   C2A 6792   0.249   6.933   9.736  0.0685 -0.1744  0.1491
  425loPI   C3A 6793   0.293   6.936   9.319  0.1485 -0.0551  0.2728
  425loPI   C4A 6794   0.199   6.963   8.832 -0.0944 -0.1581 -0.1600
  425loPI   C5A 6795   0.204   7.047   8.378 -0.1023  0.0401 -0.0930
  425loPI   C6A 6796   0.048   6.796   8.062 -0.0067 -0.0655  0.0941
  425loPI   C1B 6797   0.717   7.267   9.857 -0.0009 -0.1691  0.0117
  425loPI   C2B 6798   0.687   7.212   9.458 -0.1672 -0.0387 -0.3215
  425loPI   C3B 6799   0.595   7.208   9.069  0.4582  0.0292 -0.1710
  425loPI   C4B 6800   0.566   7.256   8.655 -0.1091  0.0311 -0.2442
  426loPI    C1 6801   8.867   8.773  11.024 -0.0555  0.0507 -0.0091
  426loPI    C2 6802   8.788   9.162  11.071  0.0805  0.0845 -0.0559
  426loPI    C3 6803   8.967   8.957  11.365 -0.0083  0.0524 -0.0239
  426loPI   PO4 6804   8.965   8.776  10.768  0.2780  0.2299  0.0262
  426loPI   GL1 6805   8.637   8.576  10.474 -0.1462 -0.1469  0.2674
  426loPI   GL2 6806   8.923   8.587  10.312  0.1878  0.3092  0.1036
  426loPI   C1A 6807   8.468   8.694  10.191  0.0236  0.0219 -0.0509
  426loPI   C2A 6808   8.410   8.735   9.831  0.0641 -0.1031  0.1745
  426loPI   C3A 6809   8.418   8.716   9.409 -0.2603  0.0410 -0.1311
  426loPI   C4A 6810   8.321   8.744   9.008  0.2527  0.0385 -0.0118
  426loPI   C5A 6811   8.482   8.630   8.526 -0.0995 -0.2616  0.0403
  426loPI   C6A 6812   8.320   8.601   8.102  0.2356 -0.2752  0.1741
  426loPI   C1B 6813   8.945   8.464   9.979  0.0835  0.1444 -0.2143
  426loPI   C2B 6814   8.876   8.611   9.564 -0.0898 -0.1653 -0.0996
  426loPI   C3B 6815   8.827   8.534   9.123 -0.1041 -0.0770  0.2615
  426loPI   C4B 6816   8.914   8.521   8.702  0.2432 -0.2571  0.1989
  427loPI    C1 6817   6.301  14.643  11.014 -0.0370  0.2515  0.0393
  427loPI    C2 6818   6.292  15.024  11.134 -0.2564  0.1933  0.2148
  427loPI    C3 6819   6.288  14.729  11.404  0.0566  0.0650  0.0845
  427loPI   PO4 6820   6.168  14.670  10.738 -0.0588  0.0886 -0.2028
  427loPI   GL1 6821   6.127  14.350  10.434 -0.0145 -0.0153 -0.1740
  427loPI   GL2 6822   6.496  14.425  10.443 -0.0292  0.1376 -0.2973
  427loPI   C1A 6823   6.154  14.291   9.944  0.1609  0.4530 -0.1887
  427loPI   C2A 6824   6.325  14.428   9.585 -0.0975 -0.1695 -0.1552
  427loPI   C3A 6825   6.116  14.391   9.284 -0.0073  0.5118  0.2234
  427loPI   C4A 6826   6.078  14.336   8.847 -0.0799  0.0293  0.0783
  427loPI   C5A 6827   6.051  14.175   8.448 -0.2513 -0.2558  0.0831
  427loPI   C6A 6828   5.947  13.925   8.164  0.2722 -0.0679 -0.1319
  427loPI   C1B 6829   6.759  14.270  10.195 -0.0352  0.2202 -0.0726
  427loPI   C2B 6830   6.768  14.325   9.781 -0.1333  0.1506  0.3265
  427loPI   C3B 6831   6.730  14.188   9.336 -0.0176 -0.0193 -0.3204
  427loPI   C4B 6832   6.583  14.181   8.964 -0.3255 -0.0088  0.0854
  428loPI    C1 6833  16.630   4.630  10.559 -0.0765 -0.2908 -0.0934
  428loPI    C2 6834  16.925   4.623  10.829  0.0617  0.2348 -0.2199
  428loPI    C3 6835  16.545   4.592  10.948  0.1447 -0.0559 -0.0196
  428loPI   PO4 6836  16.745   4.650  10.394  0.0085  0.1101 -0.0338
  428loPI   GL1 6837  16.822   4.612   9.989 -0.1031  0.4326 -0.2072
  428loPI   GL2 6838  16.539   4.753   9.875  0.1844  0.2301  0.4130
  428loPI   C1A 6839  17.063   4.861   9.698 -0.3051 -0.2812 -0.1884
  428loPI   C2A 6840  17.121   5.014   9.248 -0.2568 -0.1032  0.1089
  428loPI   C3A 6841  17.158   5.067   8.860 -0.0747  0.1548  0.0625
  428loPI   C4A 6842  17.112   5.037   8.442  0.3992 -0.0923  0.3689
  428loPI   C5A 6843  17.103   5.388   8.242  0.0212  0.1609 -0.1787
  428loPI   C6A 6844  16.888   5.737   8.237  0.2000  0.0295  0.0246
  428loPI   C1B 6845  16.724   4.634   9.487  0.1698  0.0411  0.0406
  428loPI   C2B 6846  16.691   4.799   9.073  0.1700 -0.2104 -0.1030
  428loPI   C3B 6847  16.667   4.771   8.598  0.0876  0.1907  0.0157
  428loPI   C4B 6848  16.829   4.434   8.415 -0.0363  0.1444 -0.1734
  429loPI    C1 6849  10.030   7.940  11.100 -0.0035 -0.0242 -0.0559
  429loPI    C2 6850   9.668   7.877  11.257 -0.0254  0.1604 -0.0297
  429loPI    C3 6851   9.983   7.672  11.392 -0.1422 -0.1017 -0.1481
  429loPI   PO4 6852   9.921   8.013  10.864 -0.1424 -0.0979 -0.3469
  429loPI   GL1 6853  10.129   8.030  10.374  0.0155 -0.2512 -0.0485
  429loPI   GL2 6854  10.001   7.777  10.252 -0.2442  0.0090  0.0831
  429loPI   C1A 6855  10.434   8.049  10.098  0.3926 -0.0123  0.2042
  429loPI   C2A 6856  10.426   7.980   9.681  0.1045  0.2140 -0.0981
  429loPI   C3A 6857  10.377   8.035   9.279 -0.0408 -0.1132  0.1117
  429loPI   C4A 6858  10.300   7.953   8.898 -0.0571 -0.1222 -0.1915
  429loPI   C5A 6859  10.312   7.946   8.465  0.0372  0.2670  0.1765
  429loPI   C6A 6860  10.357   8.153   8.111  0.2218  0.1047 -0.1374
  429loPI   C1B 6861  10.004   7.627   9.878  0.1896 -0.0901 -0.1978
  429loPI   C2B 6862  10.044   7.633   9.424  0.4225  0.1749 -0.2438
  429loPI   C3B 6863   9.879   7.590   9.043  0.1477 -0.0651  0.1758
  429loPI   C4B 6864   9.905   7.695   8.653 -0.0011  0.2167 -0.1403
  430loPI    C1 6865  11.030   6.709  10.990 -0.0805 -0.2512  0.1117
  430loPI    C2 6866  11.248   6.532  11.275  0.2007 -0.0485  0.0267
  430loPI    C3 6867  11.208   6.930  11.272 -0.2044 -0.0849  0.0613
  430loPI   PO4 6868  11.118   6.549  10.776  0.1496 -0.2516 -0.1194
  430loPI   GL1 6869  11.253   6.647  10.404  0.0117  0.3626 -0.1712
  430loPI   GL2 6870  10.923   6.620  10.347  0.2207 -0.2033 -0.3763
  430loPI   C1A 6871  11.087   6.841   9.989 -0.3827  0.1562  0.5103
  430loPI   C2A 6872  11.085   6.830   9.517  0.0541 -0.2484 -0.0018
  430loPI   C3A 6873  10.964   6.803   9.098 -0.0197 -0.2527 -0.0388
  430loPI   C4A 6874  10.846   6.820   8.681 -0.2169 -0.1424 -0.0248
  430loPI   C5A 6875  10.762   7.224   8.377  0.3244 -0.2461 -0.2063
  430loPI   C6A 6876  10.506   7.238   8.091 -0.1240  0.2431  0.0811
  430loPI   C1B 6877  11.089   6.330   9.959 -0.1495 -0.1123 -0.0504
  430loPI   C2B 6878  11.045   6.201   9.513  0.1287 -0.0691 -0.2128
  430loPI   C3B 6879  11.094   6.270   9.113 -0.0595 -0.3442 -0.1234
  430loPI   C4B 6880  11.024   6.338   8.649  0.1911  0.0902 -0.1771
  431loPI    C1 6881   5.665   1.082  10.567 -0.1801  0.2081 -0.0028
  431loPI    C2 6882   5.779   1.337  10.853 -0.0667  0.2733 -0.1048
  431loPI    C3 6883   5.928   0.966  10.845 -0.3625  0.1451  0.1450
  431loPI   PO4 6884   5.680   1.142  10.422 -0.0464 -0.2056  0.1519
  431loPI   GL1 6885   5.416   1.113  10.070 -0.0130  0.1445 -0.1940
  431loPI   GL2 6886   5.689   0.842  10.029 -0.2401 -0.0992  0.0503
  431loPI   C1A 6887   5.546   1.285   9.655  0.0665 -0.0089 -0.3018
  431loPI   C2A 6888   5.610   1.224   9.195 -0.2176 -0.0209  0.0535
  431loPI   C3A 6889   5.577   1.128   8.796 -0.1403  0.1705 -0.2008
  431loPI   C4A 6890   5.476   1.208   8.379 -0.2996 -0.1390 -0.0607
  431loPI   C5A 6891   5.506   1.371   7.885 -0.1222  0.1269 -0.1281
  431loPI   C6A 6892   5.374   1.659   7.636  0.2561 -0.1161 -0.1436
  431loPI   C1B 6893   5.595   0.738   9.557 -0.0958 -0.0152 -0.0108
  431loPI   C2B 6894   5.674   0.691   9.064  0.2552  0.2815 -0.0636
  431loPI   C3B 6895   5.594   0.676   8.582  0.1526  0.0924 -0.1760
  431loPI   C4B 6896   5.545   0.747   8.243  0.1649  0.1854 -0.1967
  432loPI    C1 6897   3.348  13.807  11.345  0.1884  0.1326  0.1403
  432loPI    C2 6898   3.382  13.657  11.714 -0.0502  0.1586  0.1742
  432loPI    C3 6899   3.035  13.815  11.594  0.0208  0.1337 -0.0680
  432loPI   PO4 6900   3.693  13.898  11.190 -0.0474  0.0545  0.2013
  432loPI   GL1 6901   3.765  13.818  10.801  0.0641 -0.1986  0.2823
  432loPI   GL2 6902   3.740  13.501  10.741 -0.1582 -0.1007  0.0054
  432loPI   C1A 6903   3.556  13.956  10.529 -0.0692 -0.0354  0.0938
  432loPI   C2A 6904   3.604  13.905  10.043 -0.2373  0.0639 -0.1796
  432loPI   C3A 6905   3.525  13.776   9.652  0.0963 -0.0367  0.0051
  432loPI   C4A 6906   3.562  13.915   9.258 -0.0301  0.2289 -0.0391
  432loPI   C5A 6907   3.480  13.790   8.919  0.1702 -0.2210 -0.2592
  432loPI   C6A 6908   3.644  13.765   8.533 -0.1887  0.0498 -0.1085
  432loPI   C1B 6909   3.654  13.400  10.296  0.1328  0.1688  0.0784
  432loPI   C2B 6910   3.557  13.335   9.836 -0.3839 -0.1206 -0.0239
  432loPI   C3B 6911   3.524  13.343   9.352  0.3521  0.0412 -0.0144
  432loPI   C4B 6912   3.563  13.322   8.909  0.2076  0.3619  0.0138
  433loPI    C1 6913   2.694   0.704  10.694 -0.1656 -0.2290 -0.2164
  433loPI    C2 6914   3.033   0.672  10.904 -0.0353 -0.0564 -0.3962
  433loPI    C3 6915   2.709   0.838  11.070  0.0746  0.1029 -0.3392
  433loPI   PO4 6916   2.849   0.778  10.445 -0.1743 -0.0100  0.1366
  433loPI   GL1 6917   2.850   0.858   9.973 -0.1152  0.0419 -0.1383
  433loPI   GL2 6918   2.762   0.557  10.006  0.3316  0.2080 -0.2323
  433loPI   C1A 6919   2.765   0.961   9.540 -0.1496 -0.0707  0.2804
  433loPI   C2A 6920   2.751   0.939   9.211  0.1797 -0.3777  0.1978
  433loPI   C3A 6921   2.878   0.835   8.782  0.1779 -0.2985 -0.0910
  433loPI   C4A 6922   2.858   0.890   8.298 -0.3137  0.3255 -0.0729
  433loPI   C5A 6923   2.893   0.835   7.894 -0.0964 -0.4391  0.0760
  433loPI   C6A 6924   3.130   0.951   7.532  0.1294 -0.3371  0.1740
  433loPI   C1B 6925   2.846   0.512   9.613  0.1343  0.1925 -0.0944
  433loPI   C2B 6926   2.976   0.450   9.183 -0.1413 -0.0423  0.0550
  433loPI   C3B 6927   2.903   0.370   8.685 -0.5065 -0.1047 -0.0308
  433loPI   C4B 6928   2.808   0.373   8.200 -0.4401  0.0390 -0.1230
  434loPI    C1 6929   9.401   1.724  10.321 -0.1160 -0.0150  0.0953
  434loPI    C2 6930   9.415   1.762  10.719  0.0043  0.0216  0.0880
  434loPI    C3 6931   9.118   1.933  10.512  0.0239  0.1292  0.1475
  434loPI   PO4 6932   9.571   1.671  10.258 -0.0584 -0.1917 -0.2322
  434loPI   GL1 6933   9.832   1.371  10.094 -0.0711 -0.1137 -0.0396
  434loPI   GL2 6934   9.579   1.406   9.854 -0.4137  0.0889  0.2748
  434loPI   C1A 6935  10.092   1.336   9.770 -0.3426 -0.0243 -0.1154
  434loPI   C2A 6936  10.092   1.411   9.241 -0.3625 -0.1280  0.4126
  434loPI   C3A 6937   9.990   1.395   8.786  0.0633 -0.0987 -0.0071
  434loPI   C4A 6938   9.938   1.375   8.454  0.1008 -0.1005 -0.2073
  434loPI   C5A 6939   9.990   1.117   8.166  0.1372 -0.0048  0.0169
  434loPI   C6A 6940  10.233   0.929   8.041  0.0560 -0.0864 -0.0815
  434loPI   C1B 6941   9.645   1.558   9.498 -0.0090 -0.0250  0.0270
  434loPI   C2B 6942   9.580   1.593   9.031  0.2902 -0.2564  0.1333
  434loPI   C3B 6943   9.479   1.503   8.599  0.0638 -0.2174  0.2209
  434loPI   C4B 6944   9.408   1.576   8.274  0.1190 -0.5599  0.1167
  435loPI    C1 6945   9.357  11.509  10.876  0.0764 -0.0686 -0.0214
  435loPI    C2 6946   9.120  11.279  11.103  0.1738 -0.3941 -0.2413
  435loPI    C3 6947   9.394  11.515  11.274 -0.1087 -0.2342  0.0003
  435loPI   PO4 6948   9.523  11.347  10.730 -0.2748 -0.6692 -0.0640
  435loPI   GL1 6949   9.816  11.241  10.354 -0.0636 -0.1407 -0.4327
  435loPI   GL2 6950   9.724  11.077  10.269 -0.0248  0.1031  0.0552
  435loPI   C1A 6951   9.765  11.503  10.032 -0.3019 -0.3111 -0.0591
  435loPI   C2A 6952   9.790  11.532   9.587  0.0293  0.2922 -0.1221
  435loPI   C3A 6953   9.752  11.585   9.101 -0.0052 -0.3384  0.1085
  435loPI   C4A 6954   9.766  11.627   8.575 -0.0954  0.1479  0.2610
  435loPI   C5A 6955   9.892  11.812   8.145 -0.1864  0.0625  0.3794
  435loPI   C6A 6956   9.803  11.773   7.847 -0.1931 -0.1217 -0.0949
  435loPI   C1B 6957   9.889  11.050   9.826  0.2527  0.1189  0.1464
  435loPI   C2B 6958   9.825  11.016   9.353 -0.0788 -0.0459  0.2213
  435loPI   C3B 6959   9.809  11.057   8.892 -0.0310  0.2122  0.3161
  435loPI   C4B 6960   9.843  11.068   8.467  0.1121 -0.2123  0.1295
  436loPI    C1 6961   0.851   2.160  10.683  0.1832  0.0062 -0.0709
  436loPI    C2 6962   0.869   2.528  10.840 -0.0897 -0.0810  0.1740
  436loPI    C3 6963   1.013   2.216  11.045 -0.0165 -0.1346  0.0422
  436loPI   PO4 6964   1.069   2.237  10.425  0.1517  0.1021  0.0528
  436loPI   GL1 6965   1.264   2.004  10.073  0.2416  0.0510  0.1020
  436loPI   GL2 6966   1.286   1.675   9.974  0.4204  0.1313 -0.2938
  436loPI   C1A 6967   1.407   2.114   9.697 -0.0927  0.1223  0.0130
  436loPI   C2A 6968   1.340   2.015   9.266  0.0740  0.0022 -0.0434
  436loPI   C3A 6969   1.396   1.961   8.922 -0.1551  0.0588  0.3019
  436loPI   C4A 6970   1.411   1.857   8.530 -0.1615  0.2776 -0.2307
  436loPI   C5A 6971   1.486   1.817   8.134 -0.0517  0.2116  0.0803
  436loPI   C6A 6972   1.647   1.646   7.818 -0.1025  0.0293  0.1981
  436loPI   C1B 6973   1.361   1.520   9.559 -0.1954  0.3604  0.2556
  436loPI   C2B 6974   1.400   1.475   9.122 -0.0532  0.1672 -0.1454
  436loPI   C3B 6975   1.307   1.406   8.746 -0.1495  0.0070 -0.0204
  436loPI   C4B 6976   1.307   1.377   8.261 -0.1565 -0.0363 -0.0042
  437loPI    C1 6977   9.519   2.789  10.693  0.0464 -0.1716 -0.1462
  437loPI    C2 6978   9.757   2.672  10.992 -0.1034 -0.0638  0.0171
  437loPI    C3 6979   9.362   2.613  11.016 -0.1141 -0.0717 -0.1685
  437loPI   PO4 6980   9.683   2.666  10.427 -0.3248 -0.0945 -0.0939
  437loPI   GL1 6981   9.712   2.701  10.079 -0.0920 -0.1254 -0.1023
  437loPI   GL2 6982   9.500   2.658   9.966 -0.0808  0.0190 -0.1223
  437loPI   C1A 6983   9.865   2.971   9.663  0.0676  0.0038  0.0590
  437loPI   C2A 6984   9.851   3.005   9.225 -0.0504  0.3086 -0.1432
  437loPI   C3A 6985   9.761   3.081   8.822 -0.0439 -0.0009  0.1858
  437loPI   C4A 6986   9.667   3.049   8.431 -0.0772 -0.0280  0.2573
  437loPI   C5A 6987   9.851   2.893   8.077  0.0186 -0.1380 -0.1984
  437loPI   C6A 6988   9.984   2.649   7.666 -0.0905  0.1341  0.1540
  437loPI   C1B 6989   9.490   2.692   9.508 -0.2781 -0.0243  0.0958
  437loPI   C2B 6990   9.378   2.613   9.062 -0.2244  0.0523  0.0066
  437loPI   C3B 6991   9.213   2.612   8.621 -0.0529  0.0689 -0.0193
  437loPI   C4B 6992   9.382   2.743   8.246  0.1666  0.0213  0.1050
  438loPI    C1 6993  10.134  16.098  10.987 -0.1042 -0.2748  0.0417
  438loPI    C2 6994   9.999  16.428  11.169  0.1216 -0.1549 -0.0042
  438loPI    C3 6995  10.030  16.085  11.373  0.0106 -0.1163  0.0788
  438loPI   PO4 6996  10.034  16.126  10.782 -0.0817  0.0958  0.0440
  438loPI   GL1 6997  10.005  16.097  10.406 -0.0668 -0.3227  0.3826
  438loPI   GL2 6998   9.986  16.366  10.104 -0.0099 -0.2824  0.1214
  438loPI   C1A 6999  10.035  15.838   9.999 -0.0145 -0.2325 -0.3138
  438loPI   C2A 7000  10.001  15.763   9.585 -0.3225 -0.1789  0.0633
  438loPI   C3A 7001   9.970  15.680   9.124 -0.0849  0.3146 -0.1369
  438loPI   C4A 7002   9.953  15.756   8.719  0.2338  0.1702 -0.0209
  438loPI   C5A 7003  10.090  15.872   8.304  0.0415  0.1701  0.1842
  438loPI   C6A 7004  10.498  15.992   8.092  0.0654  0.3174 -0.1815
  438loPI   C1B 7005   9.994  16.281   9.692 -0.2774  0.1605 -0.0692
  438loPI   C2B 7006  10.125  16.381   9.329  0.1597  0.1661  0.1553
  438loPI   C3B 7007  10.274  16.392   8.898 -0.0049 -0.0761 -0.2512
  438loPI   C4B 7008  10.207  16.410   8.463  0.0465 -0.0026  0.0289
  439loPI    C1 7009   5.434   2.302  10.802 -0.1309  0.1795  0.0516
  439loPI    C2 7010   5.098   2.154  10.961 -0.1669 -0.0532 -0.2322
  439loPI    C3 7011   5.450   2.088  11.140 -0.2172 -0.2291 -0.1961
  439loPI   PO4 7012   5.345   2.180  10.434 -0.1614 -0.1971 -0.3080
  439loPI   GL1 7013   5.283   2.327  10.141 -0.3157  0.3027  0.0385
  439loPI   GL2 7014   5.514   2.563  10.135 -0.2110  0.0730  0.1600
  439loPI   C1A 7015   5.347   2.282   9.716  0.1167 -0.1475 -0.1502
  439loPI   C2A 7016   5.358   2.298   9.346 -0.2456 -0.1137  0.0023
  439loPI   C3A 7017   5.298   2.231   8.914 -0.0294 -0.1526 -0.1129
  439loPI   C4A 7018   5.355   2.158   8.497  0.3769  0.1373  0.1456
  439loPI   C5A 7019   5.260   2.403   8.190 -0.0956  0.1929 -0.2647
  439loPI   C6A 7020   4.966   2.654   8.051 -0.1351 -0.0097  0.1030
  439loPI   C1B 7021   5.730   2.637   9.776 -0.0954  0.0774  0.2310
  439loPI   C2B 7022   5.756   2.624   9.358  0.0546 -0.1145 -0.0035
  439loPI   C3B 7023   5.771   2.531   9.011  0.0519 -0.0689 -0.2191
  439loPI   C4B 7024   5.793   2.512   8.451 -0.3430 -0.2079 -0.3699
  440loPI    C1 7025  12.306  12.431  11.097 -0.0989  0.4135 -0.4041
  440loPI    C2 7026  12.552  12.658  11.316  0.1245 -0.2641  0.0789
  440loPI    C3 7027  12.173  12.605  11.432  0.1146 -0.2589  0.0489
  440loPI   PO4 7028  12.418  12.246  11.032 -0.1617 -0.0238  0.0047
  440loPI   GL1 7029  12.136  12.079  10.695  0.1030 -0.1702  0.0131
  440loPI   GL2 7030  12.153  12.353  10.588  0.1643 -0.1862 -0.0522
  440loPI   C1A 7031  12.370  11.967  10.319  0.1646  0.0550  0.3729
  440loPI   C2A 7032  12.426  11.943   9.839  0.2091  0.0126  0.1470
  440loPI   C3A 7033  12.404  11.971   9.465 -0.1326  0.2008 -0.1020
  440loPI   C4A 7034  12.471  11.936   9.097 -0.1760  0.1920 -0.3619
  440loPI   C5A 7035  12.451  11.992   8.694 -0.2190 -0.0259  0.0126
  440loPI   C6A 7036  12.428  12.274   8.318 -0.0509 -0.0338  0.0269
  440loPI   C1B 7037  12.286  12.437  10.229  0.0506 -0.4380 -0.0946
  440loPI   C2B 7038  12.320  12.460   9.746 -0.1923  0.0112  0.0219
  440loPI   C3B 7039  12.308  12.460   9.314 -0.2962 -0.2526 -0.0889
  440loPI   C4B 7040  12.361  12.420   8.909  0.2460  0.0199 -0.2451
  441loPI    C1 7041   2.653  10.784  11.065 -0.0748 -0.0937  0.1130
  441loPI    C2 7042   2.688  11.077  11.335  0.0601 -0.0633  0.0633
  441loPI    C3 7043   2.713  10.695  11.450 -0.0007 -0.0529  0.1110
  441loPI   PO4 7044   2.556  10.907  10.850  0.0994 -0.0253 -0.1302
  441loPI   GL1 7045   2.597  10.906  10.411  0.1292 -0.0397  0.1874
  441loPI   GL2 7046   2.487  11.268  10.435  0.1746  0.0369 -0.0247
  441loPI   C1A 7047   2.706  10.786   9.979 -0.2318  0.1958  0.2230
  441loPI   C2A 7048   2.741  10.786   9.542  0.1358  0.1581  0.0611
  441loPI   C3A 7049   2.712  10.744   9.077 -0.2824  0.0152  0.1221
  441loPI   C4A 7050   2.636  10.871   8.653  0.1444  0.1871 -0.0317
  441loPI   C5A 7051   2.733  11.165   8.310  0.0629 -0.1667 -0.0901
  441loPI   C6A 7052   2.838  11.555   8.094 -0.0423 -0.0371  0.2452
  441loPI   C1B 7053   2.655  11.415  10.101  0.0239  0.1072  0.3215
  441loPI   C2B 7054   2.534  11.330   9.608  0.1737 -0.0888  0.3519
  441loPI   C3B 7055   2.572  11.295   9.194 -0.5000 -0.2273 -0.2441
  441loPI   C4B 7056   2.658  11.403   8.760  0.0521 -0.3157 -0.0404
  442loPI    C1 7057   1.168   6.447  10.781 -0.0282 -0.2166  0.2146
  442loPI    C2 7058   1.459   6.203  10.909  0.2308  0.1175  0.2787
  442loPI    C3 7059   1.276   6.448  11.167  0.0691  0.0932  0.1888
  442loPI   PO4 7060   1.139   6.241  10.513 -0.1147  0.0086  0.0119
  442loPI   GL1 7061   1.239   6.075  10.108 -0.1659  0.0594  0.1454
  442loPI   GL2 7062   1.497   6.203  10.028 -0.0446  0.0625 -0.2377
  442loPI   C1A 7063   1.264   5.984   9.655 -0.2458  0.0955  0.4703
  442loPI   C2A 7064   1.254   6.076   9.171 -0.0447 -0.0016 -0.0490
  442loPI   C3A 7065   1.294   6.158   8.787  0.0078  0.0185 -0.3145
  442loPI   C4A 7066   1.442   6.085   8.415  0.1445 -0.0130 -0.2182
  442loPI   C5A 7067   1.562   5.671   8.227  0.0756  0.2292  0.3048
  442loPI   C6A 7068   1.255   5.321   8.052 -0.3166  0.2121 -0.0124
  442loPI   C1B 7069   1.668   6.344   9.610  0.1632  0.0152  0.1681
  442loPI   C2B 7070   1.697   6.310   9.148 -0.0774  0.0995 -0.5288
  442loPI   C3B 7071   1.778   6.383   8.666 -0.0788  0.1257 -0.2375
  442loPI   C4B 7072   1.829   6.329   8.271  0.0667  0.1671 -0.3004
  443loPI    C1 7073   5.098   2.669  10.850  0.0367 -0.1795 -0.0092
  443loPI    C2 7074   5.298   2.600  11.190 -0.0044 -0.3247 -0.0137
  443loPI    C3 7075   5.028   2.895  11.173  0.3366 -0.0072 -0.0611
  443loPI   PO4 7076   5.291   2.734  10.618 -0.2254  0.2042 -0.0586
  443loPI   GL1 7077   5.378   3.010  10.354  0.0895 -0.0181  0.0272
  443loPI   GL2 7078   5.642   3.152  10.110 -0.0272 -0.0442 -0.0521
  443loPI   C1A 7079   5.213   2.859   9.907  0.2609  0.0737 -0.2299
  443loPI   C2A 7080   5.310   2.772   9.504 -0.2658  0.2900  0.1099
  443loPI   C3A 7081   5.253   2.774   9.069  0.0328  0.1375  0.0801
  443loPI   C4A 7082   5.308   2.735   8.580  0.4613  0.0762  0.0943
  443loPI   C5A 7083   5.436   2.913   8.212 -0.0841  0.0147  0.1815
  443loPI   C6A 7084   5.260   3.010   7.721 -0.1295  0.1166  0.0984
  443loPI   C1B 7085   5.651   3.124   9.727 -0.1441  0.2187  0.1106
  443loPI   C2B 7086   5.659   3.118   9.404  0.2222  0.4816 -0.0728
  443loPI   C3B 7087   5.637   3.061   9.033  0.0355  0.2447  0.0049
  443loPI   C4B 7088   5.729   3.060   8.553 -0.0931 -0.0473 -0.3786
  444loPI    C1 7089  13.102  15.510  11.083 -0.0449  0.0113  0.0416
  444loPI    C2 7090  12.883  15.192  11.186 -0.3091  0.1506 -0.0776
  444loPI    C3 7091  13.126  15.363  11.454 -0.1381 -0.1696 -0.0229
  444loPI   PO4 7092  13.267  15.452  10.828  0.1878  0.1624 -0.0812
  444loPI   GL1 7093  13.135  15.538  10.429  0.0598 -0.1004  0.0984
  444loPI   GL2 7094  13.475  15.695  10.432  0.0979  0.0209 -0.3293
  444loPI   C1A 7095  13.257  15.525  10.032  0.0855 -0.1870 -0.2566
  444loPI   C2A 7096  13.219  15.379   9.610 -0.2169 -0.3142 -0.0023
  444loPI   C3A 7097  13.205  15.401   9.236  0.1209  0.0161  0.2912
  444loPI   C4A 7098  13.068  15.483   8.733 -0.5555  0.0696 -0.0276
  444loPI   C5A 7099  13.295  15.659   8.372 -0.1998 -0.1994  0.0635
  444loPI   C6A 7100  13.603  16.044   8.393  0.0804 -0.0456  0.2029
  444loPI   C1B 7101  13.645  15.844  10.041 -0.0417  0.0521 -0.1102
  444loPI   C2B 7102  13.540  15.796   9.705 -0.1812  0.0057 -0.0070
  444loPI   C3B 7103  13.568  15.759   9.249 -0.0449  0.1328 -0.2905
  444loPI   C4B 7104  13.448  15.750   8.878  0.0015  0.0592  0.0413
  445loPI    C1 7105   8.977   1.476  10.500  0.0868 -0.0362  0.1221
  445loPI    C2 7106   8.851   1.290  10.831  0.1441 -0.1189  0.0978
  445loPI    C3 7107   8.840   1.689  10.810 -0.1318 -0.1248  0.0886
  445loPI   PO4 7108   8.859   1.357  10.291  0.0534  0.0480 -0.0326
  445loPI   GL1 7109   8.722   1.616   9.858  0.1884  0.1555 -0.2559
  445loPI   GL2 7110   9.011   1.780   9.999  0.2229  0.0005  0.1100
  445loPI   C1A 7111   8.717   1.404   9.466  0.1688 -0.2987 -0.0385
  445loPI   C2A 7112   8.711   1.392   9.000  0.1623  0.1747 -0.1138
  445loPI   C3A 7113   8.600   1.298   8.531  0.3271 -0.0299  0.2369
  445loPI   C4A 7114   8.457   1.333   8.119 -0.1247 -0.0957  0.0276
  445loPI   C5A 7115   8.456   1.445   7.706 -0.0754 -0.0192 -0.0010
  445loPI   C6A 7116   8.328   1.446   7.317  0.2176 -0.0218  0.0804
  445loPI   C1B 7117   9.195   1.834   9.671 -0.1345  0.1626 -0.1763
  445loPI   C2B 7118   9.120   1.771   9.249  0.3107 -0.2341  0.2497
  445loPI   C3B 7119   9.076   1.674   8.818  0.0978  0.0565 -0.0640
  445loPI   C4B 7120   8.969   1.619   8.464  0.1322 -0.2804  0.0011
  446loPI    C1 7121   5.912   5.037  11.188 -0.0132 -0.0296 -0.0289
  446loPI    C2 7122   6.207   5.182  11.416 -0.0001  0.0761 -0.1116
  446loPI    C3 7123   6.215   4.800  11.298 -0.2434 -0.1144  0.4490
  446loPI   PO4 7124   5.916   5.208  10.950 -0.1923 -0.0732  0.4274
  446loPI   GL1 7125   6.142   5.298  10.595  0.0181 -0.2261  0.1176
  446loPI   GL2 7126   6.034   5.588  10.621 -0.0811  0.2460 -0.2162
  446loPI   C1A 7127   6.204   5.342  10.164 -0.1368  0.4731 -0.1512
  446loPI   C2A 7128   6.230   5.272   9.769  0.0867  0.0275  0.1303
  446loPI   C3A 7129   6.262   5.204   9.287  0.3480  0.0231  0.1841
  446loPI   C4A 7130   6.266   5.302   8.942 -0.0909  0.1374  0.0404
  446loPI   C5A 7131   6.272   5.529   8.612 -0.0540 -0.0759  0.0550
  446loPI   C6A 7132   6.221   5.325   8.307 -0.0171 -0.0263  0.2416
  446loPI   C1B 7133   6.141   5.789  10.231 -0.1917 -0.2211 -0.1095
  446loPI   C2B 7134   6.141   5.750   9.892 -0.0329  0.0275 -0.1950
  446loPI   C3B 7135   6.220   5.738   9.450  0.3808  0.0418 -0.2710
  446loPI   C4B 7136   6.195   5.775   9.067 -0.0883 -0.1846  0.4408
  447loPI    C1 7137   4.359   2.438  10.710  0.0303 -0.0379 -0.0664
  447loPI    C2 7138   4.577   2.770  10.754 -0.0266 -0.0160  0.0535
  447loPI    C3 7139   4.235   2.727  10.956  0.0982 -0.2479  0.2204
  447loPI   PO4 7140   4.376   2.380  10.476 -0.1224  0.0853 -0.1753
  447loPI   GL1 7141   4.395   2.237  10.071 -0.1143 -0.0098  0.1788
  447loPI   GL2 7142   4.164   2.443  10.033  0.2100  0.1163  0.1549
  447loPI   C1A 7143   4.533   2.179   9.579  0.1648  0.1822 -0.0288
  447loPI   C2A 7144   4.458   2.198   9.124  0.3243  0.1228 -0.1805
  447loPI   C3A 7145   4.444   2.197   8.750 -0.1093  0.0050 -0.0587
  447loPI   C4A 7146   4.407   2.032   8.277 -0.0403  0.0062  0.0601
  447loPI   C5A 7147   4.245   2.257   7.949 -0.2277 -0.2891  0.3136
  447loPI   C6A 7148   3.899   2.267   7.788 -0.0898  0.2324 -0.0894
  447loPI   C1B 7149   4.269   2.671   9.785 -0.0401 -0.1000  0.0678
  447loPI   C2B 7150   4.375   2.677   9.409  0.0620 -0.2037  0.1948
  447loPI   C3B 7151   4.450   2.700   8.991 -0.3507  0.1505 -0.2018
  447loPI   C4B 7152   4.356   2.612   8.553  0.1458 -0.3587  0.4097
  448loPI    C1 7153  13.360   8.332  10.858 -0.1597  0.3361 -0.2266
  448loPI    C2 7154  13.124   8.480  11.145 -0.2142  0.0170 -0.1030
  448loPI    C3 7155  13.521   8.516  11.175 -0.2074 -0.2186  0.1346
  448loPI   PO4 7156  13.281   8.446  10.671 -0.1337  0.1597  0.0925
  448loPI   GL1 7157  13.066   8.237  10.360 -0.1716 -0.0581  0.1590
  448loPI   GL2 7158  13.014   8.502  10.220 -0.0048  0.1033  0.3126
  448loPI   C1A 7159  13.027   7.949  10.005  0.0541  0.1146 -0.2610
  448loPI   C2A 7160  13.122   7.907   9.582 -0.1770 -0.0492  0.0365
  448loPI   C3A 7161  13.087   7.909   9.156  0.0991  0.2449  0.0608
  448loPI   C4A 7162  13.066   7.908   8.668  0.1841 -0.0421 -0.0064
  448loPI   C5A 7163  12.765   8.055   8.282 -0.2682 -0.0151 -0.0023
  448loPI   C6A 7164  12.684   8.068   7.875  0.2421  0.2809 -0.1937
  448loPI   C1B 7165  13.010   8.486   9.825  0.2936  0.1622 -0.0861
  448loPI   C2B 7166  12.968   8.423   9.345 -0.0651 -0.0384  0.1674
  448loPI   C3B 7167  12.981   8.393   8.893  0.1841 -0.0956  0.2344
  448loPI   C4B 7168  12.902   8.446   8.507 -0.2382  0.1152  0.2848
  449loPI    C1 7169  16.191   4.841  10.669 -0.0563 -0.2174  0.0104
  449loPI    C2 7170  15.897   4.588  10.766 -0.2359  0.0359  0.1383
  449loPI    C3 7171  16.087   4.794  11.052 -0.1142  0.0721  0.0323
  449loPI   PO4 7172  16.117   4.825  10.408  0.2293 -0.1609  0.2988
  449loPI   GL1 7173  16.094   4.829   9.999  0.1275  0.1618  0.3114
  449loPI   GL2 7174  15.948   4.571   9.979 -0.4287  0.1536 -0.1209
  449loPI   C1A 7175  16.247   4.859   9.476 -0.0230 -0.3391 -0.1724
  449loPI   C2A 7176  16.164   4.955   9.072  0.1452 -0.2987 -0.1775
  449loPI   C3A 7177  16.264   4.985   8.710  0.0648  0.1148  0.1843
  449loPI   C4A 7178  16.322   4.892   8.209  0.0613 -0.0234 -0.0325
  449loPI   C5A 7179  16.528   4.793   7.905 -0.0211 -0.0615 -0.0081
  449loPI   C6A 7180  16.990   4.856   8.010 -0.0740 -0.1500 -0.0862
  449loPI   C1B 7181  15.855   4.554   9.541  0.0837  0.0207  0.0753
  449loPI   C2B 7182  15.836   4.582   9.016  0.1590  0.1537  0.2199
  449loPI   C3B 7183  15.869   4.586   8.555 -0.0744 -0.1424 -0.1905
  449loPI   C4B 7184  15.543   4.573   8.240 -0.0853  0.0963 -0.1091
  450loPI    C1 7185  13.375  13.311  11.273 -0.1402  0.2334 -0.1079
  450loPI    C2 7186  13.005  13.457  11.316 -0.1849  0.0420  0.1850
  450loPI    C3 7187  13.294  13.568  11.569 -0.1608 -0.1833  0.2585
  450loPI   PO4 7188  13.401  13.348  10.989  0.1454 -0.2571 -0.0011
  450loPI   GL1 7189  13.438  13.214  10.670 -0.0030  0.0542 -0.0042
  450loPI   GL2 7190  13.223  13.125  10.341 -0.2594 -0.4114  0.1746
  450loPI   C1A 7191  13.556  13.467  10.332  0.0571  0.1470  0.0277
  450loPI   C2A 7192  13.536  13.432   9.821 -0.1588  0.0400 -0.1726
  450loPI   C3A 7193  13.541  13.474   9.366  0.3287 -0.2360 -0.2659
  450loPI   C4A 7194  13.399  13.462   8.922  0.0329 -0.0859  0.0618
  450loPI   C5A 7195  13.408  13.471   8.533 -0.1653 -0.1307  0.0517
  450loPI   C6A 7196  13.140  13.392   8.253  0.1771 -0.0423 -0.0418
  450loPI   C1B 7197  13.166  13.096   9.936 -0.1530 -0.2741  0.2807
  450loPI   C2B 7198  13.147  13.135   9.504  0.0389 -0.0529  0.1082
  450loPI   C3B 7199  13.012  13.131   9.081  0.0470  0.0784 -0.0649
  450loPI   C4B 7200  12.914  13.178   8.611  0.2372 -0.0377  0.0039
  451loPI    C1 7201  16.756   9.901  11.107 -0.0753  0.0511 -0.0749
  451loPI    C2 7202  17.017  10.101  11.335 -0.0212  0.0655 -0.1491
  451loPI    C3 7203  16.638  10.058  11.455  0.0492 -0.0757  0.0253
  451loPI   PO4 7204  16.872  10.035  10.876 -0.0069  0.0684 -0.2896
  451loPI   GL1 7205  16.990  10.134  10.465 -0.0308  0.3999 -0.1725
  451loPI   GL2 7206  16.750   9.837  10.421  0.1428 -0.2246  0.3262
  451loPI   C1A 7207  17.173  10.209  10.036  0.0449 -0.1564 -0.1620
  451loPI   C2A 7208  17.161  10.137   9.674 -0.0972  0.1861  0.1481
  451loPI   C3A 7209  17.095  10.146   9.216 -0.2246 -0.0933 -0.2392
  451loPI   C4A 7210  17.174  10.166   8.790  0.2597  0.0133  0.0281
  451loPI   C5A 7211  17.094  10.203   8.307 -0.0877  0.1993  0.1526
  451loPI   C6A 7212  16.739  10.221   8.260  0.3170  0.1003 -0.2212
  451loPI   C1B 7213  16.823   9.867   9.942 -0.0766  0.1157 -0.0611
  451loPI   C2B 7214  16.751   9.824   9.473  0.0782 -0.3592  0.1054
  451loPI   C3B 7215  16.706   9.840   9.078  0.1582  0.0946 -0.1300
  451loPI   C4B 7216  16.637   9.860   8.611 -0.0716 -0.1540  0.2883
  452loPI    C1 7217  10.525   2.265  10.840  0.1089 -0.1175  0.0466
  452loPI    C2 7218  10.905   2.185  10.936  0.2390  0.3778 -0.0248
  452loPI    C3 7219  10.679   2.406  11.181 -0.0918 -0.1260  0.1422
  452loPI   PO4 7220  10.554   2.221  10.583 -0.0988 -0.1631 -0.1939
  452loPI   GL1 7221  10.245   2.199  10.209 -0.0053  0.1358 -0.1472
  452loPI   GL2 7222  10.328   2.458  10.189  0.3299 -0.0198 -0.0413
  452loPI   C1A 7223  10.357   2.149   9.731  0.1545 -0.1215  0.1341
  452loPI   C2A 7224  10.491   2.312   9.430  0.0894  0.2705  0.2527
  452loPI   C3A 7225  10.412   2.252   9.014  0.1512  0.3680  0.0177
  452loPI   C4A 7226  10.314   2.323   8.613 -0.0287 -0.0736  0.0877
  452loPI   C5A 7227  10.216   2.322   8.201 -0.1198 -0.3631 -0.3889
  452loPI   C6A 7228   9.967   2.180   7.810 -0.1452  0.0720  0.0915
  452loPI   C1B 7229  10.394   2.684   9.776  0.1861 -0.0165 -0.2511
  452loPI   C2B 7230  10.370   2.797   9.291  0.1493 -0.1183 -0.1334
  452loPI   C3B 7231  10.360   2.791   8.918  0.0924  0.0113 -0.0480
  452loPI   C4B 7232  10.126   2.766   8.531 -0.0730 -0.0808  0.2281
  453loPI    C1 7233   7.512   5.196  11.156 -0.1839  0.0839  0.0339
  453loPI    C2 7234   7.802   5.470  11.131  0.1110 -0.2264 -0.0199
  453loPI    C3 7235   7.600   5.423  11.473  0.2577 -0.1411  0.0797
  453loPI   PO4 7236   7.395   5.258  10.901 -0.1228 -0.0200 -0.1608
  453loPI   GL1 7237   7.584   5.235  10.476 -0.1996 -0.1779  0.3042
  453loPI   GL2 7238   7.218   5.351  10.457 -0.1398 -0.1773 -0.0442
  453loPI   C1A 7239   7.546   5.155  10.038  0.0646  0.0258  0.3349
  453loPI   C2A 7240   7.633   5.201   9.541  0.0836 -0.1274 -0.0009
  453loPI   C3A 7241   7.624   5.149   9.064 -0.1777  0.2774 -0.1725
  453loPI   C4A 7242   7.627   5.185   8.609 -0.1939  0.0850  0.2167
  453loPI   C5A 7243   7.659   5.146   8.171 -0.0531 -0.1508 -0.0576
  453loPI   C6A 7244   7.434   5.246   7.733 -0.1940  0.1869  0.1410
  453loPI   C1B 7245   7.136   5.347   9.961  0.2404  0.1751  0.1760
  453loPI   C2B 7246   7.109   5.417   9.487 -0.2012 -0.1008  0.0507
  453loPI   C3B 7247   7.112   5.433   9.015 -0.1226  0.2814 -0.1514
  453loPI   C4B 7248   7.120   5.448   8.577 -0.0728  0.1094 -0.0325
  454loPI    C1 7249   3.529   5.969  11.071  0.0288 -0.2705 -0.1437
  454loPI    C2 7250   3.783   5.958  11.379 -0.1141 -0.0030 -0.0132
  454loPI    C3 7251   3.854   5.737  11.054  0.1844 -0.0751  0.0975
  454loPI   PO4 7252   3.539   6.216  11.016 -0.0593  0.1174  0.1420
  454loPI   GL1 7253   3.750   6.430  10.694  0.1713  0.0529 -0.1207
  454loPI   GL2 7254   3.959   6.229  10.518 -0.0150  0.0557  0.2666
  454loPI   C1A 7255   3.486   6.476  10.362  0.1645  0.0410  0.2181
  454loPI   C2A 7256   3.452   6.505   9.910  0.0159 -0.0961 -0.1098
  454loPI   C3A 7257   3.428   6.477   9.452 -0.1100 -0.1293 -0.1876
  454loPI   C4A 7258   3.492   6.564   8.998 -0.4412  0.1626  0.0049
  454loPI   C5A 7259   3.480   6.448   8.547  0.0397  0.0069 -0.1988
  454loPI   C6A 7260   3.652   6.040   8.304 -0.2321  0.0737 -0.2122
  454loPI   C1B 7261   3.877   6.235  10.089 -0.2729  0.1416  0.3183
  454loPI   C2B 7262   3.864   6.313   9.638 -0.1142 -0.0563  0.2455
  454loPI   C3B 7263   3.885   6.289   9.266 -0.2615  0.1831  0.0482
  454loPI   C4B 7264   3.900   6.283   8.843 -0.1210 -0.2360 -0.2901
  455loPI    C1 7265   8.503  16.014  11.060 -0.1823 -0.2361  0.0238
  455loPI    C2 7266   8.288  15.802  11.322  0.0488 -0.1453  0.2923
  455loPI    C3 7267   8.613  16.001  11.444 -0.0000  0.1300 -0.0107
  455loPI   PO4 7268   8.279  15.980  10.815  0.0064  0.3061  0.1465
  455loPI   GL1 7269   8.268  15.676  10.392  0.0731  0.0546  0.0862
  455loPI   GL2 7270   8.029  15.849  10.335 -0.0217 -0.0570  0.1580
  455loPI   C1A 7271   8.324  15.525   9.973  0.0192  0.1696 -0.1798
  455loPI   C2A 7272   8.295  15.464   9.555 -0.1038  0.1336 -0.2283
  455loPI   C3A 7273   8.345  15.487   9.197  0.0164 -0.2222 -0.2280
  455loPI   C4A 7274   8.316  15.469   8.760  0.0382  0.0545 -0.1250
  455loPI   C5A 7275   8.117  15.478   8.339  0.0156  0.1998  0.0131
  455loPI   C6A 7276   8.224  15.686   8.033 -0.1765  0.2135  0.1429
  455loPI   C1B 7277   7.900  15.732   9.903  0.0987  0.3579 -0.1477
  455loPI   C2B 7278   7.888  15.750   9.461 -0.0146 -0.0693 -0.1631
  455loPI   C3B 7279   7.870  15.682   9.007  0.1463  0.0315  0.3669
  455loPI   C4B 7280   7.727  15.763   8.653  0.2533 -0.0179  0.0609
  456loPI    C1 7281  10.158  17.508  10.866 -0.0152  0.0020  0.0044
  456loPI    C2 7282  10.298  17.868  10.971  0.1030  0.0074 -0.1671
  456loPI    C3 7283  10.513  17.540  11.049  0.0192 -0.0220 -0.0577
  456loPI   PO4 7284  10.030  17.556  10.668  0.0288  0.2375 -0.0618
  456loPI   GL1 7285  10.124  17.414  10.336 -0.1164  0.1895 -0.0520
  456loPI   GL2 7286  10.371  17.331  10.159 -0.0586 -0.1374 -0.3781
  456loPI   C1A 7287   9.971  17.465   9.920  0.1338  0.0645  0.1118
  456loPI   C2A 7288  10.083  17.494   9.507 -0.0134 -0.0545 -0.1328
  456loPI   C3A 7289  10.060  17.535   9.096  0.1389 -0.1764 -0.1295
  456loPI   C4A 7290   9.866  17.246   8.816 -0.2892 -0.0152  0.0494
  456loPI   C5A 7291   9.568  17.206   8.496  0.0086 -0.1490  0.3264
  456loPI   C6A 7292   9.364  17.405   8.216  0.2403 -0.2105  0.0841
  456loPI   C1B 7293  10.355  17.146   9.753  0.0179 -0.3768 -0.0420
  456loPI   C2B 7294  10.516  17.301   9.392  0.0050 -0.2079  0.0773
  456loPI   C3B 7295  10.441  17.295   9.065 -0.2239  0.0024  0.1654
  456loPI   C4B 7296  10.624  17.258   8.560  0.0015  0.0400  0.0449
  457loPI    C1 7297  16.918   1.170  10.798 -0.0004 -0.2206  0.1545
  457loPI    C2 7298  16.677   1.287  11.095 -0.0849  0.1091 -0.0390
  457loPI    C3 7299  17.073   1.275  11.152 -0.0926  0.2782  0.0538
  457loPI   PO4 7300  16.871   0.940  10.660  0.0602  0.0481  0.0829
  457loPI   GL1 7301  16.732   0.684  10.276 -0.0381 -0.1695 -0.1608
  457loPI   GL2 7302  16.715   1.070  10.186  0.0095  0.2532  0.2425
  457loPI   C1A 7303  16.732   0.545   9.845  0.2234  0.1402  0.0410
  457loPI   C2A 7304  16.633   0.557   9.434 -0.1571 -0.2774  0.2005
  457loPI   C3A 7305  16.675   0.543   9.078 -0.0807  0.1258  0.3533
  457loPI   C4A 7306  16.709   0.646   8.641  0.2231 -0.1699 -0.0041
  457loPI   C5A 7307  16.570   0.398   8.269 -0.1182  0.2425 -0.1778
  457loPI   C6A 7308  16.797   0.085   8.050 -0.2305 -0.3407  0.1761
  457loPI   C1B 7309  16.643   1.014   9.778  0.1273 -0.1107  0.2052
  457loPI   C2B 7310  16.580   1.069   9.324 -0.0311  0.0209 -0.0393
  457loPI   C3B 7311  16.624   1.053   8.905 -0.1976 -0.3310 -0.2639
  457loPI   C4B 7312  16.587   1.148   8.478 -0.1453  0.2371 -0.1520
  458loPI    C1 7313   7.396   3.846  10.630 -0.0623  0.0274 -0.1513
  458loPI    C2 7314   7.597   3.646  10.348 -0.0284 -0.1217 -0.0228
  458loPI    C3 7315   7.477   3.457  10.679 -0.1590  0.0276  0.0158
  458loPI   PO4 7316   7.240   3.929  10.515 -0.3715 -0.0509 -0.2904
  458loPI   GL1 7317   7.077   4.217  10.283 -0.1842 -0.1497 -0.2761
  458loPI   GL2 7318   6.918   4.156  10.137 -0.1125  0.1240 -0.0640
  458loPI   C1A 7319   7.182   4.425   9.864  0.0463 -0.1187 -0.0582
  458loPI   C2A 7320   7.262   4.454   9.388 -0.3502 -0.1834 -0.1727
  458loPI   C3A 7321   7.290   4.428   8.901  0.0106 -0.0494 -0.2156
  458loPI   C4A 7322   7.232   4.410   8.538 -0.1478 -0.1200 -0.0836
  458loPI   C5A 7323   7.284   4.298   8.064  0.0108  0.1145  0.1673
  458loPI   C6A 7324   7.280   4.098   7.730 -0.0460 -0.0504 -0.0035
  458loPI   C1B 7325   6.841   4.020   9.739  0.0829  0.1532 -0.0093
  458loPI   C2B 7326   6.842   4.123   9.282  0.0740  0.0494 -0.1529
  458loPI   C3B 7327   6.846   4.091   8.819 -0.4026 -0.0378  0.2233
  458loPI   C4B 7328   6.894   4.069   8.413 -0.0521 -0.0617 -0.1911
  459loPI    C1 7329   2.389  12.055  11.275 -0.0252 -0.2509  0.1060
  459loPI    C2 7330   2.488  11.850  11.604  0.0946 -0.0370  0.2056
  459loPI    C3 7331   2.526  12.248  11.597  0.1464 -0.0444 -0.0871
  459loPI   PO4 7332   2.427  11.851  11.090 -0.2517 -0.1987 -0.0306
  459loPI   GL1 7333   2.210  11.679  10.763 -0.0618 -0.0151  0.0255
  459loPI   GL2 7334   2.014  11.578  10.538 -0.0705 -0.1270 -0.5462
  459loPI   C1A 7335   2.126  12.043  10.447  0.0605 -0.0700  0.0940
  459loPI   C2A 7336   2.117  12.030   9.997 -0.2628  0.3423  0.1957
  459loPI   C3A 7337   2.061  11.984   9.467 -0.1548 -0.0554 -0.0831
  459loPI   C4A 7338   1.994  11.926   9.019 -0.2084 -0.1131 -0.0898
  459loPI   C5A 7339   2.027  11.807   8.490  0.1639  0.1480 -0.2335
  459loPI   C6A 7340   1.941  11.929   8.057 -0.0451  0.0091  0.1747
  459loPI   C1B 7341   2.172  11.546  10.173  0.2191 -0.0158  0.1634
  459loPI   C2B 7342   2.092  11.518   9.727 -0.2196 -0.0077  0.0803
  459loPI   C3B 7343   2.154  11.477   9.272 -0.0236 -0.1357 -0.0673
  459loPI   C4B 7344   2.160  11.500   8.839  0.1152 -0.2182  0.0079
  460loPI    C1 7345  11.722  10.275  11.079 -0.1711  0.0538 -0.0257
  460loPI    C2 7346  11.776  10.560  11.354 -0.3645  0.1022 -0.0365
  460loPI    C3 7347  11.485  10.289  11.401 -0.1205 -0.1542  0.0221
  460loPI   PO4 7348  11.779  10.344  10.743 -0.0675 -0.0482 -0.1662
  460loPI   GL1 7349  11.815  10.087  10.389  0.0559  0.0850 -0.0804
  460loPI   GL2 7350  11.409  10.373  10.427 -0.1738 -0.0843 -0.2369
  460loPI   C1A 7351  11.863  10.187  10.030  0.0311 -0.0285  0.1087
  460loPI   C2A 7352  11.783  10.334   9.628 -0.0437 -0.1684  0.0172
  460loPI   C3A 7353  11.720  10.319   9.249 -0.0933  0.3269 -0.0890
  460loPI   C4A 7354  11.792  10.415   8.885  0.2637  0.3687 -0.1949
  460loPI   C5A 7355  11.660  10.274   8.495 -0.0731 -0.0531  0.1765
  460loPI   C6A 7356  11.291  10.384   8.220 -0.2454  0.0677 -0.0761
  460loPI   C1B 7357  11.395  10.468  10.051  0.1681  0.1900  0.0509
  460loPI   C2B 7358  11.296  10.505   9.554  0.1722 -0.2033  0.1044
  460loPI   C3B 7359  11.224  10.519   9.189  0.0377 -0.1684 -0.0741
  460loPI   C4B 7360  11.318  10.497   8.763 -0.0676 -0.1373  0.0462
  461loPI    C1 7361  14.791  17.537  10.615 -0.1816 -0.0099 -0.1633
  461loPI    C2 7362  14.573  17.612  10.942 -0.1924 -0.2023 -0.1254
  461loPI    C3 7363  14.409  17.419  10.632 -0.1905  0.0047 -0.2571
  461loPI   PO4 7364  14.951  17.729  10.570  0.1430 -0.0869  0.0348
  461loPI   GL1 7365  15.015  17.730  10.105  0.0972 -0.1070 -0.0448
  461loPI   GL2 7366  15.226  18.018  10.238 -0.1643  0.0726  0.0608
  461loPI   C1A 7367  14.999  17.589   9.655  0.2360  0.1243  0.0304
  461loPI   C2A 7368  15.002  17.638   9.260 -0.1908  0.2529 -0.1496
  461loPI   C3A 7369  14.967  17.685   8.745 -0.0963 -0.0041 -0.0538
  461loPI   C4A 7370  14.911  17.509   8.382 -0.0411 -0.1043  0.1512
  461loPI   C5A 7371  15.051  17.124   8.144 -0.1755 -0.2385  0.2313
  461loPI   C6A 7372  15.414  16.955   7.935 -0.0447 -0.1733 -0.0959
  461loPI   C1B 7373  15.321  17.986   9.828 -0.0406 -0.1223  0.2477
  461loPI   C2B 7374  15.416  17.914   9.349 -0.1113  0.0881  0.1448
  461loPI   C3B 7375  15.412  18.054   8.927 -0.0570 -0.0546  0.2555
  461loPI   C4B 7376  15.389  18.046   8.546  0.0292 -0.0243 -0.0923
  462loPI    C1 7377   5.745   3.056  10.717  0.2524  0.0060  0.2862
  462loPI    C2 7378   5.745   2.802  11.026  0.0223 -0.1107  0.1929
  462loPI    C3 7379   5.457   3.077  10.993 -0.0439 -0.2014 -0.0001
  462loPI   PO4 7380   5.958   3.226  10.699 -0.2241  0.0450 -0.0238
  462loPI   GL1 7381   5.985   3.455  10.394  0.0281 -0.0690  0.2469
  462loPI   GL2 7382   6.312   3.424  10.417 -0.2662 -0.0836 -0.0548
  462loPI   C1A 7383   6.091   3.413   9.940  0.2526  0.1096 -0.3585
  462loPI   C2A 7384   6.051   3.500   9.558 -0.0993 -0.3801  0.5099
  462loPI   C3A 7385   5.988   3.399   9.142 -0.1163  0.2114  0.0997
  462loPI   C4A 7386   6.101   3.385   8.654 -0.2075 -0.0381  0.1140
  462loPI   C5A 7387   6.128   3.406   8.184 -0.2010 -0.5735 -0.2719
  462loPI   C6A 7388   6.378   3.655   7.874  0.1874 -0.1581 -0.2419
  462loPI   C1B 7389   6.503   3.703  10.127  0.1336 -0.0080 -0.1592
  462loPI   C2B 7390   6.498   3.660   9.700  0.0388  0.2187 -0.0211
  462loPI   C3B 7391   6.539   3.742   9.260  0.1677 -0.0131 -0.1799
  462loPI   C4B 7392   6.460   3.769   8.927 -0.0403  0.2982  0.3793
  463loPI    C1 7393  16.668  16.545  11.042 -0.0136 -0.1434 -0.1540
  463loPI    C2 7394  16.429  16.438  11.343  0.1907 -0.0589  0.0408
  463loPI    C3 7395  16.767  16.638  11.418  0.1020  0.2152 -0.2686
  463loPI   PO4 7396  16.682  16.277  10.918 -0.0555 -0.2171  0.0015
  463loPI   GL1 7397  17.021  16.105  10.570 -0.4158 -0.1622  0.0115
  463loPI   GL2 7398  16.635  16.197  10.411 -0.2693 -0.0424  0.0052
  463loPI   C1A 7399  17.155  15.938  10.170 -0.2367 -0.0042 -0.1863
  463loPI   C2A 7400  17.107  15.969   9.664 -0.2665  0.2472  0.2434
  463loPI   C3A 7401  17.133  15.947   9.271 -0.1864  0.2433  0.0890
  463loPI   C4A 7402  17.146  15.976   8.790  0.0017 -0.0688  0.0142
  463loPI   C5A 7403  17.008  16.131   8.350 -0.0249 -0.2417 -0.3408
  463loPI   C6A 7404  17.051  16.315   7.836 -0.0420  0.0744 -0.3087
  463loPI   C1B 7405  16.584  16.230   9.928  0.0599  0.2690 -0.0673
  463loPI   C2B 7406  16.627  16.190   9.517 -0.0810 -0.0852  0.3227
  463loPI   C3B 7407  16.651  16.100   9.063 -0.0975 -0.0871 -0.0077
  463loPI   C4B 7408  16.552  16.102   8.667  0.0449  0.1402 -0.1101
  464loPI    C1 7409  15.426  17.825  10.687 -0.0139  0.0265 -0.1087
  464loPI    C2 7410  15.393  17.472  10.873 -0.1565  0.0365 -0.1132
  464loPI    C3 7411  15.553  17.785  11.064  0.3335 -0.1281 -0.2382
  464loPI   PO4 7412  15.596  17.812  10.513  0.0610  0.0422  0.2450
  464loPI   GL1 7413  15.474  17.595  10.223 -0.0640 -0.1930  0.2248
  464loPI   GL2 7414  15.301  17.378  10.398  0.1298  0.2251  0.0434
  464loPI   C1A 7415  15.472  17.462   9.843  0.0566 -0.2128  0.2790
  464loPI   C2A 7416  15.538  17.424   9.389 -0.0318  0.0467  0.0480
  464loPI   C3A 7417  15.517  17.552   8.938 -0.0568  0.0386  0.0148
  464loPI   C4A 7418  15.477  17.527   8.544  0.1598 -0.0333 -0.0460
  464loPI   C5A 7419  15.576  17.351   8.167  0.3247  0.0050 -0.0827
  464loPI   C6A 7420  15.406  17.443   7.847  0.0605  0.1918  0.0227
  464loPI   C1B 7421  15.140  17.152   9.903 -0.0546  0.0842  0.3063
  464loPI   C2B 7422  15.109  17.148   9.423  0.5057  0.1247  0.0756
  464loPI   C3B 7423  15.108  17.117   9.032 -0.2016  0.1936  0.3155
  464loPI   C4B 7424  15.161  17.159   8.606  0.0217 -0.1071 -0.4359
  465loPI    C1 7425  12.607   2.170  11.127  0.0196  0.0278  0.0099
  465loPI    C2 7426  12.447   1.873  11.341 -0.0264  0.1143  0.0963
  465loPI    C3 7427  12.739   2.097  11.498  0.0137  0.1096  0.0285
  465loPI   PO4 7428  12.771   2.028  10.917 -0.1280  0.1995 -0.1037
  465loPI   GL1 7429  12.594   1.934  10.468 -0.2513  0.3071  0.0072
  465loPI   GL2 7430  12.769   1.862  10.182  0.2878 -0.1397  0.0790
  465loPI   C1A 7431  12.552   2.312  10.189 -0.2264 -0.2045 -0.2123
  465loPI   C2A 7432  12.610   2.400   9.659 -0.2030  0.0101  0.0044
  465loPI   C3A 7433  12.598   2.364   9.178 -0.1965  0.1785  0.3102
  465loPI   C4A 7434  12.594   2.344   8.776  0.0965 -0.2456 -0.0400
  465loPI   C5A 7435  12.611   2.518   8.423  0.1693 -0.3838  0.0066
  465loPI   C6A 7436  12.522   2.801   8.189 -0.1050  0.1293 -0.1637
  465loPI   C1B 7437  12.761   1.829   9.739  0.2724 -0.1289  0.1966
  465loPI   C2B 7438  12.844   1.843   9.288 -0.0206 -0.2555  0.3120
  465loPI   C3B 7439  12.726   1.839   8.883  0.0665 -0.0799  0.1120
  465loPI   C4B 7440  12.710   1.997   8.392  0.0576 -0.0123 -0.1587
  466loPI    C1 7441  12.097  17.189  11.322  0.0355  0.2206  0.3566
  466loPI    C2 7442  11.710  17.092  11.348  0.0001  0.2602  0.0195
  466loPI    C3 7443  11.965  16.976  11.634 -0.1156 -0.4651 -0.1512
  466loPI   PO4 7444  12.141  17.102  11.103  0.3054  0.0716  0.0228
  466loPI   GL1 7445  12.125  17.090  10.629 -0.3408 -0.1987  0.0943
  466loPI   GL2 7446  12.422  17.189  10.681  0.1787 -0.0107  0.3107
  466loPI   C1A 7447  11.974  16.913  10.352  0.2506  0.1595  0.0177
  466loPI   C2A 7448  12.022  16.755   9.963  0.0394 -0.3758  0.1283
  466loPI   C3A 7449  12.025  16.767   9.487 -0.2486 -0.0751  0.2249
  466loPI   C4A 7450  11.935  16.890   9.141  0.2082  0.0150  0.0458
  466loPI   C5A 7451  11.978  16.910   8.755  0.0415  0.0199  0.4258
  466loPI   C6A 7452  12.270  17.135   8.414  0.0683 -0.4110  0.0958
  466loPI   C1B 7453  12.374  17.218  10.180  0.3533  0.2766  0.2381
  466loPI   C2B 7454  12.445  17.101   9.758  0.0929 -0.0496  0.0418
  466loPI   C3B 7455  12.306  17.186   9.312 -0.1543  0.1131 -0.1192
  466loPI   C4B 7456  12.384  17.188   8.917 -0.3616 -0.2209 -0.1693
  467loPI    C1 7457   3.461   1.060  10.746  0.2679 -0.1563  0.0226
  467loPI    C2 7458   3.447   1.447  10.848 -0.0444 -0.2070  0.1847
  467loPI    C3 7459   3.771   1.229  10.935  0.1848  0.0451 -0.0183
  467loPI   PO4 7460   3.415   0.979  10.540  0.0197 -0.3106 -0.1561
  467loPI   GL1 7461   3.421   1.097  10.078  0.2287  0.3384  0.1161
  467loPI   GL2 7462   3.724   1.090   9.865 -0.0372 -0.0166 -0.1935
  467loPI   C1A 7463   3.239   1.133   9.628  0.3178  0.1199  0.1087
  467loPI   C2A 7464   3.189   1.110   9.181 -0.4304  0.0974  0.0843
  467loPI   C3A 7465   3.281   1.144   8.721  0.4405  0.2130 -0.2747
  467loPI   C4A 7466   3.236   1.146   8.290  0.0836 -0.0392  0.0581
  467loPI   C5A 7467   3.120   1.317   7.780 -0.1376  0.3150 -0.0094
  467loPI   C6A 7468   3.061   1.403   7.276 -0.0753  0.1060 -0.1071
  467loPI   C1B 7469   3.738   1.041   9.480  0.1835  0.0512 -0.2664
  467loPI   C2B 7470   3.700   0.991   9.002 -0.1241 -0.1265  0.2726
  467loPI   C3B 7471   3.735   0.971   8.640 -0.1292  0.2297  0.1681
  467loPI   C4B 7472   3.815   0.963   8.192  0.3421  0.1173  0.0573
  468loPI    C1 7473  13.293  10.705  11.145  0.1502 -0.0769  0.0053
  468loPI    C2 7474  13.613  10.702  11.384  0.1480 -0.1755  0.0076
  468loPI    C3 7475  13.249  10.637  11.537  0.1185  0.0041  0.0161
  468loPI   PO4 7476  13.330  10.819  10.875  0.2190 -0.1995  0.2981
  468loPI   GL1 7477  13.457  10.968  10.539 -0.0032  0.1237  0.2726
  468loPI   GL2 7478  13.514  10.634  10.484  0.1620  0.0634  0.0691
  468loPI   C1A 7479  13.469  11.097  10.097 -0.0447 -0.1130  0.3212
  468loPI   C2A 7480  13.447  11.094   9.640 -0.3140 -0.2256 -0.1132
  468loPI   C3A 7481  13.484  11.225   9.281  0.0030  0.0492 -0.1805
  468loPI   C4A 7482  13.419  11.121   8.947 -0.0926  0.1004  0.4031
  468loPI   C5A 7483  13.328  11.013   8.467 -0.2596 -0.3811 -0.0362
  468loPI   C6A 7484  13.301  10.620   8.237  0.1843 -0.0193  0.0816
  468loPI   C1B 7485  13.536  10.565  10.022  0.2130 -0.1620 -0.0459
  468loPI   C2B 7486  13.536  10.597   9.649  0.1651 -0.1144  0.2833
  468loPI   C3B 7487  13.451  10.683   9.191  0.3240 -0.2118  0.0201
  468loPI   C4B 7488  13.437  10.646   8.815  0.2166  0.0204  0.0452
  469loPI    C1 7489   6.381  14.189  11.177  0.0312  0.1020 -0.0109
  469loPI    C2 7490   6.662  14.336  11.421 -0.0160  0.2469 -0.0432
  469loPI    C3 7491   6.519  13.967  11.481  0.1055  0.2121  0.0362
  469loPI   PO4 7492   6.481  14.136  10.897  0.1797 -0.1309 -0.1958
  469loPI   GL1 7493   6.507  13.939  10.492 -0.1074 -0.2688  0.1066
  469loPI   GL2 7494   6.436  13.476  10.455  0.0457 -0.2296 -0.2111
  469loPI   C1A 7495   6.366  13.799  10.050  0.0546 -0.1217 -0.2577
  469loPI   C2A 7496   6.229  13.938   9.573 -0.1638 -0.1678 -0.0160
  469loPI   C3A 7497   6.250  13.843   9.153 -0.0647 -0.3254  0.0880
  469loPI   C4A 7498   6.171  13.844   8.750 -0.0765  0.1786 -0.0252
  469loPI   C5A 7499   6.288  13.642   8.358 -0.0265 -0.0633  0.0470
  469loPI   C6A 7500   6.484  13.401   8.018  0.2305 -0.1400  0.1037
  469loPI   C1B 7501   6.464  13.323  10.066  0.0242 -0.1444 -0.1030
  469loPI   C2B 7502   6.362  13.402   9.684  0.2397  0.1999  0.0703
  469loPI   C3B 7503   6.310  13.387   9.298  0.0552 -0.0323  0.3441
  469loPI   C4B 7504   6.233  13.393   8.886 -0.1115 -0.2851 -0.0170
  470loPI    C1 7505  15.102   7.758  11.176 -0.0690  0.2807  0.0108
  470loPI    C2 7506  14.855   8.009  11.366 -0.3534  0.0430 -0.0391
  470loPI    C3 7507  15.010   7.695  11.561 -0.3044  0.0408 -0.0818
  470loPI   PO4 7508  15.024   7.715  10.905 -0.1310  0.3894 -0.1537
  470loPI   GL1 7509  14.770   7.785  10.600  0.2118 -0.1272 -0.1145
  470loPI   GL2 7510  14.567   7.962  10.444 -0.0558 -0.1242  0.0776
  470loPI   C1A 7511  15.006   7.704  10.118 -0.0067  0.0440 -0.3498
  470loPI   C2A 7512  14.917   7.718   9.693 -0.1673 -0.0628 -0.4170
  470loPI   C3A 7513  14.829   7.738   9.213 -0.1633  0.4212 -0.0341
  470loPI   C4A 7514  14.880   7.702   8.766 -0.2488  0.1081  0.0063
  470loPI   C5A 7515  14.839   7.814   8.401  0.1400 -0.0044  0.3622
  470loPI   C6A 7516  14.781   8.129   8.144 -0.1436  0.1650 -0.0679
  470loPI   C1B 7517  14.530   7.791  10.005  0.0523 -0.2570  0.0250
  470loPI   C2B 7518  14.383   7.838   9.536  0.1192  0.0293 -0.2796
  470loPI   C3B 7519  14.445   7.921   9.102  0.3747 -0.3546  0.0288
  470loPI   C4B 7520  14.391   7.871   8.627  0.1274  0.0010  0.1376
  471loPI    C1 7521   0.720  13.453  11.338 -0.2929  0.2102  0.0271
  471loPI    C2 7522   0.461  13.198  11.505 -0.1133 -0.0480 -0.0817
  471loPI    C3 7523   0.721  13.396  11.734 -0.0860 -0.1531 -0.0210
  471loPI   PO4 7524   0.688  13.431  11.047 -0.0201  0.0540  0.2151
  471loPI   GL1 7525   0.382  13.324  10.798  0.3753 -0.0197  0.0071
  471loPI   GL2 7526   0.093  13.118  10.683  0.1943 -0.2232  0.0475
  471loPI   C1A 7527   0.393  13.485  10.431  0.0096  0.0042 -0.4052
  471loPI   C2A 7528   0.430  13.620   9.987 -0.2931  0.0178  0.1098
  471loPI   C3A 7529   0.527  13.606   9.435 -0.0428 -0.4211  0.0676
  471loPI   C4A 7530   0.456  13.509   8.979  0.1267 -0.0483 -0.1054
  471loPI   C5A 7531   0.399  13.397   8.547  0.0866 -0.1428  0.1260
  471loPI   C6A 7532   0.419  13.055   8.289 -0.3985  0.3107 -0.0712
  471loPI   C1B 7533   0.083  13.161  10.283  0.1776  0.2280 -0.0811
  471loPI   C2B 7534   0.072  13.215   9.820 -0.0941 -0.0935 -0.2005
  471loPI   C3B 7535   0.028  13.133   9.352 -0.0409 -0.1484 -0.3606
  471loPI   C4B 7536   0.032  13.149   8.910 -0.3041  0.0252 -0.2537
  472loPI    C1 7537  15.455  14.724  11.183  0.1368 -0.0380  0.0293
  472loPI    C2 7538  15.218  14.905  11.450  0.0106 -0.1848  0.0185
  472loPI    C3 7539  15.614  14.961  11.463 -0.0274  0.1030  0.0054
  472loPI   PO4 7540  15.243  14.718  10.991 -0.4456  0.1196  0.0175
  472loPI   GL1 7541  15.102  14.830  10.550  0.0516  0.2076  0.0294
  472loPI   GL2 7542  14.828  14.994  10.660  0.1877  0.0548 -0.0240
  472loPI   C1A 7543  15.089  14.823  10.050 -0.3359 -0.2021 -0.1397
  472loPI   C2A 7544  15.037  14.855   9.523 -0.3802  0.0913 -0.2794
  472loPI   C3A 7545  15.027  14.770   9.083 -0.0663  0.3578 -0.3406
  472loPI   C4A 7546  14.977  14.595   8.697 -0.0900 -0.1636  0.1069
  472loPI   C5A 7547  14.955  14.287   8.482  0.1272  0.1443  0.2952
  472loPI   C6A 7548  14.978  13.791   8.243 -0.0839  0.1855  0.2394
  472loPI   C1B 7549  14.702  15.001  10.189 -0.0554 -0.0692 -0.1154
  472loPI   C2B 7550  14.637  14.995   9.739 -0.0161 -0.0585 -0.1748
  472loPI   C3B 7551  14.583  14.973   9.350  0.0110 -0.0483  0.3201
  472loPI   C4B 7552  14.558  14.857   8.964 -0.0982  0.0458 -0.2121
  473loPI    C1 7553   7.489   7.771  11.433  0.1866 -0.1884  0.2202
  473loPI    C2 7554   7.393   7.503  11.713 -0.0147  0.0145  0.3484
  473loPI    C3 7555   7.241   7.873  11.729  0.0134  0.0443 -0.0000
  473loPI   PO4 7556   7.388   7.647  11.202  0.0591 -0.0059  0.0316
  473loPI   GL1 7557   7.207   7.863  10.838  0.1334 -0.2229 -0.4995
  473loPI   GL2 7558   7.131   8.189  10.757 -0.1537 -0.3028 -0.1475
  473loPI   C1A 7559   7.199   7.774  10.354  0.0024 -0.0236  0.2217
  473loPI   C2A 7560   7.192   7.720  10.009 -0.0789  0.2522  0.1943
  473loPI   C3A 7561   7.199   7.713   9.604 -0.1932  0.0020  0.0650
  473loPI   C4A 7562   7.270   7.789   9.210 -0.3538 -0.0652  0.0529
  473loPI   C5A 7563   7.486   7.965   8.810  0.0380  0.0652  0.2404
  473loPI   C6A 7564   7.813   8.082   8.539  0.0438 -0.4014 -0.0265
  473loPI   C1B 7565   7.039   8.307  10.366 -0.2689 -0.1310  0.1905
  473loPI   C2B 7566   7.126   8.297   9.923 -0.1758 -0.2010  0.2243
  473loPI   C3B 7567   7.126   8.215   9.534 -0.0122 -0.1411 -0.0103
  473loPI   C4B 7568   7.211   8.274   9.115  0.1630 -0.0289  0.0633
  474loPI    C1 7569   3.862   2.488  10.629 -0.1558 -0.1219  0.1733
  474loPI    C2 7570   3.804   2.167  10.861 -0.2567 -0.1596  0.0964
  474loPI    C3 7571   3.812   2.533  11.024  0.0860 -0.2174  0.2166
  474loPI   PO4 7572   3.666   2.457  10.346  0.2242 -0.2259 -0.0476
  474loPI   GL1 7573   3.329   2.453  10.173  0.3746 -0.0065  0.0650
  474loPI   GL2 7574   3.157   2.236   9.921 -0.2196 -0.2700  0.1598
  474loPI   C1A 7575   3.392   2.598   9.710  0.0687 -0.3205  0.1901
  474loPI   C2A 7576   3.510   2.524   9.348  0.0778  0.2853 -0.0600
  474loPI   C3A 7577   3.485   2.487   8.874 -0.1430 -0.1083 -0.0631
  474loPI   C4A 7578   3.570   2.472   8.399  0.1298  0.0281  0.1963
  474loPI   C5A 7579   3.434   2.469   7.996 -0.2530 -0.1734  0.1737
  474loPI   C6A 7580   3.166   2.683   7.682  0.0003 -0.1332  0.3588
  474loPI   C1B 7581   3.023   2.364   9.503  0.1038 -0.0365  0.0048
  474loPI   C2B 7582   3.001   2.154   9.154  0.1766  0.0355  0.1993
  474loPI   C3B 7583   3.065   2.132   8.765  0.0016 -0.2407  0.1233
  474loPI   C4B 7584   3.153   2.189   8.308 -0.3187  0.0540  0.1167
  475loPI    C1 7585   7.056   2.129  10.771 -0.0791 -0.2395  0.0757
  475loPI    C2 7586   7.180   2.260  11.129  0.0993 -0.1533 -0.0164
  475loPI    C3 7587   6.965   1.923  11.102  0.0896 -0.1630  0.1710
  475loPI   PO4 7588   7.016   2.330  10.662 -0.0818  0.0213  0.2129
  475loPI   GL1 7589   6.720   2.384  10.309 -0.0004  0.1760 -0.2093
  475loPI   GL2 7590   6.749   2.204   9.984  0.0945 -0.1934  0.1297
  475loPI   C1A 7591   6.539   2.639   9.905  0.2691  0.0592 -0.2704
  475loPI   C2A 7592   6.613   2.738   9.493  0.4470 -0.3057 -0.0628
  475loPI   C3A 7593   6.588   2.766   9.058  0.1322 -0.1133 -0.1591
  475loPI   C4A 7594   6.626   2.675   8.612 -0.1470  0.0579  0.1975
  475loPI   C5A 7595   6.699   2.702   8.236 -0.0327 -0.2701 -0.2467
  475loPI   C6A 7596   6.432   2.619   7.925  0.0542  0.0646  0.0203
  475loPI   C1B 7597   6.649   2.227   9.520 -0.3571  0.0973  0.2935
  475loPI   C2B 7598   6.670   2.253   8.976 -0.0980 -0.2717 -0.0531
  475loPI   C3B 7599   6.696   2.190   8.533  0.0141 -0.1136 -0.1161
  475loPI   C4B 7600   6.742   2.238   8.080  0.1367 -0.0487 -0.0666
  476loPI    C1 7601  10.401  11.800  11.216 -0.0223 -0.0447  0.1015
  476loPI    C2 7602  10.074  11.728  11.436 -0.2480  0.2544 -0.1276
  476loPI    C3 7603  10.325  12.022  11.541 -0.1496  0.1456 -0.0558
  476loPI   PO4 7604  10.336  11.802  10.994 -0.1689  0.1397 -0.3081
  476loPI   GL1 7605  10.500  11.944  10.601 -0.0137 -0.0799  0.0914
  476loPI   GL2 7606  10.577  11.667  10.579 -0.1617 -0.1535 -0.0470
  476loPI   C1A 7607  10.528  12.103  10.210  0.1159  0.3328  0.2316
  476loPI   C2A 7608  10.519  12.180   9.786 -0.0487  0.0053  0.2952
  476loPI   C3A 7609  10.536  12.233   9.373  0.2384  0.1198  0.1200
  476loPI   C4A 7610  10.602  12.294   8.908 -0.0549 -0.0029 -0.2068
  476loPI   C5A 7611  10.561  12.178   8.505  0.0968 -0.0110 -0.2332
  476loPI   C6A 7612  10.365  11.964   8.078 -0.2833 -0.2328  0.1796
  476loPI   C1B 7613  10.733  11.567  10.190  0.0066  0.3813  0.1845
  476loPI   C2B 7614  10.762  11.660   9.697 -0.2097 -0.3479 -0.0152
  476loPI   C3B 7615  10.612  11.778   9.265 -0.1956  0.1346  0.1632
  476loPI   C4B 7616  10.721  11.794   8.860 -0.1418  0.1467 -0.1444
  477loPI    C1 7617  16.512  17.715  10.662 -0.3826 -0.0086  0.0358
  477loPI    C2 7618  16.384  17.623  11.030 -0.0938 -0.3344  0.0606
  477loPI    C3 7619  16.365  17.351  10.738 -0.1594 -0.1347 -0.1242
  477loPI   PO4 7620  16.751  17.894  10.731  0.1249  0.0939  0.2336
  477loPI   GL1 7621  17.146  17.804  10.480  0.0324  0.0283 -0.0018
  477loPI   GL2 7622  16.863  17.666  10.321  0.2109  0.1656 -0.1115
  477loPI   C1A 7623  17.284  17.883  10.016 -0.1846  0.0054  0.0467
  477loPI   C2A 7624  17.220  17.769   9.562 -0.1415 -0.3608 -0.0966
  477loPI   C3A 7625  17.260  17.813   9.026  0.0658 -0.1742 -0.0728
  477loPI   C4A 7626  17.146  17.746   8.696  0.1005  0.2356 -0.2060
  477loPI   C5A 7627  16.943  17.640   8.355  0.1449 -0.1620 -0.1690
  477loPI   C6A 7628  16.688  17.265   8.228 -0.1788 -0.2264 -0.1168
  477loPI   C1B 7629  16.898  17.505   9.886  0.0134 -0.0849  0.1470
  477loPI   C2B 7630  16.794  17.450   9.554 -0.1967  0.2594 -0.2585
  477loPI   C3B 7631  16.888  17.357   9.146  0.0845  0.2771  0.0730
  477loPI   C4B 7632  16.797  17.389   8.764  0.0328  0.0723 -0.0824
  478loPI    C1 7633  14.146   0.203  11.015  0.0410  0.1015 -0.2683
  478loPI    C2 7634  13.779   0.278  11.156  0.0966 -0.0548 -0.0331
  478loPI    C3 7635  14.100   0.364  11.379  0.2027  0.0418 -0.2205
  478loPI   PO4 7636  14.013   0.199  10.717  0.2774 -0.1168  0.0874
  478loPI   GL1 7637  13.951   0.299  10.383  0.0134  0.1798 -0.0776
  478loPI   GL2 7638  14.242   0.432  10.315  0.1378 -0.3466 -0.0519
  478loPI   C1A 7639  13.894   0.509   9.945 -0.0729 -0.1740 -0.1587
  478loPI   C2A 7640  13.988   0.563   9.488 -0.1465 -0.2834 -0.1457
  478loPI   C3A 7641  13.932   0.510   9.080 -0.1487 -0.1695  0.0693
  478loPI   C4A 7642  13.988   0.584   8.625  0.3515 -0.1248 -0.2894
  478loPI   C5A 7643  14.331   0.380   8.358  0.1517  0.0762  0.0997
  478loPI   C6A 7644  14.132   0.088   8.226  0.0403 -0.0895  0.1322
  478loPI   C1B 7645  14.378   0.346  10.004  0.3335 -0.2457 -0.0151
  478loPI   C2B 7646  14.525   0.369   9.622  0.0526  0.1389 -0.0816
  478loPI   C3B 7647  14.402   0.308   9.265  0.3292  0.0083 -0.1165
  478loPI   C4B 7648  14.366   0.367   8.889  0.1970 -0.2655 -0.1635
  479loPI    C1 7649   5.548  14.153  11.222 -0.2233 -0.0994  0.1351
  479loPI    C2 7650   5.848  14.413  11.173 -0.2321 -0.1475 -0.1960
  479loPI    C3 7651   5.698  14.347  11.538  0.1006 -0.0589 -0.0399
  479loPI   PO4 7652   5.422  14.132  10.948 -0.0586  0.0024 -0.5019
  479loPI   GL1 7653   5.498  13.984  10.618  0.4227  0.3402  0.1217
  479loPI   GL2 7654   5.327  14.141  10.422  0.0018  0.0735  0.2650
  479loPI   C1A 7655   5.764  14.071  10.202 -0.0551 -0.3058  0.2801
  479loPI   C2A 7656   5.731  14.075   9.696 -0.0561  0.0659 -0.6448
  479loPI   C3A 7657   5.763  14.020   9.169  0.3113 -0.2198 -0.1154
  479loPI   C4A 7658   5.596  14.049   8.742 -0.1437 -0.0417 -0.1370
  479loPI   C5A 7659   5.468  13.987   8.289  0.0234  0.1875 -0.2348
  479loPI   C6A 7660   5.553  13.765   7.896 -0.0338  0.0256  0.0307
  479loPI   C1B 7661   5.293  14.236   9.973 -0.0660 -0.1514 -0.0360
  479loPI   C2B 7662   5.253  14.155   9.573 -0.3489 -0.1912 -0.1889
  479loPI   C3B 7663   5.252  14.198   9.123  0.0453  0.0396 -0.1668
  479loPI   C4B 7664   5.099  14.192   8.668 -0.0247  0.1738  0.2513
  480loPI    C1 7665  10.957  13.564  11.381 -0.2873  0.0092  0.0614
  480loPI    C2 7666  10.797  13.352  11.680 -0.1843  0.2737  0.3093
  480loPI    C3 7667  10.930  13.723  11.747  0.2975  0.1569  0.0502
  480loPI   PO4 7668  10.917  13.401  11.199 -0.3643  0.1114 -0.0135
  480loPI   GL1 7669  10.798  13.413  10.819 -0.1776 -0.0444  0.0328
  480loPI   GL2 7670  10.730  13.166  10.640  0.1646  0.0790 -0.0590
  480loPI   C1A 7671  10.918  13.609  10.374 -0.1024  0.1267  0.2618
  480loPI   C2A 7672  10.823  13.561   9.959  0.1602 -0.1535  0.3071
  480loPI   C3A 7673  10.822  13.516   9.482 -0.0642  0.1091  0.0396
  480loPI   C4A 7674  10.768  13.498   9.003  0.1506 -0.0085 -0.0825
  480loPI   C5A 7675  10.862  13.444   8.575 -0.2540 -0.0604  0.1464
  480loPI   C6A 7676  11.246  13.572   8.370  0.0478  0.4261  0.0610
  480loPI   C1B 7677  10.888  13.127  10.227  0.2561 -0.1696 -0.1061
  480loPI   C2B 7678  10.874  12.963   9.835 -0.0045 -0.3309  0.1404
  480loPI   C3B 7679  10.840  12.980   9.374 -0.0903 -0.0063 -0.1343
  480loPI   C4B 7680  10.945  13.038   8.955 -0.1916 -0.0964  0.0386
  481loPI    C1 7681  14.501  16.415  11.072  0.0163  0.1468 -0.0102
  481loPI    C2 7682  14.396  16.773  11.215  0.0825  0.1095  0.1342
  481loPI    C3 7683  14.607  16.521  11.443 -0.3125 -0.1840  0.1850
  481loPI   PO4 7684  14.568  16.450  10.804  0.1584  0.2862  0.0250
  481loPI   GL1 7685  14.450  16.596  10.425 -0.0952 -0.0951 -0.0702
  481loPI   GL2 7686  14.622  16.731  10.302 -0.2285 -0.3067  0.1098
  481loPI   C1A 7687  14.344  16.452   9.993  0.2120 -0.0221 -0.4024
  481loPI   C2A 7688  14.307  16.449   9.543  0.1193 -0.0845  0.1106
  481loPI   C3A 7689  14.219  16.536   9.157 -0.2554 -0.0491 -0.3167
  481loPI   C4A 7690  14.303  16.492   8.770 -0.1187 -0.1246  0.0183
  481loPI   C5A 7691  14.311  16.419   8.250  0.0608 -0.0513  0.1247
  481loPI   C6A 7692  14.349  16.429   7.853 -0.3386  0.1599 -0.1302
  481loPI   C1B 7693  14.677  16.767   9.823  0.0674 -0.0334  0.2418
  481loPI   C2B 7694  14.656  16.798   9.372  0.0667  0.1046 -0.2378
  481loPI   C3B 7695  14.635  16.856   8.972 -0.2634  0.0278  0.2555
  481loPI   C4B 7696  14.723  16.889   8.424  0.0350  0.2937  0.0593
  482loPI    C1 7697  17.184   6.329  11.061  0.2849  0.1231  0.0231
  482loPI    C2 7698  17.469   6.422  11.325  0.1420 -0.0569  0.2452
  482loPI    C3 7699  17.227   6.112  11.395 -0.0396  0.0288  0.0068
  482loPI   PO4 7700  17.179   6.431  10.878  0.1347  0.3694  0.2877
  482loPI   GL1 7701  16.855   6.366  10.613  0.2320  0.0444 -0.0942
  482loPI   GL2 7702  17.037   6.095  10.424  0.4360 -0.1944  0.3307
  482loPI   C1A 7703  16.859   6.495  10.229  0.1212 -0.1322 -0.2054
  482loPI   C2A 7704  16.957   6.461   9.828  0.1901  0.0211 -0.1457
  482loPI   C3A 7705  16.878   6.531   9.352  0.1533  0.1313 -0.2021
  482loPI   C4A 7706  16.802   6.538   8.979 -0.3322  0.3967 -0.0499
  482loPI   C5A 7707  16.820   6.520   8.492  0.1071 -0.0113  0.0799
  482loPI   C6A 7708  16.879   6.259   8.180 -0.1623 -0.1896 -0.3800
  482loPI   C1B 7709  17.006   5.963   9.977  0.0630  0.0104 -0.0420
  482loPI   C2B 7710  16.960   5.957   9.640  0.3443  0.0096  0.2464
  482loPI   C3B 7711  16.946   6.022   9.135  0.3364 -0.1332  0.4237
  482loPI   C4B 7712  16.904   6.029   8.667 -0.1749  0.0054  0.1144
  483loPI    C1 7713   5.769   0.597  10.494 -0.1562  0.3183  0.0913
  483loPI    C2 7714   5.895   0.438  10.838  0.0621  0.1340 -0.0707
  483loPI    C3 7715   5.545   0.629  10.823 -0.1247 -0.1795  0.1692
  483loPI   PO4 7716   5.954   0.692  10.413  0.0723  0.2445  0.2152
  483loPI   GL1 7717   6.103   0.555  10.105  0.0945 -0.1563  0.0684
  483loPI   GL2 7718   6.220   0.872  10.016  0.0639 -0.0173  0.4127
  483loPI   C1A 7719   6.141   0.430   9.746 -0.1057 -0.2178 -0.0521
  483loPI   C2A 7720   6.118   0.477   9.306 -0.3626 -0.0280 -0.0798
  483loPI   C3A 7721   6.004   0.392   8.915  0.0698 -0.0025 -0.0660
  483loPI   C4A 7722   5.846   0.319   8.413  0.2573  0.1456  0.1761
  483loPI   C5A 7723   5.666   0.240   7.983  0.0086  0.0048 -0.1575
  483loPI   C6A 7724   5.344   0.175   7.682  0.0619 -0.1683 -0.0895
  483loPI   C1B 7725   6.094   0.956   9.597  0.0498  0.0495  0.1002
  483loPI   C2B 7726   6.058   1.005   9.186 -0.3260  0.1786  0.1212
  483loPI   C3B 7727   6.050   0.858   8.731 -0.0338 -0.0331 -0.1045
  483loPI   C4B 7728   6.021   0.971   8.296 -0.0476 -0.0614 -0.1651
  484loPI    C1 7729  10.546  15.444  11.397 -0.0792 -0.1515  0.0670
  484loPI    C2 7730  10.393  15.710  11.141  0.1974 -0.0879 -0.0361
  484loPI    C3 7731  10.581  15.836  11.471  0.1459 -0.1617  0.0218
  484loPI   PO4 7732  10.629  15.270  11.111  0.1062 -0.2130 -0.1332
  484loPI   GL1 7733  10.618  15.194  10.706  0.2125 -0.0844  0.1747
  484loPI   GL2 7734  10.539  15.471  10.546 -0.2158  0.0055  0.0913
  484loPI   C1A 7735  10.600  15.076  10.245  0.2281  0.1103  0.0450
  484loPI   C2A 7736  10.524  14.981   9.802 -0.1727  0.1196 -0.2246
  484loPI   C3A 7737  10.564  14.981   9.388 -0.2082  0.2004  0.0662
  484loPI   C4A 7738  10.571  15.048   8.892  0.0875  0.0360 -0.3556
  484loPI   C5A 7739  10.541  15.063   8.466  0.0070 -0.2420 -0.2862
  484loPI   C6A 7740  10.677  15.510   8.248  0.0305  0.0400  0.0669
  484loPI   C1B 7741  10.500  15.656  10.166 -0.3049  0.1330 -0.2417
  484loPI   C2B 7742  10.509  15.466   9.705 -0.1923  0.2322  0.1940
  484loPI   C3B 7743  10.515  15.472   9.208  0.0414  0.0637  0.0662
  484loPI   C4B 7744  10.346  15.504   8.764  0.0667 -0.1433  0.0254
  485loPI    C1 7745  14.968   4.468  10.892  0.0864  0.0256 -0.1467
  485loPI    C2 7746  14.709   4.206  11.048  0.3690 -0.1308  0.0702
  485loPI    C3 7747  14.923   4.443  11.289  0.3077  0.1167 -0.1144
  485loPI   PO4 7748  14.855   4.548  10.684 -0.1825 -0.1780  0.1348
  485loPI   GL1 7749  14.606   4.488  10.452  0.0388 -0.3267 -0.1282
  485loPI   GL2 7750  14.540   4.130  10.581 -0.0787 -0.0661  0.2241
  485loPI   C1A 7751  14.505   4.465  10.021 -0.1177  0.0501 -0.1341
  485loPI   C2A 7752  14.448   4.529   9.572  0.0639 -0.2081 -0.3207
  485loPI   C3A 7753  14.482   4.511   9.153 -0.2244 -0.0719 -0.1802
  485loPI   C4A 7754  14.347   4.575   8.760 -0.4215 -0.0399  0.0739
  485loPI   C5A 7755  14.250   4.944   8.470  0.0710  0.1259  0.1093
  485loPI   C6A 7756  13.897   5.147   8.365 -0.1042  0.1611  0.1366
  485loPI   C1B 7757  14.684   4.008  10.159 -0.1083 -0.2420 -0.2094
  485loPI   C2B 7758  14.641   3.974   9.685  0.2724  0.3853  0.1236
  485loPI   C3B 7759  14.602   4.024   9.249 -0.3933  0.1241 -0.0795
  485loPI   C4B 7760  14.533   4.081   8.865 -0.2108 -0.2507 -0.0117
  486loPI    C1 7761   6.497  11.775  11.471  0.1208 -0.1088  0.0360
  486loPI    C2 7762   6.555  12.148  11.604 -0.5535 -0.0454  0.1854
  486loPI    C3 7763   6.546  11.842  11.862  0.0428 -0.1828  0.0588
  486loPI   PO4 7764   6.655  11.690  11.279  0.4182  0.0040  0.2036
  486loPI   GL1 7765   6.807  11.695  10.905  0.1976 -0.1431 -0.1925
  486loPI   GL2 7766   6.559  11.807  10.740 -0.0630 -0.1566  0.2956
  486loPI   C1A 7767   7.010  11.632  10.443 -0.2160  0.1278  0.0857
  486loPI   C2A 7768   7.074  11.719  10.004 -0.1454 -0.1475  0.0389
  486loPI   C3A 7769   7.043  11.600   9.569  0.2759  0.0788 -0.0275
  486loPI   C4A 7770   7.059  11.683   9.187 -0.1088  0.3148  0.1482
  486loPI   C5A 7771   7.049  11.601   8.741  0.3559  0.0841  0.1670
  486loPI   C6A 7772   7.078  11.562   8.229 -0.0206  0.2889 -0.1021
  486loPI   C1B 7773   6.602  11.844  10.269 -0.3350 -0.4586  0.1077
  486loPI   C2B 7774   6.599  11.846   9.879  0.2070 -0.1091  0.0906
  486loPI   C3B 7775   6.628  11.835   9.404  0.2577  0.3910 -0.1132
  486loPI   C4B 7776   6.600  11.795   8.950  0.0674 -0.1193 -0.1612
  487loPI    C1 7777  10.360   2.769  10.944 -0.1458  0.1079  0.0066
  487loPI    C2 7778  10.488   3.060  11.186  0.0051 -0.1173  0.2025
  487loPI    C3 7779  10.097   3.019  11.111 -0.0259  0.0699  0.2560
  487loPI   PO4 7780  10.563   2.801  10.753 -0.0964  0.0868 -0.1705
  487loPI   GL1 7781  10.598   2.861  10.390 -0.0566 -0.0440 -0.0522
  487loPI   GL2 7782  10.648   3.095  10.156  0.2157  0.0297 -0.1898
  487loPI   C1A 7783  10.821   2.630  10.069  0.0311 -0.2603 -0.0617
  487loPI   C2A 7784  10.886   2.617   9.658 -0.0438 -0.0007 -0.1377
  487loPI   C3A 7785  10.907   2.602   9.221  0.1007 -0.1815 -0.1569
  487loPI   C4A 7786  10.816   2.584   8.875 -0.2875  0.0349  0.1289
  487loPI   C5A 7787  10.773   2.620   8.444  0.1699  0.0620 -0.0411
  487loPI   C6A 7788  10.943   2.882   8.089  0.1707  0.1770 -0.1191
  487loPI   C1B 7789  10.682   3.067   9.657 -0.0554  0.2188 -0.0300
  487loPI   C2B 7790  10.780   3.109   9.297 -0.1744  0.1978  0.2628
  487loPI   C3B 7791  10.650   3.182   8.859  0.1095 -0.1409 -0.1978
  487loPI   C4B 7792  10.619   3.132   8.476 -0.1509  0.2100  0.0056
  488loPI    C1 7793   0.312  11.199  10.987 -0.2155 -0.1850 -0.0108
  488loPI    C2 7794   0.384  10.810  11.051  0.2500 -0.1013  0.0084
  488loPI    C3 7795   0.555  11.087  11.284  0.0905  0.1245 -0.1380
  488loPI   PO4 7796   0.270  11.191  10.710 -0.0131 -0.1580 -0.0479
  488loPI   GL1 7797   0.076  11.181  10.395  0.0050 -0.1779 -0.1980
  488loPI   GL2 7798  -0.103  11.409  10.273  0.0478  0.3668 -0.1306
  488loPI   C1A 7799  -0.024  10.927   9.953 -0.0055 -0.0155 -0.1508
  488loPI   C2A 7800  -0.000  10.813   9.519 -0.2681 -0.1394  0.3251
  488loPI   C3A 7801   0.025  10.686   9.049  0.0491 -0.1585 -0.1636
  488loPI   C4A 7802   0.023  10.705   8.614  0.1409  0.0999 -0.0587
  488loPI   C5A 7803   0.005  10.752   8.176 -0.0469 -0.0364  0.0110
  488loPI   C6A 7804  -0.010  11.235   7.981 -0.4284 -0.1895 -0.2262
  488loPI   C1B 7805  -0.108  11.375   9.843 -0.1888 -0.0126 -0.0364
  488loPI   C2B 7806  -0.124  11.341   9.435  0.0698  0.3170  0.2402
  488loPI   C3B 7807  -0.123  11.342   8.978 -0.1487  0.0880 -0.2060
  488loPI   C4B 7808  -0.117  11.204   8.533 -0.2683  0.0574  0.1082
  489loPI    C1 7809   9.440   4.208  10.876 -0.2033  0.1568 -0.2918
  489loPI    C2 7810   9.369   4.585  10.989  0.0902  0.1130  0.0562
  489loPI    C3 7811   9.102   4.299  11.069 -0.0490  0.2138 -0.0441
  489loPI   PO4 7812   9.524   4.219  10.672 -0.2451  0.2435  0.0122
  489loPI   GL1 7813   9.594   4.325  10.260 -0.0228 -0.2737 -0.1158
  489loPI   GL2 7814   9.373   4.053  10.234  0.2958 -0.0373  0.2420
  489loPI   C1A 7815   9.526   4.435   9.867  0.4665  0.1004  0.1370
  489loPI   C2A 7816   9.533   4.539   9.461  0.0408 -0.0796  0.2324
  489loPI   C3A 7817   9.493   4.496   9.014 -0.0844  0.2259 -0.0623
  489loPI   C4A 7818   9.543   4.543   8.626 -0.0175 -0.0122 -0.2885
  489loPI   C5A 7819   9.639   4.593   8.177 -0.2947 -0.0969  0.0696
  489loPI   C6A 7820  10.076   4.732   8.027 -0.2126 -0.1763  0.1723
  489loPI   C1B 7821   9.192   4.050   9.817 -0.1171 -0.1471 -0.1188
  489loPI   C2B 7822   9.131   4.206   9.391 -0.0705 -0.0660  0.0577
  489loPI   C3B 7823   9.053   4.204   8.995  0.0958  0.0261  0.0308
  489loPI   C4B 7824   9.180   4.167   8.697 -0.0163  0.0899 -0.0098
  490loPI    C1 7825  17.647  13.452  11.083  0.0588  0.1889  0.1670
  490loPI    C2 7826  17.922  13.188  11.204  0.0807  0.1353  0.0023
  490loPI    C3 7827  17.624  13.291  11.449 -0.0036 -0.1447  0.0205
  490loPI   PO4 7828  17.753  13.594  10.969  0.0480  0.3064 -0.0445
  490loPI   GL1 7829  17.916  13.600  10.659 -0.0602  0.0078 -0.1622
  490loPI   GL2 7830  17.560  13.461  10.514 -0.0109  0.2316 -0.0030
  490loPI   C1A 7831  17.923  13.764  10.296  0.0304 -0.1068  0.3616
  490loPI   C2A 7832  17.959  13.773   9.863 -0.0626  0.1021  0.0252
  490loPI   C3A 7833  17.981  13.586   9.529  0.1347  0.1061 -0.5896
  490loPI   C4A 7834  17.914  13.681   9.119  0.1846  0.3511 -0.1695
  490loPI   C5A 7835  17.901  13.664   8.729  0.4285  0.1385 -0.1113
  490loPI   C6A 7836  17.897  13.300   8.401 -0.0778 -0.2802  0.1494
  490loPI   C1B 7837  17.593  13.370  10.165 -0.1821  0.0890 -0.0400
  490loPI   C2B 7838  17.500  13.494   9.750 -0.2819 -0.0454 -0.0323
  490loPI   C3B 7839  17.506  13.394   9.293  0.0038 -0.1673 -0.0317
  490loPI   C4B 7840  17.438  13.320   8.863 -0.2858  0.4420 -0.2095
  491loPI    C1 7841  12.867   6.731  11.056 -0.0678  0.1945 -0.0745
  491loPI    C2 7842  12.625   7.023  11.183 -0.0384  0.2013 -0.0338
  491loPI    C3 7843  12.964   7.114  10.991 -0.0740  0.1915 -0.1013
  491loPI   PO4 7844  12.669   6.507  10.956 -0.1889  0.2887 -0.0538
  491loPI   GL1 7845  12.485   6.687  10.573 -0.1719  0.2398  0.0191
  491loPI   GL2 7846  12.613   6.950  10.654  0.0703  0.1472 -0.1501
  491loPI   C1A 7847  12.329   6.748  10.162 -0.2224 -0.1701 -0.1841
  491loPI   C2A 7848  12.345   6.792   9.705 -0.4630  0.1008 -0.1612
  491loPI   C3A 7849  12.370   6.806   9.322  0.1141  0.0177  0.1114
  491loPI   C4A 7850  12.370   6.764   8.903 -0.1028 -0.1225 -0.1571
  491loPI   C5A 7851  12.229   6.703   8.484 -0.1060  0.0163  0.0088
  491loPI   C6A 7852  12.253   6.821   8.141  0.0378 -0.0823  0.4298
  491loPI   C1B 7853  12.735   7.055  10.315 -0.1216  0.0700  0.1442
  491loPI   C2B 7854  12.735   7.028   9.971  0.0574  0.2465 -0.0550
  491loPI   C3B 7855  12.741   7.100   9.490 -0.1397  0.2948 -0.0409
  491loPI   C4B 7856  12.733   7.085   9.028 -0.0140 -0.2183  0.1007
  492loPI    C1 7857   6.223   2.706  11.081 -0.0330 -0.2202  0.2356
  492loPI    C2 7858   6.171   3.084  11.203 -0.0310 -0.1471  0.0144
  492loPI    C3 7859   6.055   2.781  11.437  0.0891 -0.0133  0.2520
  492loPI   PO4 7860   6.206   2.741  10.787 -0.2428 -0.0536  0.1883
  492loPI   GL1 7861   6.405   2.795  10.383 -0.1237 -0.0566  0.0044
  492loPI   GL2 7862   6.688   3.071  10.352 -0.2002  0.1008  0.0776
  492loPI   C1A 7863   6.124   2.941  10.061 -0.0494  0.2371 -0.2019
  492loPI   C2A 7864   6.150   2.995   9.661  0.2398  0.1778 -0.2513
  492loPI   C3A 7865   6.204   2.922   9.236  0.1434 -0.2313 -0.0003
  492loPI   C4A 7866   6.154   2.838   8.779  0.2839 -0.0855 -0.1818
  492loPI   C5A 7867   6.240   2.912   8.431 -0.2299 -0.2449  0.3704
  492loPI   C6A 7868   6.530   3.115   8.014 -0.3382 -0.3392  0.0274
  492loPI   C1B 7869   6.545   3.221   9.951 -0.1239 -0.1747 -0.0851
  492loPI   C2B 7870   6.567   3.249   9.473  0.0416  0.0815 -0.0072
  492loPI   C3B 7871   6.509   3.250   9.001 -0.1453  0.1089  0.0742
  492loPI   C4B 7872   6.592   3.214   8.540  0.0281 -0.2157  0.0962
  493loPI    C1 7873   5.827  14.872  11.038 -0.1734  0.0386 -0.0023
  493loPI    C2 7874   5.825  15.244  11.186 -0.1010 -0.0231  0.1563
  493loPI    C3 7875   5.778  14.931  11.431 -0.1317 -0.1201  0.0277
  493loPI   PO4 7876   5.687  14.972  10.748 -0.0323  0.0318 -0.1166
  493loPI   GL1 7877   5.803  14.983  10.325  0.0410 -0.2892 -0.1716
  493loPI   GL2 7878   6.056  14.909  10.243 -0.0724  0.2326  0.0763
  493loPI   C1A 7879   5.708  15.068   9.854 -0.1874  0.1448 -0.1582
  493loPI   C2A 7880   5.764  15.072   9.443 -0.1587 -0.3354  0.0827
  493loPI   C3A 7881   5.600  15.028   9.027  0.0934 -0.0132 -0.2414
  493loPI   C4A 7882   5.449  15.037   8.546 -0.1763 -0.2740  0.0038
  493loPI   C5A 7883   5.686  14.863   8.220  0.0789 -0.0509  0.0757
  493loPI   C6A 7884   5.808  14.455   8.071 -0.2041  0.1569 -0.2053
  493loPI   C1B 7885   6.182  14.873   9.853  0.1086  0.1583  0.1800
  493loPI   C2B 7886   6.215  14.892   9.486  0.0837 -0.0089 -0.2233
  493loPI   C3B 7887   6.072  14.891   9.109 -0.0248  0.0743  0.3095
  493loPI   C4B 7888   5.915  14.854   8.679 -0.0086 -0.1449  0.1236
  494loPI    C1 7889  10.557   8.706  10.791  0.0485 -0.0100 -0.0872
  494loPI    C2 7890  10.771   8.854  11.096  0.0623  0.1025 -0.1509
  494loPI    C3 7891  10.372   8.830  11.124  0.0848 -0.1445 -0.0163
  494loPI   PO4 7892  10.742   8.820  10.621 -0.2044 -0.1928 -0.3098
  494loPI   GL1 7893  10.604   8.874  10.143  0.0792  0.1495 -0.3164
  494loPI   GL2 7894  10.314   8.945  10.078  0.0781  0.2513 -0.0058
  494loPI   C1A 7895  10.663   8.779   9.703 -0.1237  0.2074  0.0296
  494loPI   C2A 7896  10.598   8.804   9.248 -0.3254  0.2614  0.0545
  494loPI   C3A 7897  10.607   8.821   8.854 -0.1733 -0.0571  0.1451
  494loPI   C4A 7898  10.656   8.674   8.402 -0.0743 -0.0586  0.2146
  494loPI   C5A 7899  10.576   8.713   7.981 -0.3509 -0.1333 -0.0901
  494loPI   C6A 7900  10.624   8.780   7.505 -0.2513 -0.1685  0.0276
  494loPI   C1B 7901  10.205   8.965   9.558 -0.1098  0.4031  0.0276
  494loPI   C2B 7902  10.182   8.971   9.070  0.0959 -0.0051 -0.1308
  494loPI   C3B 7903  10.079   8.981   8.688 -0.3061 -0.0057 -0.0602
  494loPI   C4B 7904  10.126   8.963   8.315 -0.2195 -0.1831  0.0325
  495loPI    C1 7905   5.268  16.297  10.663 -0.1057  0.0697  0.0920
  495loPI    C2 7906   5.638  16.397  10.776 -0.0317 -0.1112  0.0149
  495loPI    C3 7907   5.328  16.630  10.876  0.0694 -0.1005  0.3138
  495loPI   PO4 7908   5.283  16.202  10.381  0.0308 -0.2456 -0.2580
  495loPI   GL1 7909   5.438  16.356  10.024  0.1332  0.1274 -0.1690
  495loPI   GL2 7910   5.573  16.054   9.998 -0.1538  0.2095 -0.1136
  495loPI   C1A 7911   5.843  16.399   9.719 -0.2441 -0.0906 -0.1653
  495loPI   C2A 7912   5.972  16.483   9.337  0.0792 -0.0758 -0.0144
  495loPI   C3A 7913   5.825  16.366   8.924  0.0453 -0.0049  0.1189
  495loPI   C4A 7914   5.754  16.316   8.473  0.0574  0.2984 -0.0264
  495loPI   C5A 7915   5.770  16.052   8.085 -0.2535 -0.0259 -0.1581
  495loPI   C6A 7916   5.444  15.818   7.919 -0.0047  0.1427  0.0629
  495loPI   C1B 7917   5.365  16.078   9.638 -0.0666 -0.0716  0.0387
  495loPI   C2B 7918   5.469  15.978   9.237 -0.1337 -0.1720  0.4086
  495loPI   C3B 7919   5.427  16.085   8.754 -0.3609  0.0835 -0.2023
  495loPI   C4B 7920   5.364  16.080   8.331  0.1006  0.3547  0.1043
  496loPI    C1 7921   7.943   4.092  10.654  0.2053  0.0117  0.0524
  496loPI    C2 7922   7.981   3.782  10.903 -0.1603 -0.0226  0.0707
  496loPI    C3 7923   7.804   4.118  11.028  0.0396  0.1163 -0.0152
  496loPI   PO4 7924   7.977   3.952  10.413 -0.1416 -0.1560 -0.1819
  496loPI   GL1 7925   7.857   4.048  10.136 -0.1016 -0.1004 -0.1135
  496loPI   GL2 7926   7.579   4.123  10.137  0.1195 -0.1141  0.0425
  496loPI   C1A 7927   7.696   3.679   9.834  0.0168 -0.0052 -0.0055
  496loPI   C2A 7928   7.850   3.720   9.426 -0.2258  0.0747  0.0778
  496loPI   C3A 7929   7.844   3.676   8.958 -0.0741 -0.1953 -0.0699
  496loPI   C4A 7930   7.727   3.626   8.625  0.2092 -0.0192  0.2747
  496loPI   C5A 7931   7.853   3.752   8.181 -0.2956  0.0496 -0.0623
  496loPI   C6A 7932   7.770   3.804   7.672 -0.3864  0.0068 -0.0573
  496loPI   C1B 7933   7.639   4.216   9.738 -0.0338  0.2305 -0.2632
  496loPI   C2B 7934   7.772   4.172   9.386 -0.1154 -0.3345  0.0201
  496loPI   C3B 7935   7.760   4.185   8.903 -0.1625  0.0404 -0.0109
  496loPI   C4B 7936   7.707   4.112   8.456 -0.3351  0.1532 -0.2829
  497loPI    C1 7937   6.951   0.518  10.518 -0.0084 -0.2705 -0.1332
  497loPI    C2 7938   7.040   0.222  10.773  0.0211 -0.0572  0.1081
  497loPI    C3 7939   6.846   0.547  10.903 -0.1516 -0.0380 -0.1881
  497loPI   PO4 7940   7.074   0.485  10.372 -0.1238 -0.4806  0.0982
  497loPI   GL1 7941   7.327   0.389   9.964 -0.1663 -0.2338  0.0519
  497loPI   GL2 7942   7.028   0.475   9.837 -0.0883 -0.0044  0.0048
  497loPI   C1A 7943   7.490   0.535   9.576  0.2436  0.3826  0.0167
  497loPI   C2A 7944   7.448   0.370   9.145  0.0256  0.2364 -0.1095
  497loPI   C3A 7945   7.467   0.336   8.689  0.1216 -0.0987  0.1810
  497loPI   C4A 7946   7.217   0.402   8.272  0.0223  0.2341 -0.2249
  497loPI   C5A 7947   7.198   0.295   7.868 -0.0882  0.0252  0.0636
  497loPI   C6A 7948   7.275   0.173   7.430  0.1946  0.1769 -0.1205
  497loPI   C1B 7949   7.006   0.592   9.373 -0.3364  0.0308 -0.2106
  497loPI   C2B 7950   6.984   0.479   8.996  0.0380  0.2075  0.1237
  497loPI   C3B 7951   6.884   0.642   8.569 -0.1306  0.1116 -0.0056
  497loPI   C4B 7952   6.763   0.584   8.134 -0.0786 -0.0372 -0.1648
  498loPI    C1 7953  12.717  16.467  11.407 -0.1349  0.1212  0.1710
  498loPI    C2 7954  12.999  16.336  11.659 -0.1197 -0.0141  0.0844
  498loPI    C3 7955  12.718  16.590  11.787 -0.0206  0.0388  0.1978
  498loPI   PO4 7956  12.850  16.477  11.138  0.0262  0.0353  0.1134
  498loPI   GL1 7957  12.731  16.344  10.818  0.0593 -0.0208 -0.0165
  498loPI   GL2 7958  12.863  16.654  10.691 -0.0053  0.0263 -0.1947
  498loPI   C1A 7959  12.606  16.186  10.453  0.1606 -0.0436 -0.0783
  498loPI   C2A 7960  12.646  16.073  10.040 -0.0514 -0.0087  0.2291
  498loPI   C3A 7961  12.632  16.095   9.588  0.1275  0.1660  0.1936
  498loPI   C4A 7962  12.562  16.165   9.105  0.0017  0.5159  0.1082
  498loPI   C5A 7963  12.513  16.161   8.682  0.0625  0.2305 -0.2328
  498loPI   C6A 7964  12.716  16.078   8.325  0.1365 -0.2451  0.0600
  498loPI   C1B 7965  12.988  16.542  10.275  0.1009 -0.0940  0.3840
  498loPI   C2B 7966  12.987  16.412   9.892  0.1339  0.0265  0.1747
  498loPI   C3B 7967  12.980  16.506   9.432 -0.0620  0.1878 -0.0481
  498loPI   C4B 7968  12.961  16.452   9.045 -0.0317  0.1836  0.0401
  499loPI    C1 7969  13.407   1.650  11.023 -0.2461  0.0748  0.0886
  499loPI    C2 7970  13.746   1.504  11.177 -0.3316 -0.2599 -0.0318
  499loPI    C3 7971  13.441   1.600  11.419 -0.2117 -0.1128  0.0628
  499loPI   PO4 7972  13.470   1.489  10.760 -0.1397 -0.2686  0.0394
  499loPI   GL1 7973  13.534   1.680  10.393  0.2459  0.2168 -0.2127
  499loPI   GL2 7974  13.724   1.448  10.253  0.0418  0.0901  0.1117
  499loPI   C1A 7975  13.207   1.683  10.052 -0.3166  0.2259 -0.0029
  499loPI   C2A 7976  13.246   1.595   9.692  0.0386 -0.0514  0.0497
  499loPI   C3A 7977  13.272   1.666   9.285  0.0306  0.1378 -0.0260
  499loPI   C4A 7978  13.223   1.705   8.877 -0.1298  0.1867  0.1046
  499loPI   C5A 7979  13.157   1.672   8.381  0.0656 -0.2281 -0.0604
  499loPI   C6A 7980  12.988   1.475   7.979 -0.1620  0.1012  0.1646
  499loPI   C1B 7981  13.739   1.500   9.779 -0.0801 -0.1695  0.0809
  499loPI   C2B 7982  13.777   1.498   9.341 -0.1210  0.1782  0.2122
  499loPI   C3B 7983  13.751   1.577   8.883  0.0983  0.2128 -0.0318
  499loPI   C4B 7984  13.719   1.557   8.433 -0.2664 -0.2698 -0.0995
  500loPI    C1 7985  10.563   5.530  10.993 -0.0609 -0.1604  0.0242
  500loPI    C2 7986  10.905   5.492  10.788 -0.0516  0.0098  0.0068
  500loPI    C3 7987  10.860   5.792  11.049 -0.2144  0.0302 -0.0437
  500loPI   PO4 7988  10.362   5.565  10.857  0.0346  0.0087  0.0011
  500loPI   GL1 7989  10.293   5.593  10.484  0.1701  0.0127 -0.3495
  500loPI   GL2 7990  10.303   5.315  10.434 -0.1749  0.0881  0.0911
  500loPI   C1A 7991  10.323   5.638  10.111  0.0597  0.1257  0.1071
  500loPI   C2A 7992  10.275   5.675   9.710  0.0640  0.0118 -0.1144
  500loPI   C3A 7993  10.271   5.558   9.310 -0.1919  0.0235  0.1864
  500loPI   C4A 7994  10.209   5.764   9.031 -0.1702  0.3326  0.0733
  500loPI   C5A 7995  10.336   5.946   8.664 -0.2661 -0.0186 -0.2186
  500loPI   C6A 7996  10.697   6.001   8.333  0.0182 -0.1267  0.1163
  500loPI   C1B 7997  10.354   5.135   9.986 -0.3888 -0.3101  0.1354
  500loPI   C2B 7998  10.316   5.132   9.625  0.2420 -0.2289 -0.2297
  500loPI   C3B 7999  10.299   5.036   9.198  0.1615  0.1640 -0.1450
  500loPI   C4B 8000  10.320   5.165   8.865 -0.2110  0.0230  0.2279
  501loPI    C1 8001   1.357   3.017  10.346 -0.0609  0.1959 -0.1183
  501loPI    C2 8002   1.526   3.093  10.701 -0.1936  0.0466 -0.0221
  501loPI    C3 8003   1.342   2.743  10.637 -0.4075  0.1797 -0.1474
  501loPI   PO4 8004   1.562   3.028  10.208  0.0573  0.1225  0.1259
  501loPI   GL1 8005   1.778   3.183   9.928  0.2227  0.0112  0.2165
  501loPI   GL2 8006   2.060   2.894  10.004  0.3823  0.0749  0.0813
  501loPI   C1A 8007   2.079   3.187   9.578  0.3569 -0.2962 -0.3043
  501loPI   C2A 8008   2.118   3.206   9.129 -0.1137 -0.3016 -0.1685
  501loPI   C3A 8009   2.026   3.142   8.743  0.0166  0.0897  0.2147
  501loPI   C4A 8010   2.099   3.036   8.365 -0.0664  0.1712 -0.1941
  501loPI   C5A 8011   1.998   2.821   8.009  0.1344  0.0969 -0.0988
  501loPI   C6A 8012   1.595   2.775   7.887 -0.1816 -0.1839  0.0042
  501loPI   C1B 8013   2.134   2.727   9.656 -0.1110  0.0546  0.3342
  501loPI   C2B 8014   2.110   2.617   9.278  0.0249 -0.3916 -0.2671
  501loPI   C3B 8015   2.145   2.595   8.777  0.0257  0.0604  0.1591
  501loPI   C4B 8016   2.265   2.531   8.434 -0.0642 -0.1546 -0.1164
  502loPI    C1 8017   3.709   6.605  11.310 -0.0504 -0.0387  0.2520
  502loPI    C2 8018   3.974   6.389  11.517  0.1022  0.0512  0.1525
  502loPI    C3 8019   3.668   6.564  11.705  0.1442 -0.0075  0.2764
  502loPI   PO4 8020   3.978   6.700  11.085 -0.0236  0.2869  0.2064
  502loPI   GL1 8021   4.247   6.584  10.696  0.1444 -0.0836 -0.0008
  502loPI   GL2 8022   4.399   6.356  10.552 -0.0113 -0.0306  0.3290
  502loPI   C1A 8023   4.278   6.616  10.176  0.1999 -0.0135 -0.2684
  502loPI   C2A 8024   4.280   6.582   9.718 -0.3155  0.0754 -0.0791
  502loPI   C3A 8025   4.308   6.574   9.357  0.0846  0.0573 -0.0481
  502loPI   C4A 8026   4.277   6.556   8.978 -0.6217  0.3398  0.2968
  502loPI   C5A 8027   4.342   6.229   8.564 -0.2568 -0.0861  0.2033
  502loPI   C6A 8028   4.291   6.131   8.100  0.1467  0.0567  0.0852
  502loPI   C1B 8029   4.304   6.010  10.220  0.3146  0.0808 -0.2152
  502loPI   C2B 8030   4.433   6.064   9.878 -0.2349  0.0362  0.1853
  502loPI   C3B 8031   4.385   6.079   9.468 -0.1871 -0.3015  0.0092
  502loPI   C4B 8032   4.265   6.031   9.020 -0.0335 -0.0311  0.1762
  503loPI    C1 8033  17.102   3.681  10.266  0.2613  0.1454  0.0511
  503loPI    C2 8034  17.181   3.858  10.616  0.1314 -0.0031  0.1567
  503loPI    C3 8035  17.087   3.469  10.605 -0.2456  0.0875  0.0007
  503loPI   PO4 8036  17.154   3.822  10.093  0.0369 -0.2408  0.1111
  503loPI   GL1 8037  17.080   3.765   9.661  0.0458 -0.0395 -0.0548
  503loPI   GL2 8038  16.838   3.630   9.682 -0.0132  0.1014 -0.2094
  503loPI   C1A 8039  17.084   3.713   9.258 -0.1561 -0.1540 -0.1671
  503loPI   C2A 8040  17.140   3.851   8.934  0.0100  0.0263  0.1404
  503loPI   C3A 8041  17.180   4.044   8.588 -0.0856  0.0127 -0.2625
  503loPI   C4A 8042  17.306   4.087   8.233  0.0960 -0.2550  0.0008
  503loPI   C5A 8043  17.392   4.018   7.815  0.1507 -0.1254  0.0299
  503loPI   C6A 8044  17.608   4.085   7.420 -0.0281  0.0886 -0.3685
  503loPI   C1B 8045  16.633   3.875   9.350  0.2444  0.0054 -0.0279
  503loPI   C2B 8046  16.530   3.977   8.933 -0.2574  0.0621 -0.1698
  503loPI   C3B 8047  16.658   4.037   8.635  0.0584 -0.2407  0.1080
  503loPI   C4B 8048  16.832   3.948   8.152 -0.2361  0.2008 -0.0507
  504loPI    C1 8049   8.413   6.173  11.128  0.0434 -0.0267  0.0780
  504loPI    C2 8050   8.207   6.088  11.459 -0.2675  0.2378 -0.0422
  504loPI    C3 8051   8.103   5.921  11.111  0.0040  0.0281 -0.0261
  504loPI   PO4 8052   8.431   6.339  11.044 -0.1537  0.1691 -0.2370
  504loPI   GL1 8053   8.565   6.427  10.648  0.1236 -0.0827 -0.0930
  504loPI   GL2 8054   8.468   6.104  10.550 -0.1728 -0.0216  0.1768
  504loPI   C1A 8055   8.727   6.598  10.369  0.0737  0.4009  0.2861
  504loPI   C2A 8056   8.749   6.673   9.970  0.2882  0.0352  0.0172
  504loPI   C3A 8057   8.714   6.662   9.498 -0.0506  0.2728 -0.0485
  504loPI   C4A 8058   8.736   6.631   9.099 -0.0866  0.2217  0.1087
  504loPI   C5A 8059   8.591   6.735   8.722  0.3968  0.0261  0.0234
  504loPI   C6A 8060   8.547   6.701   8.301  0.2702  0.1081  0.0755
  504loPI   C1B 8061   8.348   6.319  10.133  0.2049 -0.0974 -0.0576
  504loPI   C2B 8062   8.401   6.333   9.701  0.2784  0.2908  0.1551
  504loPI   C3B 8063   8.386   6.342   9.307  0.2801  0.1854 -0.0440
  504loPI   C4B 8064   8.270   6.295   8.879  0.1511 -0.2328  0.3493
  505loPI    C1 8065  12.137   9.853  11.223 -0.1084  0.2341 -0.1911
  505loPI    C2 8066  12.136  10.174  11.461 -0.2201  0.1294 -0.0484
  505loPI    C3 8067  11.934   9.846  11.567  0.1861 -0.1182 -0.0168
  505loPI   PO4 8068  12.374   9.826  11.065 -0.4986 -0.1238 -0.2886
  505loPI   GL1 8069  12.363   9.780  10.616 -0.2755  0.2967 -0.0767
  505loPI   GL2 8070  12.365  10.053  10.535  0.1754 -0.0331  0.1479
  505loPI   C1A 8071  12.426   9.623  10.221 -0.0582  0.2175  0.2184
  505loPI   C2A 8072  12.335   9.617   9.774 -0.1682 -0.0363 -0.0565
  505loPI   C3A 8073  12.267   9.619   9.302  0.0389  0.0973  0.1005
  505loPI   C4A 8074  12.288   9.656   8.878  0.1826  0.2081  0.3324
  505loPI   C5A 8075  12.285   9.641   8.518 -0.0628 -0.2169 -0.2057
  505loPI   C6A 8076  12.284   9.975   8.242 -0.2510 -0.4144  0.1506
  505loPI   C1B 8077  12.319  10.076  10.088  0.1520  0.0124 -0.2232
  505loPI   C2B 8078  12.306  10.119   9.605 -0.2698 -0.1562 -0.1340
  505loPI   C3B 8079  12.191  10.138   9.182 -0.0606 -0.1397 -0.1775
  505loPI   C4B 8080  12.159  10.100   8.734  0.0669  0.3640 -0.0102
  506loPI    C1 8081   7.741  12.914  11.126  0.1345 -0.1321 -0.1361
  506loPI    C2 8082   8.021  13.112  10.918  0.0587 -0.0352 -0.1467
  506loPI    C3 8083   7.986  13.169  11.313  0.1664 -0.1777 -0.1155
  506loPI   PO4 8084   7.662  12.781  10.916 -0.0163  0.0169 -0.1896
  506loPI   GL1 8085   7.785  12.812  10.476  0.0669  0.3303 -0.3500
  506loPI   GL2 8086   8.110  12.782  10.467 -0.0717  0.1800 -0.0014
  506loPI   C1A 8087   7.792  12.770  10.020 -0.0117 -0.3000  0.1092
  506loPI   C2A 8088   7.744  12.831   9.584  0.0050  0.2090 -0.0743
  506loPI   C3A 8089   7.799  12.727   9.239 -0.2557  0.1006  0.0433
  506loPI   C4A 8090   7.755  12.838   8.833 -0.0496 -0.2054  0.4132
  506loPI   C5A 8091   7.899  12.568   8.533 -0.0952  0.1042 -0.0219
  506loPI   C6A 8092   8.074  12.480   8.116  0.1601 -0.0247 -0.1977
  506loPI   C1B 8093   8.270  12.661  10.177  0.0066 -0.2255 -0.0209
  506loPI   C2B 8094   8.284  12.650   9.810  0.1138  0.1993  0.1842
  506loPI   C3B 8095   8.222  12.572   9.360  0.1097  0.0491 -0.0530
  506loPI   C4B 8096   8.287  12.633   8.887 -0.0078  0.0779  0.1189
  507loPI    C1 8097   7.088  13.380  11.464 -0.0514  0.0590 -0.0655
  507loPI    C2 8098   6.948  13.735  11.584  0.1268  0.1077  0.0015
  507loPI    C3 8099   6.873  13.406  11.800  0.1182  0.1339  0.0384
  507loPI   PO4 8100   7.098  13.438  11.227  0.2292 -0.0006  0.1101
  507loPI   GL1 8101   7.236  13.435  10.754  0.2677  0.0998 -0.3241
  507loPI   GL2 8102   7.492  13.238  10.621 -0.0248 -0.1821 -0.1158
  507loPI   C1A 8103   7.370  13.532  10.270 -0.1229  0.0975  0.0046
  507loPI   C2A 8104   7.248  13.490   9.914  0.0005 -0.0597 -0.0343
  507loPI   C3A 8105   7.189  13.469   9.555  0.1276  0.1512 -0.3096
  507loPI   C4A 8106   7.209  13.548   9.156  0.3785  0.0307 -0.1595
  507loPI   C5A 8107   7.093  13.391   8.701  0.1380 -0.3376 -0.1204
  507loPI   C6A 8108   6.716  13.235   8.493 -0.0903  0.1078  0.0148
  507loPI   C1B 8109   7.410  13.030  10.286  0.1054 -0.0158 -0.2892
  507loPI   C2B 8110   7.354  13.000   9.818 -0.0674 -0.0660 -0.2552
  507loPI   C3B 8111   7.284  12.969   9.370 -0.2155 -0.4168  0.1381
  507loPI   C4B 8112   7.235  12.894   8.923 -0.3241 -0.3075 -0.0613
  508loPI    C1 8113  17.680   4.016  10.599  0.1135  0.1759 -0.2190
  508loPI    C2 8114  17.985   4.268  10.543  0.0865  0.2201 -0.1684
  508loPI    C3 8115  18.024   3.959  10.794  0.1106  0.1893 -0.2100
  508loPI   PO4 8116  17.573   4.044  10.337 -0.0914  0.2937 -0.0898
  508loPI   GL1 8117  17.684   4.197  10.009  0.1593  0.0102  0.0575
  508loPI   GL2 8118  18.042   4.350  10.042 -0.1066 -0.0526  0.1824
  508loPI   C1A 8119  17.597   3.934   9.688 -0.0204  0.0806  0.0379
  508loPI   C2A 8120  17.446   4.094   9.266  0.0290  0.3789  0.1069
  508loPI   C3A 8121  17.585   4.259   8.891  0.1034 -0.0158 -0.2270
  508loPI   C4A 8122  17.707   4.314   8.500  0.1724  0.1135 -0.2866
  508loPI   C5A 8123  17.948   4.125   8.263  0.0757  0.1269  0.0137
  508loPI   C6A 8124  17.905   3.908   7.860  0.0311 -0.0559  0.0713
  508loPI   C1B 8125  18.042   4.554   9.542 -0.1848  0.1454 -0.2849
  508loPI   C2B 8126  18.127   4.559   9.088  0.1328 -0.0393  0.0476
  508loPI   C3B 8127  18.218   4.637   8.661 -0.2527 -0.1529 -0.0880
  508loPI   C4B 8128  18.227   4.623   8.247  0.2124 -0.0403  0.1170
  509loPI    C1 8129   2.577   6.570  10.997 -0.0473 -0.0285  0.1380
  509loPI    C2 8130   2.273   6.315  11.046 -0.0523  0.0013  0.2681
  509loPI    C3 8131   2.342   6.598  11.320 -0.0148  0.1067  0.1506
  509loPI   PO4 8132   2.606   6.566  10.711  0.0903  0.0116 -0.1485
  509loPI   GL1 8133   2.491   6.734  10.377 -0.0985 -0.1309  0.4256
  509loPI   GL2 8134   2.373   6.337  10.325  0.1666 -0.0960 -0.1833
  509loPI   C1A 8135   2.404   6.867   9.948  0.1819 -0.3487 -0.2277
  509loPI   C2A 8136   2.466   6.895   9.589 -0.1944  0.3148  0.0162
  509loPI   C3A 8137   2.539   6.934   9.223 -0.0343  0.2083  0.0182
  509loPI   C4A 8138   2.649   7.007   8.676 -0.0654 -0.2890 -0.2024
  509loPI   C5A 8139   2.481   7.106   8.218 -0.2155 -0.2886 -0.0944
  509loPI   C6A 8140   2.308   7.495   7.940 -0.2791  0.3606  0.3820
  509loPI   C1B 8141   2.563   6.414   9.962 -0.2967 -0.0108  0.0722
  509loPI   C2B 8142   2.564   6.382   9.531  0.1732  0.2026  0.1199
  509loPI   C3B 8143   2.526   6.464   9.095  0.4053  0.2466  0.2151
  509loPI   C4B 8144   2.663   6.547   8.828  0.0624 -0.0929 -0.0222
  510loPI    C1 8145   9.557   9.665  10.837  0.0150  0.2028 -0.0328
  510loPI    C2 8146   9.895   9.725  11.041 -0.0100  0.0814  0.0454
  510loPI    C3 8147   9.677   9.397  11.108  0.0219  0.0004 -0.2329
  510loPI   PO4 8148   9.599   9.630  10.590  0.2654 -0.0739  0.0232
  510loPI   GL1 8149   9.752   9.694  10.233  0.1262 -0.1627  0.1150
  510loPI   GL2 8150  10.003   9.934  10.061  0.2525 -0.0485 -0.2560
  510loPI   C1A 8151   9.609   9.770   9.780 -0.1164 -0.1988 -0.1908
  510loPI   C2A 8152   9.613   9.711   9.299 -0.1627 -0.1398 -0.0963
  510loPI   C3A 8153   9.537   9.671   8.832 -0.1351  0.3421 -0.0569
  510loPI   C4A 8154   9.704   9.426   8.441  0.1524  0.0967  0.2325
  510loPI   C5A 8155   9.364   9.351   8.069  0.1131  0.0605  0.1122
  510loPI   C6A 8156   9.090   9.563   7.832 -0.1171 -0.4001  0.0814
  510loPI   C1B 8157  10.021  10.068   9.682  0.2778  0.1969 -0.1646
  510loPI   C2B 8158  10.034   9.974   9.195  0.2187  0.0322 -0.1109
  510loPI   C3B 8159   9.916  10.033   8.822  0.0322  0.2379  0.0163
  510loPI   C4B 8160   9.842   9.968   8.356  0.0566 -0.0736 -0.0483
  511loPI    C1 8161   5.132   9.181  11.157  0.0148 -0.0787  0.1577
  511loPI    C2 8162   5.368   9.227  11.477  0.1088  0.2001  0.0509
  511loPI    C3 8163   4.978   9.317  11.501  0.0612 -0.0285  0.1587
  511loPI   PO4 8164   5.272   9.233  10.968 -0.0452  0.5576  0.1170
  511loPI   GL1 8165   5.254   9.100  10.566 -0.0428 -0.1673  0.0717
  511loPI   GL2 8166   5.055   8.771  10.438  0.2721  0.1054 -0.0932
  511loPI   C1A 8167   5.323   9.055  10.173  0.1045  0.1317 -0.2316
  511loPI   C2A 8168   5.324   9.006   9.754 -0.4151 -0.0727 -0.0212
  511loPI   C3A 8169   5.324   8.994   9.344  0.0860 -0.0102  0.0737
  511loPI   C4A 8170   5.405   8.930   8.945  0.2818 -0.1860 -0.1148
  511loPI   C5A 8171   5.240   9.093   8.617 -0.3043  0.0253 -0.1338
  511loPI   C6A 8172   5.345   9.544   8.580 -0.1818  0.2205  0.1286
  511loPI   C1B 8173   4.954   8.686  10.060 -0.0726  0.1593 -0.1105
  511loPI   C2B 8174   4.933   8.695   9.660 -0.2776 -0.0203 -0.0545
  511loPI   C3B 8175   4.954   8.634   9.216 -0.1805 -0.2098 -0.2958
  511loPI   C4B 8176   4.990   8.696   8.779  0.1430  0.0642  0.3091
  512loPI    C1 8177  16.687  12.315  11.169  0.0350  0.1256 -0.0964
  512loPI    C2 8178  16.541  12.679  11.250  0.0123  0.0842  0.0504
  512loPI    C3 8179  16.681  12.448  11.546  0.1983  0.0468 -0.0648
  512loPI   PO4 8180  16.706  12.358  10.874  0.0093 -0.2858 -0.2919
  512loPI   GL1 8181  16.449  12.151  10.591  0.0426  0.1168  0.4603
  512loPI   GL2 8182  16.351  12.467  10.435 -0.3480 -0.4258  0.2330
  512loPI   C1A 8183  16.446  11.913  10.142 -0.1551  0.2558  0.0925
  512loPI   C2A 8184  16.497  11.966   9.716 -0.5088 -0.2764  0.1688
  512loPI   C3A 8185  16.442  11.956   9.304  0.2796  0.0037  0.2551
  512loPI   C4A 8186  16.437  11.879   8.969 -0.1790  0.3122 -0.1387
  512loPI   C5A 8187  16.376  11.749   8.625  0.1845 -0.1736  0.1353
  512loPI   C6A 8188  15.989  11.513   8.347 -0.0891  0.0784 -0.4195
  512loPI   C1B 8189  16.359  12.395  10.046  0.0472 -0.3517 -0.0505
  512loPI   C2B 8190  16.329  12.413   9.533 -0.4510  0.3738  0.0729
  512loPI   C3B 8191  16.349  12.403   9.056 -0.0834  0.5595 -0.0970
  512loPI   C4B 8192  16.320  12.256   8.661 -0.2530 -0.2411 -0.1548
  513loPI    C1 8193  14.351  15.708  11.269 -0.0251  0.0354 -0.0106
  513loPI    C2 8194  14.281  16.052  11.462  0.0013 -0.0447  0.1431
  513loPI    C3 8195  14.421  15.735  11.662  0.2797 -0.0511 -0.0566
  513loPI   PO4 8196  14.140  15.702  11.095  0.1646 -0.1810 -0.2089
  513loPI   GL1 8197  14.201  15.543  10.606 -0.1848 -0.4025 -0.2228
  513loPI   GL2 8198  14.472  15.382  10.486  0.3112  0.0652 -0.0549
  513loPI   C1A 8199  14.029  15.574  10.164 -0.2950  0.2662 -0.3454
  513loPI   C2A 8200  14.053  15.618   9.769 -0.1112  0.1207 -0.3335
  513loPI   C3A 8201  14.030  15.639   9.401 -0.1109  0.2121  0.0950
  513loPI   C4A 8202  13.928  15.625   8.911 -0.0911  0.1225 -0.0975
  513loPI   C5A 8203  14.010  15.667   8.503  0.0961 -0.0739  0.0564
  513loPI   C6A 8204  14.045  15.973   8.174 -0.2494  0.2283 -0.0443
  513loPI   C1B 8205  14.455  15.404  10.026  0.0971 -0.1764 -0.2513
  513loPI   C2B 8206  14.544  15.448   9.572  0.1380 -0.2568 -0.1643
  513loPI   C3B 8207  14.408  15.422   9.122 -0.0087  0.2499  0.1004
  513loPI   C4B 8208  14.466  15.482   8.692 -0.1203 -0.0470  0.1194
  514loPI    C1 8209   0.519  10.159  10.584  0.0347 -0.4448  0.0757
  514loPI    C2 8210   0.401  10.299  10.940 -0.1460  0.0436 -0.1668
  514loPI    C3 8211   0.252   9.955  10.801 -0.1112 -0.1259  0.2030
  514loPI   PO4 8212   0.807  10.128  10.579  0.0767  0.1181 -0.0589
  514loPI   GL1 8213   0.963  10.110  10.172 -0.2216  0.4881 -0.1698
  514loPI   GL2 8214   0.611  10.115  10.084  0.1583 -0.2754 -0.0607
  514loPI   C1A 8215   1.074   9.963   9.793 -0.0209  0.2508  0.1542
  514loPI   C2A 8216   1.065   9.934   9.338  0.0838 -0.0989  0.1553
  514loPI   C3A 8217   1.090   9.903   8.913 -0.1833 -0.1401 -0.0572
  514loPI   C4A 8218   1.011   9.909   8.509 -0.4597  0.0189 -0.0238
  514loPI   C5A 8219   0.986  10.100   8.128  0.1021  0.1154 -0.1975
  514loPI   C6A 8220   0.687   9.949   7.863  0.1150 -0.0477  0.0069
  514loPI   C1B 8221   0.552  10.094   9.669  0.1417  0.2482 -0.2498
  514loPI   C2B 8222   0.608  10.156   9.248  0.2598  0.0374 -0.0579
  514loPI   C3B 8223   0.581  10.181   8.808  0.1607  0.1624  0.2234
  514loPI   C4B 8224   0.531  10.005   8.373  0.0666  0.1630  0.0651
  515loPI    C1 8225   2.974   8.168  11.026 -0.2107  0.2633 -0.0137
  515loPI    C2 8226   3.003   8.510  11.231 -0.2742  0.1628  0.1651
  515loPI    C3 8227   2.906   8.171  11.420 -0.0014  0.0044  0.0273
  515loPI   PO4 8228   2.834   8.197  10.872  0.1033  0.1755  0.4705
  515loPI   GL1 8229   2.767   8.219  10.442 -0.1651  0.1348  0.2507
  515loPI   GL2 8230   2.797   7.877  10.437  0.0398  0.2841 -0.2521
  515loPI   C1A 8231   2.756   8.196   9.951 -0.0822  0.2697 -0.0596
  515loPI   C2A 8232   2.715   8.278   9.498 -0.2691  0.2322  0.0195
  515loPI   C3A 8233   2.698   8.435   9.077  0.1370  0.0307 -0.1667
  515loPI   C4A 8234   2.712   8.453   8.669 -0.2761 -0.1980 -0.0477
  515loPI   C5A 8235   2.693   8.101   8.361 -0.1342  0.0876  0.1618
  515loPI   C6A 8236   2.570   8.010   7.983 -0.0100  0.0061 -0.2225
  515loPI   C1B 8237   2.738   7.683  10.092 -0.1134  0.1833 -0.4969
  515loPI   C2B 8238   2.795   7.606   9.713  0.0425  0.1171  0.3115
  515loPI   C3B 8239   2.828   7.700   9.273 -0.0694  0.0540 -0.1330
  515loPI   C4B 8240   2.813   7.842   8.862  0.2451 -0.1340 -0.1572
  516loPI    C1 8241   4.511   4.474  11.215  0.0937 -0.1452  0.1196
  516loPI    C2 8242   4.347   4.114  11.273  0.2501 -0.2565 -0.1145
  516loPI    C3 8243   4.728   4.179  11.376  0.0779 -0.0082  0.3981
  516loPI   PO4 8244   4.594   4.530  10.948 -0.0937 -0.2082 -0.3601
  516loPI   GL1 8245   4.643   4.637  10.557  0.3178  0.2975  0.0936
  516loPI   GL2 8246   4.869   4.823  10.364  0.0618 -0.1218  0.0888
  516loPI   C1A 8247   4.503   4.569  10.111  0.1937 -0.3076  0.1890
  516loPI   C2A 8248   4.511   4.508   9.711  0.2968 -0.1054 -0.2226
  516loPI   C3A 8249   4.519   4.510   9.307  0.2870 -0.3204  0.2886
  516loPI   C4A 8250   4.504   4.505   8.909  0.2871  0.1137  0.2915
  516loPI   C5A 8251   4.585   4.563   8.454  0.1728  0.1929 -0.1805
  516loPI   C6A 8252   4.962   4.601   8.121  0.1059  0.3003  0.1165
  516loPI   C1B 8253   4.883   4.867   9.854  0.0960 -0.0465  0.0122
  516loPI   C2B 8254   4.896   4.813   9.503  0.0725  0.1862  0.2666
  516loPI   C3B 8255   4.958   4.839   9.102 -0.2697  0.0610 -0.1644
  516loPI   C4B 8256   4.928   4.832   8.665 -0.0092  0.0352  0.1921
  517loPI    C1 8257   5.158   1.195  10.548  0.0485  0.2039 -0.1000
  517loPI    C2 8258   5.269   1.167  10.931  0.0624 -0.0124 -0.1184
  517loPI    C3 8259   4.882   1.139  10.832  0.0396  0.2311 -0.1033
  517loPI   PO4 8260   5.200   1.362  10.441 -0.0840  0.1313  0.0986
  517loPI   GL1 8261   5.192   1.550  10.047  0.1973  0.0992 -0.1696
  517loPI   GL2 8262   4.965   1.329   9.933  0.1657  0.0570 -0.0872
  517loPI   C1A 8263   5.514   1.768   9.740 -0.0194 -0.0753  0.3245
  517loPI   C2A 8264   5.509   1.700   9.302 -0.1986 -0.1316 -0.2758
  517loPI   C3A 8265   5.448   1.591   8.920  0.1144 -0.0596  0.3181
  517loPI   C4A 8266   5.477   1.652   8.589 -0.1485 -0.1597  0.1507
  517loPI   C5A 8267   5.401   1.809   8.182  0.1974  0.0534  0.0916
  517loPI   C6A 8268   5.072   1.748   8.035 -0.0775  0.1883 -0.0644
  517loPI   C1B 8269   5.055   1.484   9.462  0.0381  0.1460  0.0261
  517loPI   C2B 8270   4.977   1.458   9.054  0.0145 -0.1145 -0.0127
  517loPI   C3B 8271   5.007   1.378   8.651 -0.0813  0.0073 -0.0439
  517loPI   C4B 8272   5.018   1.331   8.277  0.1566 -0.1187 -0.0996
  518loPI    C1 8273   8.083   0.219  10.665 -0.0387 -0.0340 -0.0232
  518loPI    C2 8274   7.845   0.455  10.884  0.0027  0.0886 -0.1091
  518loPI    C3 8275   8.020   0.137  11.051  0.1143  0.2385  0.0624
  518loPI   PO4 8276   7.955   0.212  10.449 -0.0673 -0.1524 -0.2320
  518loPI   GL1 8277   7.750   0.177   9.979 -0.0006  0.0975 -0.1650
  518loPI   GL2 8278   7.846  -0.089  10.107 -0.0778 -0.3167 -0.1404
  518loPI   C1A 8279   7.789   0.144   9.470 -0.0065 -0.3383 -0.1547
  518loPI   C2A 8280   7.875   0.144   8.989  0.0167  0.1014  0.0559
  518loPI   C3A 8281   8.009   0.125   8.606  0.2029  0.0688  0.2016
  518loPI   C4A 8282   7.927   0.346   8.208 -0.3011 -0.2190 -0.1465
  518loPI   C5A 8283   7.638   0.602   8.044 -0.1650  0.0475 -0.0422
  518loPI   C6A 8284   7.250   0.822   7.884  0.1202 -0.0877 -0.1168
  518loPI   C1B 8285   7.998  -0.273   9.723 -0.1912 -0.0098  0.0485
  518loPI   C2B 8286   7.988  -0.303   9.390 -0.2889 -0.1211 -0.1136
  518loPI   C3B 8287   8.140  -0.304   9.026 -0.1172  0.1128 -0.1578
  518loPI   C4B 8288   8.078  -0.389   8.595  0.0257 -0.1839 -0.0275
  519loPI    C1 8289  10.082  13.819  11.157  0.0342  0.1842 -0.0176
  519loPI    C2 8290   9.891  14.153  11.266 -0.1498  0.0427  0.1004
  519loPI    C3 8291   9.990  13.880  11.541  0.0660  0.0326  0.0148
  519loPI   PO4 8292  10.169  13.913  10.894 -0.0564  0.2133  0.3651
  519loPI   GL1 8293   9.976  13.957  10.479 -0.1118  0.2047 -0.0717
  519loPI   GL2 8294   9.684  13.802  10.400  0.3620 -0.3149 -0.0588
  519loPI   C1A 8295   9.922  13.891  10.024  0.1541 -0.0923 -0.2641
  519loPI   C2A 8296   9.821  13.832   9.675 -0.0715 -0.0599 -0.2211
  519loPI   C3A 8297   9.852  13.880   9.274 -0.0834  0.2437  0.1236
  519loPI   C4A 8298   9.802  13.866   8.818 -0.0119  0.0084  0.0841
  519loPI   C5A 8299   9.677  13.934   8.401 -0.3002  0.2785  0.0842
  519loPI   C6A 8300   9.532  14.076   7.955 -0.0075 -0.0025 -0.3329
  519loPI   C1B 8301   9.506  13.566   9.998  0.0722 -0.0515 -0.3704
  519loPI   C2B 8302   9.440  13.546   9.562 -0.1301 -0.0458 -0.0057
  519loPI   C3B 8303   9.480  13.563   9.133 -0.0928  0.1147  0.0307
  519loPI   C4B 8304   9.411  13.529   8.647  0.2651 -0.1575 -0.5268
  520loPI    C1 8305   4.722  16.987  10.713 -0.1126  0.6146  0.2279
  520loPI    C2 8306   5.103  17.077  10.794  0.0584  0.1238  0.0081
  520loPI    C3 8307   4.897  16.837  11.039 -0.0185  0.1556 -0.0251
  520loPI   PO4 8308   4.734  17.083  10.435 -0.3866 -0.1279 -0.1004
  520loPI   GL1 8309   4.724  16.916  10.055 -0.1223 -0.1840  0.2524
  520loPI   GL2 8310   5.052  16.966   9.936 -0.0849  0.1803  0.0047
  520loPI   C1A 8311   4.380  16.949   9.673  0.0814 -0.4143  0.3140
  520loPI   C2A 8312   4.417  16.967   9.253  0.0496  0.0314 -0.3162
  520loPI   C3A 8313   4.398  17.075   8.862 -0.0299  0.0843 -0.3558
  520loPI   C4A 8314   4.279  17.058   8.414 -0.1889  0.1308  0.2225
  520loPI   C5A 8315   4.261  17.120   8.026  0.1579 -0.1561 -0.0679
  520loPI   C6A 8316   4.502  17.012   7.602 -0.0131 -0.1957  0.1543
  520loPI   C1B 8317   5.017  16.904   9.467 -0.1151 -0.0365 -0.1036
  520loPI   C2B 8318   4.846  16.855   9.061 -0.1520 -0.1129  0.1886
  520loPI   C3B 8319   4.783  16.798   8.601  0.0926  0.0486 -0.1542
  520loPI   C4B 8320   4.701  16.858   8.198 -0.1834  0.1254 -0.0504
  521loPI    C1 8321   8.280   2.303  10.491  0.2736 -0.1424 -0.0053
  521loPI    C2 8322   8.354   2.390  10.874 -0.2137 -0.0205  0.0670
  521loPI    C3 8323   8.009   2.503  10.706 -0.0764 -0.2198 -0.3631
  521loPI   PO4 8324   8.287   2.169  10.346 -0.0525 -0.0234  0.0099
  521loPI   GL1 8325   8.474   2.072   9.905 -0.1320  0.2470 -0.2251
  521loPI   GL2 8326   8.273   1.826  10.029  0.0745  0.1588  0.0617
  521loPI   C1A 8327   8.733   1.953   9.531  0.0847 -0.3158  0.0892
  521loPI   C2A 8328   8.663   1.933   9.075 -0.2927 -0.3070 -0.0905
  521loPI   C3A 8329   8.558   1.861   8.717 -0.1048 -0.1483 -0.0611
  521loPI   C4A 8330   8.520   1.809   8.375 -0.1205 -0.0324 -0.0526
  521loPI   C5A 8331   8.226   1.797   8.064  0.3696  0.2543  0.2266
  521loPI   C6A 8332   8.005   1.662   7.646 -0.1422 -0.2320 -0.1804
  521loPI   C1B 8333   8.277   1.653   9.589  0.2802  0.2417  0.2858
  521loPI   C2B 8334   8.287   1.652   9.259  0.0646  0.2381  0.0312
  521loPI   C3B 8335   8.115   1.607   8.858 -0.4830  0.0766 -0.1553
  521loPI   C4B 8336   8.139   1.501   8.531 -0.2870  0.1286 -0.1984
  522loPI    C1 8337   0.845   3.351  10.449 -0.0109  0.0013 -0.1243
  522loPI    C2 8338   0.783   3.040  10.692  0.0263  0.0440 -0.0598
  522loPI    C3 8339   0.794   3.411  10.841 -0.0299  0.0773 -0.1382
  522loPI   PO4 8340   1.008   3.321  10.325 -0.1393  0.0448  0.3285
  522loPI   GL1 8341   1.041   3.001   9.922  0.2482 -0.0290 -0.1982
  522loPI   GL2 8342   1.233   3.167   9.884  0.0012  0.2828  0.2984
  522loPI   C1A 8343   1.098   3.161   9.436  0.2967 -0.0244 -0.0675
  522loPI   C2A 8344   1.106   3.093   9.022 -0.2434 -0.0820 -0.1629
  522loPI   C3A 8345   1.185   2.994   8.671 -0.1723 -0.0456  0.2198
  522loPI   C4A 8346   1.187   2.814   8.249 -0.0105  0.1753  0.1627
  522loPI   C5A 8347   1.162   2.558   7.741 -0.1498  0.2438  0.3740
  522loPI   C6A 8348   1.197   2.095   7.599  0.1534 -0.0113 -0.2362
  522loPI   C1B 8349   1.500   3.405   9.554  0.2539  0.1045  0.2332
  522loPI   C2B 8350   1.525   3.435   9.120 -0.1091  0.0208 -0.0093
  522loPI   C3B 8351   1.566   3.304   8.662  0.1308  0.0394 -0.0442
  522loPI   C4B 8352   1.583   3.270   8.305 -0.1768  0.1158  0.0286
  523loPI    C1 8353   4.148   7.147  11.281 -0.0988 -0.0410 -0.0628
  523loPI    C2 8354   3.759   7.090  11.357 -0.0862  0.1034  0.1187
  523loPI    C3 8355   4.035   6.900  11.575 -0.0536 -0.0928 -0.0887
  523loPI   PO4 8356   4.146   7.204  10.980 -0.2470 -0.2413  0.0578
  523loPI   GL1 8357   4.231   7.071  10.558  0.1668  0.1803  0.4050
  523loPI   GL2 8358   3.937   6.913  10.478  0.1504 -0.3028 -0.2314
  523loPI   C1A 8359   4.264   7.140  10.153  0.0848 -0.0635 -0.1917
  523loPI   C2A 8360   4.206   7.175   9.729  0.0059 -0.2345  0.0124
  523loPI   C3A 8361   4.346   7.056   9.281 -0.0121 -0.0309 -0.0401
  523loPI   C4A 8362   4.267   7.065   8.890  0.2605 -0.1617 -0.0320
  523loPI   C5A 8363   4.087   7.192   8.524 -0.0463 -0.0750 -0.1035
  523loPI   C6A 8364   3.726   7.508   8.420 -0.2008 -0.0467 -0.2036
  523loPI   C1B 8365   3.856   6.854   9.982  0.0293  0.1732  0.0501
  523loPI   C2B 8366   3.842   6.859   9.607 -0.1027  0.1391 -0.1124
  523loPI   C3B 8367   3.907   6.830   9.137  0.2148 -0.0317  0.2209
  523loPI   C4B 8368   3.904   6.758   8.683 -0.0255  0.0957 -0.0473
  524loPI    C1 8369  13.772   5.793  11.320  0.0354  0.0665  0.2333
  524loPI    C2 8370  13.977   6.137  11.328  0.0922  0.0385  0.0311
  524loPI    C3 8371  14.164   5.794  11.241 -0.0198 -0.0019 -0.0532
  524loPI   PO4 8372  13.534   5.855  11.138  0.1670  0.0702  0.3053
  524loPI   GL1 8373  13.518   5.840  10.735 -0.2185  0.3598  0.1594
  524loPI   GL2 8374  13.314   6.019  10.620  0.0142 -0.0491  0.2695
  524loPI   C1A 8375  13.781   6.163  10.373 -0.1779  0.1426 -0.3191
  524loPI   C2A 8376  13.742   6.191   9.997  0.0875 -0.2836 -0.0273
  524loPI   C3A 8377  13.756   6.286   9.587  0.2129  0.2566  0.1394
  524loPI   C4A 8378  13.754   6.259   9.126 -0.1754 -0.1964  0.0842
  524loPI   C5A 8379  13.819   6.308   8.689 -0.1800 -0.0658 -0.1148
  524loPI   C6A 8380  13.583   6.296   8.325  0.1109 -0.0682  0.0852
  524loPI   C1B 8381  13.370   5.892  10.166 -0.1385  0.1639 -0.1960
  524loPI   C2B 8382  13.394   5.866   9.749  0.2285  0.0814  0.0153
  524loPI   C3B 8383  13.417   5.870   9.393  0.1530 -0.0053  0.0948
  524loPI   C4B 8384  13.325   5.808   9.081  0.2799 -0.0921 -0.0173
  525loPI    C1 8385   1.671  17.879  11.198  0.1017 -0.0671  0.0237
  525loPI    C2 8386   1.809  18.249  11.261 -0.2415  0.0396  0.1787
  525loPI    C3 8387   1.944  17.945  11.482  0.1317  0.0465 -0.0308
  525loPI   PO4 8388   1.548  17.893  10.967 -0.2491  0.1288  0.1835
  525loPI   GL1 8389   1.545  17.855  10.503  0.0905  0.0073  0.0128
  525loPI   GL2 8390   1.774  17.965  10.273 -0.2532  0.0772  0.2825
  525loPI   C1A 8391   1.521  17.529  10.162  0.1951 -0.0787 -0.1580
  525loPI   C2A 8392   1.581  17.394   9.703 -0.0599 -0.3390 -0.1899
  525loPI   C3A 8393   1.524  17.421   9.223 -0.0138 -0.2535 -0.1800
  525loPI   C4A 8394   1.602  17.359   8.768 -0.1431 -0.3056  0.1684
  525loPI   C5A 8395   1.777  17.389   8.384  0.0513  0.0168 -0.2003
  525loPI   C6A 8396   1.849  17.086   8.131  0.1860 -0.1419 -0.0266
  525loPI   C1B 8397   1.584  17.937   9.862 -0.0353 -0.2088  0.0843
  525loPI   C2B 8398   1.541  17.901   9.399  0.0859  0.0465  0.3420
  525loPI   C3B 8399   1.497  17.871   9.012  0.0508  0.1546  0.0104
  525loPI   C4B 8400   1.680  17.865   8.653  0.3398 -0.2397 -0.2083
  526loPI    C1 8401  11.752   1.304  10.927 -0.2087 -0.2190 -0.0745
  526loPI    C2 8402  11.433   1.216  11.152 -0.1685 -0.1027  0.0294
  526loPI    C3 8403  11.677   1.514  11.260 -0.1277 -0.0704 -0.1491
  526loPI   PO4 8404  11.748   1.413  10.748 -0.2536  0.1951  0.0827
  526loPI   GL1 8405  11.967   1.241  10.429  0.2575 -0.0610  0.0132
  526loPI   GL2 8406  12.127   1.544  10.504 -0.0711 -0.0977  0.1210
  526loPI   C1A 8407  11.966   1.284   9.977 -0.0875 -0.1450 -0.2853
  526loPI   C2A 8408  11.945   1.252   9.488 -0.0379  0.1290  0.1672
  526loPI   C3A 8409  11.999   1.277   9.001  0.0429  0.0482  0.2433
  526loPI   C4A 8410  11.874   1.379   8.543 -0.1337 -0.0020  0.0813
  526loPI   C5A 8411  11.748   1.674   8.306 -0.1323 -0.0140  0.0439
  526loPI   C6A 8412  11.651   2.200   8.330 -0.1690 -0.0383 -0.0905
  526loPI   C1B 8413  12.300   1.586  10.089 -0.2749  0.3842  0.0136
  526loPI   C2B 8414  12.332   1.540   9.676 -0.0987 -0.0034  0.1604
  526loPI   C3B 8415  12.395   1.535   9.213  0.0577  0.1226 -0.2688
  526loPI   C4B 8416  12.329   1.540   8.793 -0.1721 -0.1013 -0.0851
  527loPI    C1 8417   9.888   5.888  11.050 -0.0079  0.0273  0.2202
  527loPI    C2 8418   9.746   6.247  11.156 -0.0395  0.0655  0.0525
  527loPI    C3 8419   9.645   5.921  11.365  0.0167  0.1584  0.2259
  527loPI   PO4 8420   9.867   5.929  10.771  0.0009  0.0728  0.1661
  527loPI   GL1 8421   9.557   5.764  10.510  0.2619 -0.2444 -0.2456
  527loPI   GL2 8422   9.828   5.802  10.331  0.1704 -0.1973  0.2898
  527loPI   C1A 8423   9.296   5.940  10.146 -0.2056  0.1429  0.0143
  527loPI   C2A 8424   9.333   5.972   9.715 -0.0646 -0.0654 -0.1798
  527loPI   C3A 8425   9.311   5.981   9.304  0.1092 -0.0056  0.2133
  527loPI   C4A 8426   9.266   5.979   8.876  0.0306  0.1753  0.0040
  527loPI   C5A 8427   9.415   6.206   8.525 -0.0272 -0.0111 -0.2487
  527loPI   C6A 8428   9.448   5.971   8.155  0.1052 -0.1218  0.0600
  527loPI   C1B 8429   9.795   5.818   9.956  0.0844  0.0555  0.1428
  527loPI   C2B 8430   9.847   5.856   9.485 -0.0016  0.0675 -0.0385
  527loPI   C3B 8431   9.716   5.853   9.085 -0.2478  0.1565 -0.0105
  527loPI   C4B 8432   9.814   5.880   8.695 -0.2283  0.1079 -0.0051
  528loPI    C1 8433   0.648  14.795  11.128 -0.0171 -0.2610 -0.1278
  528loPI    C2 8434   0.837  14.488  11.302  0.2293 -0.1378 -0.1746
  528loPI    C3 8435   0.618  14.739  11.523  0.2740 -0.1719 -0.0909
  528loPI   PO4 8436   0.819  14.901  10.941 -0.0300  0.1430  0.0881
  528loPI   GL1 8437   0.907  14.967  10.543  0.0534  0.0596  0.0840
  528loPI   GL2 8438   1.210  14.725  10.501 -0.4068 -0.0810  0.0319
  528loPI   C1A 8439   0.812  14.899  10.144  0.3976  0.0399  0.0152
  528loPI   C2A 8440   0.691  14.985   9.736  0.0633 -0.5175 -0.0507
  528loPI   C3A 8441   0.632  14.879   9.280  0.1224  0.0150 -0.0668
  528loPI   C4A 8442   0.624  14.835   8.852  0.1614  0.0482 -0.0744
  528loPI   C5A 8443   0.267  14.793   8.490  0.0299  0.1407 -0.0244
  528loPI   C6A 8444   0.041  14.700   8.096  0.0346 -0.1609 -0.0695
  528loPI   C1B 8445   1.206  14.661   9.979 -0.1056 -0.2251 -0.0619
  528loPI   C2B 8446   1.116  14.749   9.536  0.0402  0.0211  0.2152
  528loPI   C3B 8447   1.208  14.652   9.148 -0.0077 -0.0081  0.2631
  528loPI   C4B 8448   1.069  14.665   8.702  0.3084 -0.1785  0.0877
  529loPI    C1 8449   2.678   9.475  11.023  0.0471 -0.0545  0.1280
  529loPI    C2 8450   3.036   9.320  11.110  0.1343  0.1670  0.1702
  529loPI    C3 8451   2.755   9.348  11.394  0.1021  0.0453  0.1511
  529loPI   PO4 8452   2.652   9.311  10.747 -0.1819  0.1595 -0.0659
  529loPI   GL1 8453   2.613   9.309  10.351  0.1934  0.1982 -0.1257
  529loPI   GL2 8454   2.854   9.440  10.354 -0.0566  0.0486  0.4248
  529loPI   C1A 8455   2.549   9.399   9.949  0.3163 -0.2697 -0.2592
  529loPI   C2A 8456   2.466   9.496   9.523 -0.2057  0.0599  0.0769
  529loPI   C3A 8457   2.479   9.484   9.027 -0.0169 -0.2020  0.1307
  529loPI   C4A 8458   2.482   9.398   8.619 -0.3644  0.0802 -0.1916
  529loPI   C5A 8459   2.509   9.508   8.176 -0.1734 -0.2727  0.0987
  529loPI   C6A 8460   2.266   9.661   7.835 -0.3368 -0.3593  0.2010
  529loPI   C1B 8461   3.045   9.348   9.934 -0.1484 -0.4075 -0.0139
  529loPI   C2B 8462   2.994   9.313   9.519  0.0584 -0.0139  0.1869
  529loPI   C3B 8463   3.018   9.250   9.078 -0.1866 -0.2937 -0.0567
  529loPI   C4B 8464   2.960   9.351   8.708 -0.0285 -0.0237  0.1559
  530loPI    C1 8465  11.170   4.237  10.972 -0.1299  0.0937 -0.1222
  530loPI    C2 8466  11.047   3.918  11.181  0.0286 -0.1503 -0.3948
  530loPI    C3 8467  10.842   4.261  11.201 -0.1985 -0.2954 -0.1728
  530loPI   PO4 8468  11.231   4.126  10.737 -0.0170  0.1134 -0.0290
  530loPI   GL1 8469  11.122   4.309  10.339 -0.3438 -0.1355  0.0384
  530loPI   GL2 8470  11.397   4.167  10.212  0.0873 -0.2398 -0.2511
  530loPI   C1A 8471  10.872   4.387  10.022 -0.1171 -0.0623 -0.0370
  530loPI   C2A 8472  10.921   4.380   9.604 -0.0801 -0.0486 -0.1405
  530loPI   C3A 8473  10.971   4.387   9.173 -0.0805 -0.1607  0.3417
  530loPI   C4A 8474  10.895   4.469   8.740 -0.1066 -0.0571 -0.1587
  530loPI   C5A 8475  11.054   4.632   8.275  0.1117 -0.0914 -0.1663
  530loPI   C6A 8476  11.377   4.942   7.919  0.0697  0.0502 -0.0723
  530loPI   C1B 8477  11.515   4.205   9.817  0.0495 -0.0434 -0.2684
  530loPI   C2B 8478  11.440   4.273   9.434 -0.0794 -0.1657  0.2320
  530loPI   C3B 8479  11.440   4.293   9.006  0.4087  0.1702  0.0841
  530loPI   C4B 8480  11.343   4.242   8.619 -0.3270  0.1837  0.1250
  531loPI    C1 8481  11.569   3.842  10.973 -0.1873 -0.0895  0.0027
  531loPI    C2 8482  11.623   4.208  11.123 -0.0556 -0.0734 -0.0821
  531loPI    C3 8483  11.535   3.903  11.366  0.1867 -0.0538  0.0331
  531loPI   PO4 8484  11.706   3.753  10.828  0.0095 -0.2776  0.0916
  531loPI   GL1 8485  11.591   3.712  10.393 -0.3572  0.0055  0.0872
  531loPI   GL2 8486  11.854   3.601  10.367 -0.0853  0.3262  0.1649
  531loPI   C1A 8487  11.472   3.747   9.998 -0.0448  0.1620 -0.0469
  531loPI   C2A 8488  11.538   3.778   9.570  0.1710 -0.0855 -0.0160
  531loPI   C3A 8489  11.524   3.783   9.014 -0.2570 -0.0316  0.3049
  531loPI   C4A 8490  11.423   3.710   8.629  0.1346 -0.1603  0.0491
  531loPI   C5A 8491  11.564   3.565   8.179 -0.0851  0.1416 -0.2313
  531loPI   C6A 8492  11.751   3.275   7.874 -0.1458 -0.0506 -0.3345
  531loPI   C1B 8493  11.893   3.568   9.929  0.3498  0.3496  0.0247
  531loPI   C2B 8494  12.001   3.519   9.462  0.0728  0.3344 -0.2760
  531loPI   C3B 8495  12.017   3.545   9.002  0.1527  0.1934 -0.1693
  531loPI   C4B 8496  11.927   3.563   8.546  0.1154 -0.1098 -0.0620
  532loPI    C1 8497   1.095  15.849  11.097  0.0993  0.0015 -0.1716
  532loPI    C2 8498   0.915  16.201  11.154  0.0905 -0.0223 -0.0484
  532loPI    C3 8499   1.146  16.046  11.441 -0.0178 -0.1830 -0.0469
  532loPI   PO4 8500   0.985  15.837  10.828  0.0656 -0.0306 -0.0554
  532loPI   GL1 8501   1.004  15.863  10.420  0.2715  0.3362  0.1717
  532loPI   GL2 8502   0.920  16.223  10.245  0.0815  0.0954  0.1491
  532loPI   C1A 8503   0.908  15.806  10.040  0.0804 -0.1912  0.2608
  532loPI   C2A 8504   0.933  15.781   9.596 -0.1964  0.2781  0.2133
  532loPI   C3A 8505   0.904  15.706   9.056  0.1104 -0.2167  0.0681
  532loPI   C4A 8506   0.946  15.665   8.616  0.0867 -0.3861  0.0722
  532loPI   C5A 8507   1.007  15.791   8.191 -0.0544 -0.0266  0.0605
  532loPI   C6A 8508   1.106  16.192   8.167 -0.0741 -0.2285 -0.0097
  532loPI   C1B 8509   0.842  16.274   9.890  0.1872 -0.0418 -0.0725
  532loPI   C2B 8510   0.794  16.362   9.428 -0.0127  0.0252 -0.0956
  532loPI   C3B 8511   0.878  16.258   9.011  0.1706  0.3773 -0.1270
  532loPI   C4B 8512   0.870  16.140   8.592  0.3642  0.2964  0.1160
  533loPI    C1 8513   4.453   1.876  10.504 -0.2096 -0.1033  0.0821
  533loPI    C2 8514   4.185   1.961  10.789 -0.1341  0.0850  0.0990
  533loPI    C3 8515   4.574   2.026  10.855 -0.1318  0.2921 -0.1085
  533loPI   PO4 8516   4.241   1.639  10.304  0.3630 -0.1331 -0.0730
  533loPI   GL1 8517   3.887   1.683  10.040 -0.0865 -0.1601  0.1103
  533loPI   GL2 8518   4.110   1.858   9.842 -0.2210  0.2888 -0.0247
  533loPI   C1A 8519   3.624   1.592   9.705 -0.0305  0.1503  0.0967
  533loPI   C2A 8520   3.604   1.483   9.217  0.1307 -0.0238  0.3749
  533loPI   C3A 8521   3.622   1.493   8.842 -0.0510 -0.0145  0.0138
  533loPI   C4A 8522   3.671   1.405   8.423 -0.3019 -0.0239 -0.1897
  533loPI   C5A 8523   3.628   1.436   8.085 -0.0007 -0.1190  0.2879
  533loPI   C6A 8524   3.590   1.101   7.714 -0.0316  0.0026 -0.1004
  533loPI   C1B 8525   4.053   1.823   9.394  0.0997 -0.0396  0.2092
  533loPI   C2B 8526   4.055   1.810   8.936 -0.1957 -0.2862 -0.3083
  533loPI   C3B 8527   4.012   1.786   8.547 -0.0137  0.0503 -0.0678
  533loPI   C4B 8528   4.027   1.801   8.114  0.0942  0.2952 -0.1553
  534loPI    C1 8529   6.751  15.064  10.916  0.1879  0.1477  0.2538
  534loPI    C2 8530   6.726  14.830  11.239 -0.1026  0.0486  0.1629
  534loPI    C3 8531   6.698  15.227  11.277  0.0142  0.0468  0.2752
  534loPI   PO4 8532   6.556  15.021  10.729 -0.0509  0.0662  0.0465
  534loPI   GL1 8533   6.812  14.763  10.486  0.3087  0.3261 -0.0069
  534loPI   GL2 8534   7.043  14.565  10.470 -0.1943 -0.0269  0.1014
  534loPI   C1A 8535   6.672  14.757  10.079  0.1386  0.1448 -0.1142
  534loPI   C2A 8536   6.738  14.757   9.650  0.0199  0.0278 -0.1661
  534loPI   C3A 8537   6.557  14.690   9.167  0.2142 -0.2997  0.1181
  534loPI   C4A 8538   6.430  14.676   8.797  0.5628 -0.0059 -0.1723
  534loPI   C5A 8539   6.524  14.448   8.515 -0.2890  0.0766  0.0115
  534loPI   C6A 8540   6.592  14.043   8.483 -0.4799  0.1807 -0.1081
  534loPI   C1B 8541   7.144  14.561  10.013 -0.3411  0.1441 -0.0421
  534loPI   C2B 8542   7.141  14.558   9.595 -0.0917 -0.2450  0.1162
  534loPI   C3B 8543   7.115  14.560   9.215  0.3986  0.1118 -0.1201
  534loPI   C4B 8544   6.960  14.451   8.805 -0.2677 -0.1232 -0.2741
  535loPI    C1 8545  15.352  11.427  11.187  0.0999 -0.0976 -0.2081
  535loPI    C2 8546  15.351  11.708  11.471  0.0105 -0.0346 -0.2701
  535loPI    C3 8547  15.309  11.323  11.571 -0.1683 -0.0003 -0.2101
  535loPI   PO4 8548  15.179  11.537  10.968 -0.1583 -0.1619  0.1041
  535loPI   GL1 8549  14.953  11.324  10.607 -0.1662  0.1490  0.0504
  535loPI   GL2 8550  14.806  11.582  10.435 -0.0230  0.2011 -0.1348
  535loPI   C1A 8551  14.866  11.110  10.168  0.0708  0.0489 -0.1430
  535loPI   C2A 8552  14.763  11.041   9.783  0.0400 -0.0614  0.0204
  535loPI   C3A 8553  14.754  11.026   9.468  0.3763 -0.0215  0.2018
  535loPI   C4A 8554  14.817  11.024   9.008  0.0023 -0.0345  0.0625
  535loPI   C5A 8555  14.737  11.124   8.619 -0.0927  0.0040  0.0849
  535loPI   C6A 8556  14.966  11.035   8.231 -0.0931  0.1181  0.0090
  535loPI   C1B 8557  14.763  11.585   9.991  0.3637 -0.1757  0.0377
  535loPI   C2B 8558  14.720  11.542   9.553  0.0685 -0.0802  0.0397
  535loPI   C3B 8559  14.680  11.576   9.129  0.2174  0.1015  0.0821
  535loPI   C4B 8560  14.730  11.605   8.681  0.1469  0.3344 -0.0650
  536loPI    C1 8561  10.400  10.905  11.088 -0.1346 -0.0476  0.0648
  536loPI    C2 8562  10.056  10.793  11.258 -0.0452  0.1018  0.3492
  536loPI    C3 8563  10.392  10.590  11.334 -0.1238 -0.2472 -0.1859
  536loPI   PO4 8564  10.460  10.855  10.759 -0.0028 -0.1992 -0.1872
  536loPI   GL1 8565  10.399  10.742  10.412  0.1541  0.1144 -0.0848
  536loPI   GL2 8566  10.078  10.748  10.352  0.0601  0.3295  0.0882
  536loPI   C1A 8567  10.362  10.793   9.906  0.2455  0.1952  0.1260
  536loPI   C2A 8568  10.301  10.928   9.488  0.1066 -0.0113  0.0335
  536loPI   C3A 8569  10.242  10.853   9.044 -0.0850 -0.1346  0.2172
  536loPI   C4A 8570  10.268  10.862   8.663 -0.2964 -0.0623  0.0657
  536loPI   C5A 8571  10.267  10.809   8.278 -0.3522 -0.0196  0.1384
  536loPI   C6A 8572  10.298  10.797   7.759  0.0896 -0.1373  0.2010
  536loPI   C1B 8573   9.903  10.595   9.973  0.1480  0.2345 -0.1818
  536loPI   C2B 8574   9.966  10.558   9.605  0.1836  0.1508 -0.1539
  536loPI   C3B 8575   9.986  10.458   9.219  0.0931 -0.3101 -0.0958
  536loPI   C4B 8576   9.879  10.538   8.854  0.1752  0.1485  0.2175
  537loPI    C1 8577  14.149   3.002  10.830 -0.0874 -0.1407  0.1742
  537loPI    C2 8578  14.430   3.065  11.108  0.1345 -0.2458 -0.0224
  537loPI    C3 8579  14.429   3.282  10.772 -0.1048 -0.1511  0.0371
  537loPI   PO4 8580  14.155   2.741  10.705 -0.0013  0.0754 -0.2497
  537loPI   GL1 8581  14.097   2.627  10.356  0.0336 -0.0543  0.1931
  537loPI   GL2 8582  14.259   2.665  10.188 -0.0357 -0.1203 -0.1549
  537loPI   C1A 8583  13.872   2.496  10.028 -0.1423  0.1280  0.0036
  537loPI   C2A 8584  13.894   2.372   9.642 -0.0411  0.0857  0.1368
  537loPI   C3A 8585  13.975   2.380   9.314  0.2082 -0.1039  0.2557
  537loPI   C4A 8586  14.014   2.447   8.893 -0.3104  0.2381  0.2581
  537loPI   C5A 8587  14.027   2.374   8.474 -0.1300 -0.0319  0.1625
  537loPI   C6A 8588  14.125   2.057   8.240 -0.1083  0.0757  0.0345
  537loPI   C1B 8589  14.289   2.728   9.768 -0.1911 -0.1753 -0.2022
  537loPI   C2B 8590  14.240   2.784   9.443  0.0637  0.2337  0.0209
  537loPI   C3B 8591  14.397   2.769   9.047 -0.2530 -0.1330  0.1558
  537loPI   C4B 8592  14.453   2.761   8.602  0.1086  0.3404 -0.1183
  538loPI    C1 8593   4.810   0.426  10.467  0.0465  0.0844 -0.0189
  538loPI    C2 8594   5.025   0.567  10.774 -0.0476  0.0815  0.0489
  538loPI    C3 8595   4.660   0.715  10.700  0.0599  0.2320 -0.1914
  538loPI   PO4 8596   4.895   0.459  10.267  0.2056 -0.3672 -0.1103
  538loPI   GL1 8597   4.737   0.362   9.883  0.0214  0.1254 -0.1415
  538loPI   GL2 8598   4.770   0.401   9.685  0.2324 -0.0154 -0.1406
  538loPI   C1A 8599   4.335   0.258   9.619  0.0557 -0.2776  0.3366
  538loPI   C2A 8600   4.281   0.231   9.150  0.2577 -0.1881 -0.1158
  538loPI   C3A 8601   4.344   0.252   8.666 -0.2173 -0.1515  0.2946
  538loPI   C4A 8602   4.276   0.116   8.259 -0.1785 -0.0166 -0.0639
  538loPI   C5A 8603   4.195   0.123   7.847  0.1109  0.1381  0.2259
  538loPI   C6A 8604   3.885   0.123   7.501 -0.0977  0.0303 -0.0177
  538loPI   C1B 8605   4.741   0.442   9.330 -0.1150 -0.2244  0.1043
  538loPI   C2B 8606   4.809   0.468   8.760  0.0150 -0.0900 -0.0038
  538loPI   C3B 8607   4.643   0.518   8.319  0.2495  0.1607 -0.2073
  538loPI   C4B 8608   4.626   0.337   7.957  0.1363 -0.2225 -0.0631
  539loPI    C1 8609   2.432  16.368  11.045 -0.1247 -0.1736  0.3604
  539loPI    C2 8610   2.254  16.725  11.072 -0.0479 -0.1187  0.1653
  539loPI    C3 8611   2.601  16.659  11.260 -0.0745 -0.0991  0.2217
  539loPI   PO4 8612   2.305  16.347  10.801  0.0978  0.0357  0.1902
  539loPI   GL1 8613   2.395  16.365  10.354 -0.1735 -0.3349  0.0192
  539loPI   GL2 8614   2.184  16.173  10.313 -0.1058 -0.2956  0.3586
  539loPI   C1A 8615   2.537  16.524   9.880  0.4215  0.1251 -0.0197
  539loPI   C2A 8616   2.658  16.508   9.507  0.2040 -0.0722  0.0540
  539loPI   C3A 8617   2.574  16.531   9.081 -0.0245 -0.2034 -0.1194
  539loPI   C4A 8618   2.548  16.461   8.701 -0.4869 -0.1324  0.2287
  539loPI   C5A 8619   2.492  16.354   8.196  0.0354 -0.0297  0.1319
  539loPI   C6A 8620   2.560  15.948   7.928  0.0226  0.1508 -0.1177
  539loPI   C1B 8621   2.124  16.127   9.811 -0.0203 -0.1618 -0.5157
  539loPI   C2B 8622   2.160  16.242   9.426  0.1425 -0.1112 -0.2728
  539loPI   C3B 8623   2.195  16.194   8.923 -0.0589  0.1090 -0.1425
  539loPI   C4B 8624   2.167  16.186   8.496 -0.1267  0.0670  0.2399
  540loPI    C1 8625  12.318  15.580  11.403 -0.0047 -0.0445  0.0019
  540loPI    C2 8626  12.652  15.508  11.611  0.0447  0.2929  0.0439
  540loPI    C3 8627  12.313  15.601  11.802 -0.0254  0.1452 -0.0074
  540loPI   PO4 8628  12.464  15.656  11.139 -0.1626  0.1728  0.0029
  540loPI   GL1 8629  12.688  15.741  10.744  0.5242  0.2550 -0.1006
  540loPI   GL2 8630  12.326  15.824  10.694 -0.0961  0.2438 -0.3514
  540loPI   C1A 8631  12.688  15.660  10.339 -0.3094 -0.0334  0.0413
  540loPI   C2A 8632  12.735  15.551   9.941 -0.2933 -0.1652  0.0212
  540loPI   C3A 8633  12.692  15.620   9.518 -0.1809 -0.1811 -0.0480
  540loPI   C4A 8634  12.732  15.627   9.079 -0.4740 -0.0994 -0.1072
  540loPI   C5A 8635  12.578  15.639   8.620 -0.0347 -0.0072  0.2067
  540loPI   C6A 8636  12.241  15.917   8.337 -0.0346 -0.1093  0.0286
  540loPI   C1B 8637  12.252  15.816  10.241  0.3852  0.1262  0.0244
  540loPI   C2B 8638  12.240  15.745   9.830  0.0715 -0.0504  0.1142
  540loPI   C3B 8639  12.233  15.811   9.409  0.0988 -0.0770 -0.0401
  540loPI   C4B 8640  12.247  15.792   8.966  0.0475  0.2281  0.0370
  541loPI    C1 8641   9.458  12.358  11.133  0.0574  0.1545  0.0144
  541loPI    C2 8642   9.479  12.416  11.528  0.1238 -0.1308  0.0544
  541loPI    C3 8643   9.713  12.628  11.283  0.1328 -0.0027  0.1724
  541loPI   PO4 8644   9.490  12.124  11.026 -0.0300  0.1354  0.0105
  541loPI   GL1 8645   9.404  11.957  10.688  0.1379 -0.2230 -0.2282
  541loPI   GL2 8646   9.641  11.806  10.476 -0.2078  0.1419  0.1048
  541loPI   C1A 8647   9.179  11.743  10.313 -0.3790 -0.1900  0.0005
  541loPI   C2A 8648   9.253  11.718   9.828 -0.0342  0.1902 -0.2039
  541loPI   C3A 8649   9.370  11.728   9.403 -0.0665  0.2703  0.1282
  541loPI   C4A 8650   9.249  11.838   8.979 -0.1293 -0.4619  0.2934
  541loPI   C5A 8651   9.346  11.891   8.616  0.1324 -0.1952  0.0185
  541loPI   C6A 8652   9.395  11.624   8.257 -0.2309 -0.1767  0.1942
  541loPI   C1B 8653   9.681  11.936  10.009 -0.1593  0.1457  0.1321
  541loPI   C2B 8654   9.711  12.019   9.604  0.0554 -0.1975  0.0920
  541loPI   C3B 8655   9.603  12.126   9.174 -0.1568  0.3242 -0.4806
  541loPI   C4B 8656   9.745  12.098   8.842  0.1510  0.1764  0.1014
  542loPI    C1 8657   7.941   8.917  11.408 -0.3757  0.1886 -0.1582
  542loPI    C2 8658   7.542   8.903  11.423 -0.3533 -0.3862  0.2115
  542loPI    C3 8659   7.759   8.676  11.670  0.2077 -0.1161 -0.0163
  542loPI   PO4 8660   8.004   8.816  11.178 -0.1324  0.3379 -0.1994
  542loPI   GL1 8661   7.952   8.723  10.717  0.0783  0.2407 -0.0030
  542loPI   GL2 8662   8.004   8.391  10.697 -0.0297  0.1139 -0.0205
  542loPI   C1A 8663   7.858   8.904  10.359 -0.0968  0.0940 -0.0308
  542loPI   C2A 8664   7.966   8.928  10.019  0.1614  0.0613  0.0159
  542loPI   C3A 8665   7.976   8.892   9.635  0.0296 -0.0872  0.1096
  542loPI   C4A 8666   7.954   8.903   9.287  0.0011  0.1136  0.0574
  542loPI   C5A 8667   7.838   8.945   8.800 -0.1298 -0.1053 -0.2168
  542loPI   C6A 8668   7.990   8.677   8.521  0.2616  0.3819  0.1469
  542loPI   C1B 8669   7.959   8.355  10.255 -0.2028 -0.0772 -0.2095
  542loPI   C2B 8670   8.079   8.368   9.801  0.1771 -0.1993  0.2509
  542loPI   C3B 8671   8.081   8.385   9.386 -0.0334  0.0482  0.0828
  542loPI   C4B 8672   7.996   8.377   8.975 -0.0145  0.0183  0.0813
  543loPI    C1 8673   6.926  12.623  11.179  0.2289  0.2208 -0.0038
  543loPI    C2 8674   7.031  12.876  11.471  0.1780  0.1886  0.0427
  543loPI    C3 8675   6.684  12.679  11.492  0.2184  0.1133  0.0076
  543loPI   PO4 8676   7.170  12.491  11.019  0.2172 -0.1855 -0.2018
  543loPI   GL1 8677   7.173  12.675  10.649 -0.1694  0.1982 -0.1362
  543loPI   GL2 8678   6.976  12.645  10.416 -0.0133 -0.1466 -0.0236
  543loPI   C1A 8679   7.437  12.458  10.416 -0.0010 -0.2973 -0.3372
  543loPI   C2A 8680   7.403  12.469   9.909 -0.4782 -0.1806  0.0365
  543loPI   C3A 8681   7.337  12.494   9.474 -0.3558  0.2393  0.1385
  543loPI   C4A 8682   7.442  12.465   9.086 -0.0774 -0.0122 -0.2189
  543loPI   C5A 8683   7.417  12.555   8.583 -0.0353 -0.1384  0.1683
  543loPI   C6A 8684   7.612  12.339   8.194 -0.0055 -0.1211 -0.1522
  543loPI   C1B 8685   6.952  12.673  10.038 -0.0869  0.1302  0.1419
  543loPI   C2B 8686   6.845  12.609   9.584 -0.1512  0.3090 -0.0724
  543loPI   C3B 8687   6.913  12.609   9.161 -0.1445  0.0122 -0.0117
  543loPI   C4B 8688   6.896  12.586   8.759 -0.0005 -0.1217  0.0285
  544loPI    C1 8689   9.714   2.163  10.502 -0.0300 -0.1722 -0.1066
  544loPI    C2 8690   9.372   2.326  10.631  0.1777  0.1248  0.0842
  544loPI    C3 8691   9.638   2.186  10.894  0.2757  0.0438 -0.0565
  544loPI   PO4 8692   9.786   2.142  10.291  0.1287  0.1838  0.2618
  544loPI   GL1 8693   9.722   1.939   9.869 -0.2340  0.0149  0.0300
  544loPI   GL2 8694  10.006   1.841   9.900  0.1842  0.0236 -0.3145
  544loPI   C1A 8695   9.521   2.192   9.446 -0.3325 -0.0478  0.0250
  544loPI   C2A 8696   9.503   2.070   8.956  0.0074 -0.1145 -0.0697
  544loPI   C3A 8697   9.420   2.006   8.542 -0.0960  0.0858 -0.1157
  544loPI   C4A 8698   9.413   2.175   8.147  0.0032 -0.0524 -0.1134
  544loPI   C5A 8699   9.582   2.549   7.880  0.2152  0.3617  0.1687
  544loPI   C6A 8700   9.505   2.737   7.533 -0.2537  0.1115  0.1562
  544loPI   C1B 8701  10.024   1.878   9.471 -0.0825 -0.2424 -0.1284
  544loPI   C2B 8702  10.011   1.874   9.000 -0.0933 -0.1443  0.0948
  544loPI   C3B 8703   9.941   1.993   8.573 -0.0976  0.1476  0.2410
  544loPI   C4B 8704   9.900   1.801   8.163  0.0038  0.2282  0.2279
  545loPI    C1 8705  12.402   0.681  11.138 -0.1169 -0.2951  0.0294
  545loPI    C2 8706  12.513   0.396  11.396 -0.0550 -0.1394  0.1770
  545loPI    C3 8707  12.389   0.751  11.531  0.0367 -0.0348 -0.0099
  545loPI   PO4 8708  12.183   0.601  10.976  0.2229  0.1200 -0.2599
  545loPI   GL1 8709  12.241   0.629  10.558 -0.0511 -0.1434  0.1196
  545loPI   GL2 8710  12.477   0.480  10.476  0.3873  0.1668  0.0608
  545loPI   C1A 8711  12.007   0.711  10.139  0.0104  0.0791  0.3275
  545loPI   C2A 8712  12.010   0.779   9.662  0.0088  0.2610 -0.1244
  545loPI   C3A 8713  12.094   0.782   9.214 -0.0061 -0.0880  0.0736
  545loPI   C4A 8714  12.049   0.823   8.780 -0.3264  0.0630  0.3000
  545loPI   C5A 8715  11.889   0.925   8.468 -0.1025  0.0008  0.0396
  545loPI   C6A 8716  11.809   0.684   8.075 -0.0051  0.1135  0.1178
  545loPI   C1B 8717  12.530   0.555  10.088  0.0507 -0.1019  0.0469
  545loPI   C2B 8718  12.517   0.588   9.624 -0.1268 -0.0091 -0.1050
  545loPI   C3B 8719  12.573   0.556   9.187 -0.0983 -0.0568 -0.1107
  545loPI   C4B 8720  12.553   0.547   8.767 -0.1086 -0.0676 -0.3962
  546loPI    C1 8721   6.826   5.819  11.210 -0.2321 -0.2929 -0.0977
  546loPI    C2 8722   6.685   5.974  11.552 -0.0189 -0.0590 -0.1130
  546loPI    C3 8723   6.675   5.578  11.492 -0.4520 -0.0670 -0.0185
  546loPI   PO4 8724   6.660   5.883  11.026  0.0593 -0.1749  0.1070
  546loPI   GL1 8725   6.605   5.732  10.614 -0.2372  0.1217  0.2450
  546loPI   GL2 8726   6.578   5.497  10.440 -0.1492  0.0007  0.0386
  546loPI   C1A 8727   6.608   6.061  10.353 -0.0911  0.2109 -0.0198
  546loPI   C2A 8728   6.511   6.078   9.858  0.1327  0.1477  0.0658
  546loPI   C3A 8729   6.598   6.065   9.472  0.1039 -0.0486 -0.1418
  546loPI   C4A 8730   6.574   6.082   9.080 -0.3451  0.3172 -0.0197
  546loPI   C5A 8731   6.419   6.129   8.695  0.0167  0.0259 -0.0088
  546loPI   C6A 8732   6.390   6.054   8.330  0.2138  0.1336 -0.1487
  546loPI   C1B 8733   6.621   5.613  10.094  0.3092  0.1120  0.4447
  546loPI   C2B 8734   6.642   5.557   9.643 -0.0922 -0.0133 -0.2446
  546loPI   C3B 8735   6.649   5.610   9.234 -0.2056 -0.1049  0.2428
  546loPI   C4B 8736   6.715   5.632   8.818  0.1429  0.3279  0.0089
  547loPI    C1 8737   0.378   4.388  10.874  0.0928 -0.2099 -0.2107
  547loPI    C2 8738   0.717   4.347  11.082  0.0446  0.0221 -0.0830
  547loPI    C3 8739   0.371   4.219  11.237  0.0122  0.1735 -0.0286
  547loPI   PO4 8740   0.440   4.542  10.696  0.0090 -0.0717 -0.0578
  547loPI   GL1 8741   0.605   4.749  10.312  0.0680  0.4525  0.1199
  547loPI   GL2 8742   0.361   4.855  10.257 -0.0854  0.0129 -0.1712
  547loPI   C1A 8743   0.875   4.639   9.916  0.3433 -0.1102 -0.0448
  547loPI   C2A 8744   0.913   4.587   9.502  0.1890 -0.3072  0.2026
  547loPI   C3A 8745   1.015   4.646   9.151  0.1243  0.0766 -0.2719
  547loPI   C4A 8746   1.026   4.696   8.817  0.2691 -0.1587 -0.2588
  547loPI   C5A 8747   1.102   4.463   8.371 -0.0965  0.0401  0.2175
  547loPI   C6A 8748   1.320   4.173   8.057 -0.1751 -0.2206 -0.0761
  547loPI   C1B 8749   0.414   4.866   9.859 -0.1331  0.0419  0.0920
  547loPI   C2B 8750   0.466   4.872   9.395 -0.1037  0.0303 -0.3126
  547loPI   C3B 8751   0.591   4.888   8.947 -0.1038 -0.1182 -0.1522
  547loPI   C4B 8752   0.708   4.921   8.535 -0.0909  0.2000  0.0298
  548loPI    C1 8753   1.934   8.711  11.184 -0.1550  0.0136  0.1384
  548loPI    C2 8754   1.831   9.097  11.190 -0.0426  0.0467 -0.0068
  548loPI    C3 8755   1.793   8.876  11.520  0.0858  0.2333  0.1353
  548loPI   PO4 8756   1.917   8.499  11.026 -0.1076  0.2522 -0.2252
  548loPI   GL1 8757   1.917   8.412  10.516 -0.2078 -0.2600  0.0182
  548loPI   GL2 8758   1.852   8.557  10.318 -0.0021 -0.1573  0.2781
  548loPI   C1A 8759   1.885   8.123  10.084  0.2454 -0.1110 -0.5061
  548loPI   C2A 8760   1.848   8.104   9.621 -0.1570  0.0727 -0.0344
  548loPI   C3A 8761   1.840   8.117   9.269  0.0768 -0.0567 -0.1475
  548loPI   C4A 8762   1.802   8.138   8.803 -0.1325  0.0733  0.0726
  548loPI   C5A 8763   1.730   8.236   8.520  0.0231  0.0194 -0.0374
  548loPI   C6A 8764   1.484   8.395   8.241  0.1819 -0.1777  0.2068
  548loPI   C1B 8765   1.802   8.744   9.958  0.0965 -0.3823  0.0453
  548loPI   C2B 8766   1.775   8.841   9.494 -0.2142  0.0953  0.1534
  548loPI   C3B 8767   1.808   8.731   9.094 -0.0034  0.1079  0.0087
  548loPI   C4B 8768   1.709   8.726   8.541  0.0231 -0.0154  0.0290
  549loPI    C1 8769   8.453   3.816  10.744  0.2268 -0.1242 -0.1615
  549loPI    C2 8770   8.700   3.996  11.002  0.0927  0.0534 -0.1554
  549loPI    C3 8771   8.313   4.097  10.991  0.0385 -0.1562 -0.2299
  549loPI   PO4 8772   8.499   3.886  10.533  0.0370  0.0326  0.0845
  549loPI   GL1 8773   8.402   4.050  10.100  0.2635 -0.0811  0.1813
  549loPI   GL2 8774   8.742   4.191  10.149  0.1242  0.3642  0.1295
  549loPI   C1A 8775   8.313   4.023   9.578 -0.1146 -0.0052 -0.2374
  549loPI   C2A 8776   8.236   4.035   9.201  0.0418  0.1517  0.1252
  549loPI   C3A 8777   8.200   3.976   8.812  0.0723 -0.0680  0.1474
  549loPI   C4A 8778   8.325   4.050   8.281  0.0121  0.0905 -0.0385
  549loPI   C5A 8779   8.213   4.393   8.067 -0.0472 -0.0028  0.0812
  549loPI   C6A 8780   8.233   4.534   7.657  0.0045 -0.1861 -0.2714
  549loPI   C1B 8781   8.690   4.387   9.713 -0.3488 -0.1633  0.1156
  549loPI   C2B 8782   8.624   4.396   9.281  0.2226 -0.1577  0.1663
  549loPI   C3B 8783   8.620   4.324   8.900 -0.2111 -0.1375  0.1495
  549loPI   C4B 8784   8.679   4.373   8.485 -0.1326 -0.0641 -0.0152
  550loPI    C1 8785  16.008   1.954  10.837 -0.0171  0.0923  0.0831
  550loPI    C2 8786  16.152   2.131  11.166 -0.2666  0.1710  0.1525
  550loPI    C3 8787  15.837   1.887  11.193  0.0800 -0.3021  0.0603
  550loPI   PO4 8788  15.947   2.152  10.677  0.0651  0.1370 -0.0919
  550loPI   GL1 8789  16.223   2.090  10.242 -0.1776  0.2219 -0.2134
  550loPI   GL2 8790  16.405   2.236  10.021 -0.1578 -0.1618 -0.1481
  550loPI   C1A 8791  16.089   1.742   9.986 -0.1907 -0.0099  0.0484
  550loPI   C2A 8792  15.989   1.671   9.587  0.0582 -0.0697  0.3935
  550loPI   C3A 8793  15.942   1.641   9.125  0.0752  0.1181 -0.0624
  550loPI   C4A 8794  16.012   1.643   8.771 -0.3528 -0.1352 -0.0978
  550loPI   C5A 8795  16.220   1.549   8.349  0.2257  0.1833 -0.0876
  550loPI   C6A 8796  16.382   1.337   8.025  0.0202 -0.3408 -0.2753
  550loPI   C1B 8797  16.442   1.960   9.622 -0.0096  0.2845 -0.0471
  550loPI   C2B 8798  16.490   1.978   9.277 -0.1819  0.1782  0.0405
  550loPI   C3B 8799  16.374   1.984   8.907  0.0110 -0.0496  0.1371
  550loPI   C4B 8800  16.358   2.038   8.397  0.0679  0.0743 -0.1842
  551loPI    C1 8801   3.295   4.305  10.886  0.0859 -0.0704 -0.0613
  551loPI    C2 8802   3.125   4.438  11.223 -0.0721  0.0356 -0.1816
  551loPI    C3 8803   3.326   4.092  11.223 -0.2151 -0.0489 -0.0175
  551loPI   PO4 8804   3.176   4.313  10.708  0.0293  0.1159 -0.1749
  551loPI   GL1 8805   3.274   4.210  10.324  0.3432  0.0779  0.2657
  551loPI   GL2 8806   3.530   4.421  10.392 -0.0047 -0.1791  0.0076
  551loPI   C1A 8807   3.320   4.138   9.809  0.1813 -0.1803 -0.3679
  551loPI   C2A 8808   3.219   4.176   9.406 -0.2489 -0.1927  0.1011
  551loPI   C3A 8809   3.288   4.110   8.980 -0.0321  0.0929 -0.0460
  551loPI   C4A 8810   3.332   4.144   8.609 -0.1668  0.3562 -0.0632
  551loPI   C5A 8811   3.302   4.253   8.245  0.0205  0.0675 -0.0584
  551loPI   C6A 8812   3.129   4.279   7.801  0.1303 -0.1634 -0.2020
  551loPI   C1B 8813   3.638   4.469   9.927  0.1044  0.0293  0.0715
  551loPI   C2B 8814   3.612   4.439   9.492  0.0368  0.1482  0.3481
  551loPI   C3B 8815   3.659   4.401   9.114  0.1082  0.1534  0.0003
  551loPI   C4B 8816   3.706   4.425   8.787  0.1722  0.1966  0.0461
  552loPI    C1 8817  13.272   0.077  11.142 -0.2546 -0.0932  0.1104
  552loPI    C2 8818  13.053   0.362  11.316  0.0239  0.2084 -0.0230
  552loPI    C3 8819  13.397   0.245  11.482 -0.0659 -0.0194  0.0058
  552loPI   PO4 8820  13.128   0.066  10.878 -0.0966  0.1949  0.0029
  552loPI   GL1 8821  13.198  -0.035  10.509 -0.4919  0.4292 -0.2204
  552loPI   GL2 8822  13.128   0.293  10.345  0.0466  0.1716 -0.0580
  552loPI   C1A 8823  13.073  -0.120  10.143  0.0621  0.1415  0.0474
  552loPI   C2A 8824  13.173  -0.078   9.727 -0.1194 -0.0562 -0.2033
  552loPI   C3A 8825  13.140  -0.107   9.339  0.0881  0.1579 -0.2263
  552loPI   C4A 8826  13.127  -0.049   8.905  0.2873  0.0919 -0.0839
  552loPI   C5A 8827  13.110  -0.073   8.477  0.3346 -0.1447 -0.0928
  552loPI   C6A 8828  13.352   0.170   8.125 -0.0412  0.1862  0.2819
  552loPI   C1B 8829  12.962   0.436   9.930 -0.3126  0.1278 -0.0754
  552loPI   C2B 8830  13.013   0.386   9.456  0.0075  0.2910  0.0431
  552loPI   C3B 8831  13.055   0.429   9.001 -0.3328 -0.0353  0.2080
  552loPI   C4B 8832  12.974   0.419   8.520  0.0900 -0.1522  0.1086
  553loPI    C1 8833  14.340   9.432  10.829  0.1942  0.1702 -0.0794
  553loPI    C2 8834  14.462   9.447  11.210  0.1186 -0.0673 -0.0445
  553loPI    C3 8835  14.108   9.602  11.106  0.2095  0.1401 -0.0481
  553loPI   PO4 8836  14.494   9.469  10.716 -0.1117 -0.1450 -0.2573
  553loPI   GL1 8837  14.851   9.255  10.373  0.0966  0.0177 -0.1946
  553loPI   GL2 8838  14.603   9.172  10.211 -0.1104  0.2138  0.1874
  553loPI   C1A 8839  15.015   9.486  10.068 -0.0422 -0.2305  0.2776
  553loPI   C2A 8840  15.055   9.502   9.565  0.1646  0.0795  0.3642
  553loPI   C3A 8841  14.984   9.560   9.140  0.1781 -0.2158 -0.1065
  553loPI   C4A 8842  15.014   9.547   8.728 -0.2874 -0.2071 -0.4107
  553loPI   C5A 8843  14.963   9.504   8.235 -0.1172 -0.1926 -0.2284
  553loPI   C6A 8844  14.653   9.398   7.981  0.0082  0.0495 -0.4339
  553loPI   C1B 8845  14.711   9.183   9.719  0.2152 -0.0056  0.2401
  553loPI   C2B 8846  14.655   9.235   9.319 -0.0373 -0.0803  0.1407
  553loPI   C3B 8847  14.671   9.207   8.919  0.2081 -0.1603  0.1305
  553loPI   C4B 8848  14.757   9.114   8.409  0.2083  0.0482 -0.1097
  554loPI    C1 8849  10.913  11.018  11.016  0.1231 -0.1861  0.1321
  554loPI    C2 8850  10.774  11.060  11.388  0.0114  0.1989  0.0515
  554loPI    C3 8851  11.094  11.268  11.271 -0.0434  0.1926 -0.1116
  554loPI   PO4 8852  10.916  10.788  10.980 -0.1010 -0.3245  0.1513
  554loPI   GL1 8853  10.996  10.657  10.678  0.0036  0.2259  0.3841
  554loPI   GL2 8854  11.214  10.890  10.410  0.2188  0.1488 -0.2586
  554loPI   C1A 8855  10.826  10.559  10.287 -0.0646  0.0124 -0.0913
  554loPI   C2A 8856  10.854  10.256  10.031  0.1429 -0.0389 -0.1536
  554loPI   C3A 8857  10.891  10.144   9.601  0.2169  0.1112  0.1550
  554loPI   C4A 8858  10.868  10.166   9.054 -0.3006  0.0213 -0.2914
  554loPI   C5A 8859  10.880  10.190   8.705 -0.1321  0.1449  0.1079
  554loPI   C6A 8860  10.755  10.090   8.392  0.2515 -0.0777 -0.1583
  554loPI   C1B 8861  11.219  10.935   9.940 -0.2461  0.2127 -0.0107
  554loPI   C2B 8862  11.200  10.993   9.523 -0.0194  0.2250  0.0992
  554loPI   C3B 8863  11.220  11.008   9.116  0.3977  0.1287 -0.0963
  554loPI   C4B 8864  11.267  11.009   8.682  0.3590 -0.0260  0.4778
  555loPI    C1 8865  16.644   5.088  10.940 -0.1680 -0.3851 -0.0878
  555loPI    C2 8866  16.279   5.219  11.036 -0.1122 -0.1926 -0.1336
  555loPI    C3 8867  16.479   4.982  11.289 -0.0741  0.0929  0.1088
  555loPI   PO4 8868  16.677   5.114  10.673 -0.1421 -0.1386  0.0181
  555loPI   GL1 8869  16.455   5.102  10.237  0.2491  0.0745 -0.2508
  555loPI   GL2 8870  16.826   5.079  10.107 -0.0444 -0.1165 -0.4061
  555loPI   C1A 8871  16.182   5.261   9.833  0.2575 -0.1172 -0.1364
  555loPI   C2A 8872  16.073   5.371   9.363 -0.0063  0.0170  0.0341
  555loPI   C3A 8873  16.143   5.459   9.080 -0.1933  0.1506  0.0083
  555loPI   C4A 8874  16.069   5.437   8.685 -0.1379  0.2317 -0.0497
  555loPI   C5A 8875  16.127   5.442   8.262  0.1693 -0.0812  0.0032
  555loPI   C6A 8876  15.984   5.197   7.948 -0.0357  0.2318 -0.0233
  555loPI   C1B 8877  16.632   5.141   9.665  0.2145 -0.2288 -0.0047
  555loPI   C2B 8878  16.558   5.219   9.300 -0.0110 -0.0015  0.0252
  555loPI   C3B 8879  16.605   5.282   8.881  0.2533 -0.0111  0.0583
  555loPI   C4B 8880  16.601   5.278   8.447  0.3150 -0.0195  0.0341
  556loPI    C1 8881   1.584  16.188  11.023 -0.1786  0.0022  0.1484
  556loPI    C2 8882   1.499  16.480  11.283 -0.0917  0.1016  0.0662
  556loPI    C3 8883   1.879  16.404  11.186 -0.1245  0.0763 -0.0443
  556loPI   PO4 8884   1.420  16.197  10.873  0.0965 -0.0017  0.2874
  556loPI   GL1 8885   1.375  16.412  10.458 -0.0700  0.1262 -0.1152
  556loPI   GL2 8886   1.382  16.112  10.352  0.1905  0.0304 -0.0118
  556loPI   C1A 8887   1.283  16.653  10.080 -0.0406  0.1287  0.2205
  556loPI   C2A 8888   1.197  16.625   9.591  0.0258 -0.0719  0.3967
  556loPI   C3A 8889   1.250  16.658   9.148  0.2931  0.2321  0.2573
  556loPI   C4A 8890   1.258  16.549   8.852 -0.1878  0.1220  0.0992
  556loPI   C5A 8891   1.121  16.658   8.378  0.3503 -0.1763 -0.0458
  556loPI   C6A 8892   0.973  16.832   7.958 -0.0749 -0.1726 -0.0756
  556loPI   C1B 8893   1.300  16.099   9.898  0.2343 -0.1517  0.1426
  556loPI   C2B 8894   1.226  16.182   9.433 -0.0116  0.3104 -0.3302
  556loPI   C3B 8895   1.368  16.065   9.040 -0.0607 -0.0163  0.1880
  556loPI   C4B 8896   1.306  16.004   8.562  0.1815 -0.0517 -0.3738
  557loPI    C1 8897   5.436   7.731  11.483 -0.3027 -0.1922  0.1233
  557loPI    C2 8898   5.104   7.939  11.564 -0.1326  0.1555 -0.0503
  557loPI    C3 8899   5.387   7.897  11.844 -0.1771  0.1399 -0.0076
  557loPI   PO4 8900   5.516   7.850  11.270 -0.1661  0.0316 -0.1510
  557loPI   GL1 8901   5.648   7.750  10.862 -0.1866 -0.2564 -0.2264
  557loPI   GL2 8902   5.941   7.885  10.742  0.0848  0.0624  0.3053
  557loPI   C1A 8903   5.459   7.996  10.484 -0.0814  0.0389 -0.0704
  557loPI   C2A 8904   5.450   8.008  10.088  0.2623  0.2255 -0.1115
  557loPI   C3A 8905   5.425   7.967   9.630  0.1566  0.1395 -0.0874
  557loPI   C4A 8906   5.492   7.966   9.203 -0.0280  0.0413 -0.0118
  557loPI   C5A 8907   5.464   7.932   8.716  0.0523  0.1677 -0.2814
  557loPI   C6A 8908   5.140   7.881   8.393  0.0955  0.3808  0.5280
  557loPI   C1B 8909   5.879   7.838  10.254  0.0242  0.0207 -0.0339
  557loPI   C2B 8910   5.880   7.789   9.843 -0.3957 -0.2887  0.0304
  557loPI   C3B 8911   5.924   7.852   9.391 -0.0172 -0.3452 -0.1001
  557loPI   C4B 8912   5.917   7.805   8.951 -0.1368  0.1701 -0.1325
  558loPI    C1 8913   5.962   7.689  11.490 -0.0783  0.0899 -0.0912
  558loPI    C2 8914   6.197   7.472  11.731 -0.1434  0.0873 -0.0295
  558loPI    C3 8915   5.856   7.628  11.871 -0.2083  0.0408 -0.1345
  558loPI   PO4 8916   6.030   7.609  11.183  0.1157  0.1356  0.2218
  558loPI   GL1 8917   6.091   7.367  10.885 -0.1073  0.2747 -0.1045
  558loPI   GL2 8918   6.391   7.447  10.789  0.2636  0.0887  0.1339
  558loPI   C1A 8919   5.851   7.369  10.560  0.1836  0.0402  0.0853
  558loPI   C2A 8920   5.918   7.324  10.089 -0.2786  0.4279  0.2275
  558loPI   C3A 8921   5.984   7.242   9.621  0.1272  0.2223  0.3761
  558loPI   C4A 8922   5.931   7.323   9.153 -0.2331 -0.1294  0.1560
  558loPI   C5A 8923   5.962   7.243   8.808 -0.2508 -0.3983  0.1347
  558loPI   C6A 8924   6.018   7.337   8.343 -0.1995  0.0327 -0.0741
  558loPI   C1B 8925   6.286   7.663  10.524  0.0695 -0.0913 -0.1226
  558loPI   C2B 8926   6.339   7.617  10.118  0.4367 -0.3036 -0.0301
  558loPI   C3B 8927   6.332   7.671   9.638 -0.1612  0.0905 -0.1496
  558loPI   C4B 8928   6.401   7.549   9.187 -0.0317  0.2108  0.2412
  559loPI    C1 8929   8.621  10.255  11.410 -0.1190  0.1675  0.1128
  559loPI    C2 8930   8.876  10.028  11.618 -0.1012  0.0239 -0.0628
  559loPI    C3 8931   8.535  10.152  11.787 -0.0227  0.0251  0.0968
  559loPI   PO4 8932   8.668  10.127  11.144  0.0625 -0.1003  0.0856
  559loPI   GL1 8933   8.601  10.084  10.722  0.0328 -0.2000  0.4236
  559loPI   GL2 8934   8.345  10.262  10.562 -0.1611 -0.0153 -0.0434
  559loPI   C1A 8935   8.739  10.087  10.261  0.0659  0.1267  0.0277
  559loPI   C2A 8936   8.649  10.017   9.851  0.1887  0.0619 -0.1433
  559loPI   C3A 8937   8.678  10.084   9.435  0.1963  0.1523  0.2587
  559loPI   C4A 8938   8.659  10.110   9.011  0.1692  0.1862  0.2598
  559loPI   C5A 8939   8.602  10.105   8.613 -0.1795 -0.0482  0.1456
  559loPI   C6A 8940   8.284  10.202   8.382  0.1999  0.0030 -0.1741
  559loPI   C1B 8941   8.155  10.206  10.121  0.0666  0.1968  0.0666
  559loPI   C2B 8942   8.218  10.306   9.685  0.1018 -0.0957  0.3064
  559loPI   C3B 8943   8.244  10.252   9.262 -0.0273  0.2960 -0.2931
  559loPI   C4B 8944   8.125  10.237   8.869  0.1652  0.1014 -0.2295
  560loPI    C1 8945  16.150  12.380  11.026  0.2100 -0.1014 -0.1631
  560loPI    C2 8946  15.987  12.572  11.337  0.0388 -0.1382 -0.2292
  560loPI    C3 8947  16.236  12.266  11.400  0.0561 -0.1036 -0.1278
  560loPI   PO4 8948  16.126  12.544  10.853 -0.1691  0.4063  0.1449
  560loPI   GL1 8949  15.857  12.555  10.440 -0.1826  0.0939  0.0193
  560loPI   GL2 8950  15.618  12.753  10.531  0.0119  0.1485  0.1328
  560loPI   C1A 8951  15.889  12.545   9.918  0.1212  0.0986 -0.0055
  560loPI   C2A 8952  15.836  12.664   9.496  0.0564 -0.0292  0.1650
  560loPI   C3A 8953  15.852  12.553   9.027 -0.0760  0.2428  0.2594
  560loPI   C4A 8954  15.897  12.474   8.541 -0.0639  0.1018  0.1010
  560loPI   C5A 8955  16.003  12.755   8.239  0.0520 -0.0082  0.0846
  560loPI   C6A 8956  16.131  13.023   7.971  0.1015 -0.1711 -0.0988
  560loPI   C1B 8957  15.433  12.759  10.129  0.2243  0.1062 -0.0584
  560loPI   C2B 8958  15.439  12.762   9.765 -0.2287 -0.0576 -0.0368
  560loPI   C3B 8959  15.398  12.748   9.294  0.1576 -0.0056  0.1499
  560loPI   C4B 8960  15.392  12.721   8.906  0.0994  0.0722  0.0308
  561loPI    C1 8961   7.361  13.840  11.345 -0.1778  0.1143 -0.1623
  561loPI    C2 8962   7.189  14.183  11.457  0.2727  0.2514  0.1412
  561loPI    C3 8963   7.435  13.992  11.707  0.1264 -0.2332 -0.0723
  561loPI   PO4 8964   7.443  13.885  11.081  0.2221  0.0393 -0.0988
  561loPI   GL1 8965   7.493  13.874  10.689 -0.3331  0.0688 -0.4289
  561loPI   GL2 8966   7.041  13.916  10.688 -0.2655  0.0141  0.1240
  561loPI   C1A 8967   7.747  13.853  10.404  0.0987  0.2252  0.0749
  561loPI   C2A 8968   7.725  13.846   9.993  0.0909  0.1627 -0.1840
  561loPI   C3A 8969   7.606  13.787   9.514  0.1776 -0.1108 -0.0167
  561loPI   C4A 8970   7.617  13.787   9.069 -0.0232 -0.0151  0.2947
  561loPI   C5A 8971   7.729  13.741   8.674  0.0823  0.4280 -0.5220
  561loPI   C6A 8972   7.768  13.897   8.211 -0.1759 -0.1407  0.0022
  561loPI   C1B 8973   6.884  13.699  10.285 -0.3131  0.0797  0.0501
  561loPI   C2B 8974   6.765  13.671   9.819  0.2511  0.1228 -0.2367
  561loPI   C3B 8975   6.763  13.661   9.384 -0.0453 -0.1484  0.4569
  561loPI   C4B 8976   6.669  13.663   8.857  0.0600  0.0774  0.2267
  562loPI    C1 8977  12.982  11.152  10.950  0.0892  0.1570  0.0144
  562loPI    C2 8978  12.682  11.335  11.141  0.0673  0.4208 -0.2657
  562loPI    C3 8979  13.052  11.485  11.159  0.1073  0.3205 -0.2471
  562loPI   PO4 8980  12.890  11.104  10.764  0.1749  0.1858  0.0794
  562loPI   GL1 8981  12.991  11.044  10.387  0.1359 -0.0416 -0.0356
  562loPI   GL2 8982  12.712  10.931  10.255 -0.0375 -0.2749 -0.3466
  562loPI   C1A 8983  13.028  11.322   9.852 -0.3217 -0.1052 -0.0357
  562loPI   C2A 8984  13.020  11.266   9.415 -0.0838 -0.1256 -0.0302
  562loPI   C3A 8985  13.031  11.412   8.990 -0.0095  0.1580 -0.3308
  562loPI   C4A 8986  12.923  11.278   8.599  0.0369 -0.1243  0.1404
  562loPI   C5A 8987  12.940  11.113   8.173  0.0195 -0.2129  0.0231
  562loPI   C6A 8988  12.672  10.961   7.926 -0.0611 -0.0472  0.0698
  562loPI   C1B 8989  12.681  10.916   9.784  0.1071 -0.1915 -0.2341
  562loPI   C2B 8990  12.560  10.977   9.334  0.2319 -0.2852  0.1500
  562loPI   C3B 8991  12.544  11.045   8.888  0.1168 -0.3974 -0.2118
  562loPI   C4B 8992  12.485  10.899   8.468  0.0242 -0.3051  0.0348
  563loPI    C1 8993  17.704   8.549  11.252  0.0334  0.1752 -0.2935
  563loPI    C2 8994  18.101   8.582  11.220  0.0740 -0.1261 -0.1355
  563loPI    C3 8995  17.933   8.533  11.579 -0.1216  0.1575 -0.1850
  563loPI   PO4 8996  17.665   8.425  10.999  0.0994 -0.0431  0.0824
  563loPI   GL1 8997  17.542   8.428  10.552 -0.1244 -0.2357 -0.1384
  563loPI   GL2 8998  17.596   8.741  10.347  0.2141 -0.2409 -0.1510
  563loPI   C1A 8999  17.587   8.194  10.237 -0.0207  0.0010 -0.5033
  563loPI   C2A 9000  17.627   8.114   9.776  0.2083 -0.2551 -0.0901
  563loPI   C3A 9001  17.664   8.090   9.267  0.5780  0.0122  0.2278
  563loPI   C4A 9002  17.463   8.176   8.874 -0.1913  0.0942 -0.0112
  563loPI   C5A 9003  17.313   8.192   8.429  0.1104 -0.1200  0.0792
  563loPI   C6A 9004  17.049   8.436   8.250 -0.1377  0.1140 -0.1281
  563loPI   C1B 9005  17.492   8.650   9.932 -0.1063  0.2273 -0.0261
  563loPI   C2B 9006  17.454   8.619   9.433 -0.2866 -0.1587  0.3495
  563loPI   C3B 9007  17.416   8.631   9.025 -0.1073 -0.3063 -0.1037
  563loPI   C4B 9008  17.341   8.669   8.616 -0.1760 -0.0866  0.0613
  564loPI    C1 9009   9.310   0.738  10.388 -0.1234  0.0179 -0.1824
  564loPI    C2 9010   9.024   0.561  10.605  0.0019 -0.1210 -0.1288
  564loPI    C3 9011   8.978   0.939  10.484 -0.1846 -0.1282 -0.0833
  564loPI   PO4 9012   9.368   0.689  10.213 -0.0997  0.1937  0.1140
  564loPI   GL1 9013   9.202   0.788   9.893  0.1522  0.0077 -0.1217
  564loPI   GL2 9014   9.300   0.674   9.635 -0.0335 -0.0773  0.2736
  564loPI   C1A 9015   8.851   0.869   9.524  0.0565 -0.0967 -0.1560
  564loPI   C2A 9016   8.754   0.891   9.128  0.1879 -0.1484  0.0330
  564loPI   C3A 9017   8.666   0.883   8.776 -0.0548 -0.1009 -0.2892
  564loPI   C4A 9018   8.637   0.841   8.335  0.2817 -0.2391  0.1132
  564loPI   C5A 9019   8.636   0.940   7.880 -0.1362  0.0306 -0.0792
  564loPI   C6A 9020   8.418   0.959   7.441 -0.0034 -0.0815  0.0611
  564loPI   C1B 9021   9.233   0.605   9.222  0.0877  0.1598 -0.1553
  564loPI   C2B 9022   9.257   0.637   8.764  0.3668 -0.2435 -0.0374
  564loPI   C3B 9023   9.126   0.658   8.369 -0.3343 -0.0999 -0.0934
  564loPI   C4B 9024   8.849   0.406   8.125  0.0993 -0.1087  0.0091
  565loPI    C1 9025  15.395  16.508  11.186  0.2628 -0.0935  0.0941
  565loPI    C2 9026  15.086  16.511  11.441  0.2405  0.0070  0.0659
  565loPI    C3 9027  15.460  16.539  11.580  0.2312  0.0031  0.0918
  565loPI   PO4 9028  15.442  16.289  11.014 -0.0274  0.0238 -0.1654
  565loPI   GL1 9029  15.396  16.142  10.601 -0.0861  0.1036 -0.0882
  565loPI   GL2 9030  15.575  16.362  10.419  0.3613 -0.2965 -0.3235
  565loPI   C1A 9031  15.283  16.121  10.142 -0.1689 -0.2688  0.2037
  565loPI   C2A 9032  15.294  16.134   9.663  0.0867  0.2379  0.0144
  565loPI   C3A 9033  15.255  16.204   9.283 -0.0835  0.0069  0.1486
  565loPI   C4A 9034  15.272  16.014   8.950  0.2633 -0.0136  0.2322
  565loPI   C5A 9035  15.212  16.216   8.513  0.2291  0.1972 -0.2614
  565loPI   C6A 9036  15.475  16.216   8.189  0.0807  0.0461  0.0752
  565loPI   C1B 9037  15.562  16.519   9.943 -0.0861  0.0981  0.2813
  565loPI   C2B 9038  15.606  16.481   9.460 -0.3829 -0.4095 -0.1651
  565loPI   C3B 9039  15.534  16.504   9.000 -0.0232 -0.0348  0.2035
  565loPI   C4B 9040  15.659  16.380   8.621 -0.1384  0.3333 -0.2280
  566loPI    C1 9041  15.470   0.804  11.243 -0.1747  0.1618  0.1651
  566loPI    C2 9042  15.803   1.013  11.173 -0.0084 -0.0981  0.1637
  566loPI    C3 9043  15.788   0.757  11.480 -0.2508  0.0015  0.2378
  566loPI   PO4 9044  15.407   0.732  10.947  0.0846 -0.0667  0.0418
  566loPI   GL1 9045  15.353   0.768  10.432  0.2275  0.1216 -0.0737
  566loPI   GL2 9046  15.396   1.126  10.340 -0.3931  0.0858  0.1631
  566loPI   C1A 9047  15.410   0.648  10.116 -0.3125  0.0011 -0.2254
  566loPI   C2A 9048  15.321   0.536   9.723 -0.1620  0.3748 -0.1593
  566loPI   C3A 9049  15.301   0.445   9.305  0.1820  0.0117  0.0788
  566loPI   C4A 9050  15.272   0.567   8.882 -0.2728 -0.1172  0.3424
  566loPI   C5A 9051  15.293   0.636   8.430  0.4296 -0.3378  0.2235
  566loPI   C6A 9052  15.236   0.728   7.929 -0.1103  0.2080  0.3484
  566loPI   C1B 9053  15.241   1.122   9.943  0.1476 -0.0527 -0.2615
  566loPI   C2B 9054  15.201   1.012   9.554 -0.2778 -0.0530 -0.1743
  566loPI   C3B 9055  15.122   0.969   9.104 -0.0240  0.3204  0.1388
  566loPI   C4B 9056  15.161   1.107   8.696  0.0714  0.1265  0.0940
  567loPI    C1 9057  11.685  12.350  11.278 -0.0130 -0.0766  0.0917
  567loPI    C2 9058  11.435  12.647  11.376  0.0244  0.0235 -0.1118
  567loPI    C3 9059  11.682  12.495  11.651 -0.3900 -0.2070  0.1445
  567loPI   PO4 9060  11.770  12.466  11.015 -0.0084  0.0401 -0.5698
  567loPI   GL1 9061  11.676  12.356  10.643  0.0586  0.0384  0.0359
  567loPI   GL2 9062  11.709  12.646  10.563  0.0831  0.0040  0.1837
  567loPI   C1A 9063  11.870  12.110  10.230  0.0936  0.1984 -0.3024
  567loPI   C2A 9064  11.850  12.078   9.835 -0.2135  0.1499 -0.3343
  567loPI   C3A 9065  11.880  12.138   9.454  0.0966  0.0917 -0.0400
  567loPI   C4A 9066  12.015  12.075   9.111  0.2061  0.0265 -0.0002
  567loPI   C5A 9067  12.013  12.225   8.619  0.4222  0.0692 -0.0796
  567loPI   C6A 9068  12.009  12.505   8.314  0.4159  0.1937 -0.0744
  567loPI   C1B 9069  11.845  12.628  10.129 -0.1605  0.2097 -0.0205
  567loPI   C2B 9070  11.797  12.558   9.722  0.0740 -0.0206  0.0294
  567loPI   C3B 9071  11.842  12.668   9.347  0.0711 -0.0247 -0.2733
  567loPI   C4B 9072  11.897  12.650   8.894  0.2204  0.1299 -0.2575
  568loPI    C1 9073  13.893   0.717  10.960 -0.0817 -0.0061 -0.0975
  568loPI    C2 9074  13.869   1.022  11.217 -0.1442 -0.2361  0.1748
  568loPI    C3 9075  14.219   0.838  11.157 -0.0314  0.0986 -0.2435
  568loPI   PO4 9076  13.801   0.717  10.701 -0.0760 -0.0555  0.1956
  568loPI   GL1 9077  14.037   0.955  10.270 -0.0328 -0.2572 -0.1012
  568loPI   GL2 9078  13.765   0.965  10.097 -0.0185 -0.2239 -0.0289
  568loPI   C1A 9079  14.305   0.814   9.917  0.1065 -0.1632  0.2333
  568loPI   C2A 9080  14.407   0.803   9.554  0.1784  0.4177  0.0334
  568loPI   C3A 9081  14.293   0.825   9.190 -0.1750 -0.0352  0.2000
  568loPI   C4A 9082  14.286   0.931   8.810  0.2357  0.2568  0.0860
  568loPI   C5A 9083  14.328   0.875   8.265  0.4646  0.1168  0.2116
  568loPI   C6A 9084  14.506   1.053   7.939  0.1084  0.1365 -0.0837
  568loPI   C1B 9085  13.857   1.020   9.659  0.1027 -0.0235  0.2527
  568loPI   C2B 9086  13.828   1.008   9.193 -0.1004  0.1908  0.1103
  568loPI   C3B 9087  13.792   1.006   8.753 -0.1757 -0.0693 -0.3778
  568loPI   C4B 9088  13.861   0.976   8.342  0.1620 -0.0055  0.3811
  569loPI    C1 9089   6.457   7.727  11.436  0.2958 -0.0713 -0.0232
  569loPI    C2 9090   6.705   7.895  11.701  0.0277  0.2392  0.0379
  569loPI    C3 9091   6.310   7.950  11.734 -0.0454 -0.1527 -0.1255
  569loPI   PO4 9092   6.544   7.755  11.184  0.0652  0.2219 -0.1188
  569loPI   GL1 9093   6.519   8.028  10.907  0.0189  0.1337 -0.0763
  569loPI   GL2 9094   6.293   8.222  10.764 -0.0359 -0.3287  0.0338
  569loPI   C1A 9095   6.650   7.982  10.534 -0.3142 -0.0035 -0.2584
  569loPI   C2A 9096   6.732   7.878  10.186  0.0791 -0.3813 -0.1205
  569loPI   C3A 9097   6.758   7.940   9.741 -0.0555  0.1622 -0.0457
  569loPI   C4A 9098   6.787   7.854   9.280  0.2475 -0.0839  0.0655
  569loPI   C5A 9099   6.850   7.991   8.913 -0.2707 -0.1785  0.2468
  569loPI   C6A 9100   6.539   8.333   8.647  0.0749  0.0232 -0.2233
  569loPI   C1B 9101   6.278   8.133  10.317 -0.0076 -0.3393 -0.0432
  569loPI   C2B 9102   6.304   8.115   9.863 -0.4857 -0.0250  0.0670
  569loPI   C3B 9103   6.336   8.135   9.453  0.0885 -0.3480  0.2015
  569loPI   C4B 9104   6.343   8.035   9.120  0.0087  0.0234  0.1207
  570loPI    C1 9105   9.282   8.128  11.065 -0.1108 -0.0950 -0.0129
  570loPI    C2 9106   9.234   8.497  11.213 -0.0858 -0.0738 -0.0576
  570loPI    C3 9107   8.939   8.228  11.244 -0.1323 -0.0270 -0.0915
  570loPI   PO4 9108   9.407   8.109  10.851 -0.1485 -0.2856  0.1547
  570loPI   GL1 9109   9.603   8.175  10.474  0.2301  0.3154 -0.0154
  570loPI   GL2 9110   9.411   8.321  10.322 -0.0847  0.2823  0.1071
  570loPI   C1A 9111   9.555   7.839  10.160 -0.2025 -0.2948  0.1488
  570loPI   C2A 9112   9.487   7.801   9.786 -0.0195  0.1038 -0.0297
  570loPI   C3A 9113   9.549   7.749   9.374  0.0804 -0.2913 -0.0846
  570loPI   C4A 9114   9.435   7.879   8.995 -0.0617 -0.2232  0.0851
  570loPI   C5A 9115   9.365   7.911   8.554 -0.1208 -0.2513  0.2186
  570loPI   C6A 9116   9.574   7.621   8.239  0.1623 -0.0337  0.1286
  570loPI   C1B 9117   9.459   8.281   9.865  0.2881 -0.1597  0.1530
  570loPI   C2B 9118   9.395   8.213   9.514 -0.0690 -0.1997  0.1355
  570loPI   C3B 9119   9.309   8.413   9.161 -0.1990 -0.0879 -0.1677
  570loPI   C4B 9120   9.381   8.359   8.752 -0.1216 -0.0634 -0.1085
  571loPI    C1 9121   1.722  15.420  10.952  0.0012 -0.0456  0.1640
  571loPI    C2 9122   1.611  15.722  11.189  0.1635 -0.0142  0.2017
  571loPI    C3 9123   1.715  15.371  11.349  0.1565 -0.0312  0.1692
  571loPI   PO4 9124   1.853  15.410  10.754  0.3327 -0.1230  0.1164
  571loPI   GL1 9125   1.760  15.273  10.393  0.2647 -0.0983 -0.0138
  571loPI   GL2 9126   1.588  14.992  10.299  0.1364  0.0011  0.2928
  571loPI   C1A 9127   1.947  15.346  10.047 -0.0845 -0.1216 -0.0627
  571loPI   C2A 9128   1.849  15.384   9.618 -0.0706  0.1984  0.1444
  571loPI   C3A 9129   1.842  15.406   9.163  0.1270  0.2232 -0.0580
  571loPI   C4A 9130   1.872  15.322   8.738  0.1287  0.0676  0.1807
  571loPI   C5A 9131   1.940  15.295   8.244  0.1217  0.2122 -0.0078
  571loPI   C6A 9132   1.811  15.198   7.811  0.0855  0.2665 -0.2968
  571loPI   C1B 9133   1.482  15.087   9.806  0.3053 -0.0498  0.0169
  571loPI   C2B 9134   1.475  15.060   9.351  0.1437 -0.0892 -0.0405
  571loPI   C3B 9135   1.476  15.030   8.885 -0.2573 -0.0044  0.3188
  571loPI   C4B 9136   1.493  14.940   8.474 -0.0145 -0.0635  0.0685
  572loPI    C1 9137   2.286   0.466  10.996 -0.0114  0.2511 -0.0551
  572loPI    C2 9138   2.298   0.100  11.157 -0.0384  0.1713 -0.2324
  572loPI    C3 9139   2.357   0.422  11.387 -0.0087  0.0555 -0.0769
  572loPI   PO4 9140   2.378   0.389  10.725  0.1743  0.2478 -0.1887
  572loPI   GL1 9141   2.274   0.181  10.315 -0.1536 -0.1637  0.3663
  572loPI   GL2 9142   2.455   0.155  10.132  0.2141  0.0511  0.0147
  572loPI   C1A 9143   2.054   0.350   9.971 -0.0328 -0.2429 -0.1527
  572loPI   C2A 9144   1.930   0.265   9.507  0.0545 -0.1498 -0.2067
  572loPI   C3A 9145   1.947   0.218   9.092  0.0444  0.2384 -0.0377
  572loPI   C4A 9146   1.985   0.286   8.671 -0.1301  0.0950 -0.0734
  572loPI   C5A 9147   2.093   0.022   8.296  0.0654 -0.2487  0.0239
  572loPI   C6A 9148   2.333  -0.056   7.998 -0.2456  0.2437  0.0556
  572loPI   C1B 9149   2.448   0.179   9.660 -0.1250 -0.2399  0.0470
  572loPI   C2B 9150   2.501   0.061   9.238 -0.0378  0.1315  0.0859
  572loPI   C3B 9151   2.408   0.088   8.832 -0.2974 -0.1227 -0.1145
  572loPI   C4B 9152   2.539   0.065   8.496 -0.1903 -0.0686 -0.2220
  573loPI    C1 9153   3.328   5.445  11.233 -0.0084 -0.0279  0.0394
  573loPI    C2 9154   3.346   5.706  11.535  0.1059 -0.1318  0.1234
  573loPI    C3 9155   3.247   5.325  11.606 -0.2155 -0.0777 -0.0204
  573loPI   PO4 9156   3.448   5.448  11.053  0.3637  0.0657 -0.1576
  573loPI   GL1 9157   3.455   5.505  10.633  0.1381  0.3659  0.3869
  573loPI   GL2 9158   3.619   5.241  10.608 -0.1420  0.1878 -0.2108
  573loPI   C1A 9159   3.476   5.421  10.125 -0.0491 -0.1244  0.0869
  573loPI   C2A 9160   3.513   5.482   9.679 -0.0369 -0.0015  0.1059
  573loPI   C3A 9161   3.566   5.499   9.267  0.1986 -0.0400 -0.1668
  573loPI   C4A 9162   3.525   5.457   8.880 -0.0226  0.4599 -0.3126
  573loPI   C5A 9163   3.623   5.488   8.456 -0.2642  0.0858 -0.1352
  573loPI   C6A 9164   3.415   5.536   8.034 -0.0360 -0.0432 -0.0790
  573loPI   C1B 9165   3.965   5.258  10.254  0.0231 -0.0454 -0.0539
  573loPI   C2B 9166   3.980   5.201   9.763 -0.1701 -0.0051  0.0361
  573loPI   C3B 9167   3.992   5.277   9.364 -0.1603  0.2051  0.0661
  573loPI   C4B 9168   4.004   5.182   8.847 -0.0361 -0.0928  0.0430
  574loPI    C1 9169  15.527   4.282  10.796  0.2143  0.1168 -0.2522
  574loPI    C2 9170  15.459   4.575  11.060  0.1515 -0.1823  0.0703
  574loPI    C3 9171  15.717   4.282  11.148 -0.1963 -0.5222 -0.0136
  574loPI   PO4 9172  15.450   4.390  10.561  0.1215  0.0688  0.2024
  574loPI   GL1 9173  15.131   4.467  10.275 -0.3747 -0.2152  0.3678
  574loPI   GL2 9174  15.024   4.760  10.262  0.2736  0.0253  0.0646
  574loPI   C1A 9175  14.993   4.337   9.882  0.1231  0.0426 -0.2023
  574loPI   C2A 9176  14.971   4.324   9.426 -0.0903  0.1440 -0.1361
  574loPI   C3A 9177  14.923   4.404   9.028 -0.2294  0.0936 -0.0346
  574loPI   C4A 9178  14.794   4.383   8.626  0.0289 -0.0862  0.3011
  574loPI   C5A 9179  14.555   4.533   8.327 -0.0616 -0.1311 -0.1799
  574loPI   C6A 9180  14.257   4.533   8.044 -0.0027 -0.1562  0.0827
  574loPI   C1B 9181  14.832   4.822   9.880 -0.1959 -0.1945  0.0004
  574loPI   C2B 9182  14.860   4.816   9.497  0.3463  0.3306  0.0131
  574loPI   C3B 9183  14.824   4.873   9.068  0.1147  0.2466  0.5363
  574loPI   C4B 9184  14.753   4.934   8.561 -0.0098 -0.3400 -0.0423
  575loPI    C1 9185  17.882   9.605  10.616  0.4174  0.1682 -0.2152
  575loPI    C2 9186  17.965   9.531  11.000  0.0777  0.1480 -0.1426
  575loPI    C3 9187  17.688   9.802  10.904  0.1771  0.1699 -0.3755
  575loPI   PO4 9188  17.903   9.362  10.495  0.3889 -0.1517  0.1654
  575loPI   GL1 9189  17.927   9.234  10.072  0.1039  0.2978 -0.1930
  575loPI   GL2 9190  18.274   9.292  10.070  0.2738 -0.1342 -0.2247
  575loPI   C1A 9191  17.747   9.465   9.725 -0.1729  0.1857 -0.2096
  575loPI   C2A 9192  17.748   9.467   9.289  0.1521  0.1986  0.1941
  575loPI   C3A 9193  17.685   9.459   8.811  0.1209  0.0721  0.2550
  575loPI   C4A 9194  17.710   9.494   8.385  0.0563  0.2502  0.0663
  575loPI   C5A 9195  17.564   9.619   8.044  0.0376 -0.1270 -0.0618
  575loPI   C6A 9196  17.261   9.408   7.737  0.1802 -0.2434  0.4017
  575loPI   C1B 9197  18.213   9.299   9.604  0.2796  0.3069 -0.4509
  575loPI   C2B 9198  18.267   9.270   9.156 -0.0820 -0.2412 -0.0035
  575loPI   C3B 9199  18.143   9.283   8.804  0.1486 -0.1206  0.1446
  575loPI   C4B 9200  18.158   9.201   8.312 -0.0402 -0.1067 -0.0581
  576loPI    C1 9201   1.604   6.718  10.917  0.1109  0.0560  0.3557
  576loPI    C2 9202   1.951   6.837  11.076  0.3266 -0.0794 -0.0009
  576loPI    C3 9203   1.796   6.482  11.177  0.2635  0.0031  0.1970
  576loPI   PO4 9204   1.620   6.875  10.678  0.0323  0.2967 -0.2194
  576loPI   GL1 9205   1.594   6.801  10.231  0.2346 -0.0661  0.0442
  576loPI   GL2 9206   1.916   6.559  10.188  0.0007  0.2240  0.2998
  576loPI   C1A 9207   1.545   6.840   9.791 -0.0068 -0.1155  0.1389
  576loPI   C2A 9208   1.626   6.824   9.384 -0.0032  0.0604  0.0042
  576loPI   C3A 9209   1.576   6.901   8.936  0.1216 -0.2146 -0.2785
  576loPI   C4A 9210   1.698   6.989   8.551  0.2020 -0.2555  0.1636
  576loPI   C5A 9211   1.519   6.772   8.200  0.1128  0.1192 -0.2215
  576loPI   C6A 9212   1.288   6.487   8.141  0.2926 -0.0387 -0.0724
  576loPI   C1B 9213   2.095   6.565   9.733  0.0879 -0.1387  0.1308
  576loPI   C2B 9214   2.061   6.630   9.276 -0.0908 -0.3339 -0.1819
  576loPI   C3B 9215   2.085   6.748   8.856 -0.4039  0.3653  0.2348
  576loPI   C4B 9216   2.094   6.726   8.341  0.0335 -0.2080  0.4070
  577loPI    C1 9217  17.525   5.967  11.024  0.0307  0.2054  0.0216
  577loPI    C2 9218  17.616   5.578  11.047 -0.1623  0.1608  0.0476
  577loPI    C3 9219  17.644   5.809  11.372  0.0760  0.1980  0.0027
  577loPI   PO4 9220  17.443   5.969  10.792 -0.0576 -0.2061  0.0821
  577loPI   GL1 9221  17.577   6.229  10.435 -0.1528  0.0871 -0.1543
  577loPI   GL2 9222  17.763   6.041  10.325  0.0673 -0.3148 -0.0389
  577loPI   C1A 9223  17.331   6.341  10.071  0.0458  0.1005 -0.0302
  577loPI   C2A 9224  17.332   6.306   9.636 -0.0773  0.3605  0.0302
  577loPI   C3A 9225  17.456   6.335   9.210  0.3242 -0.0868  0.0153
  577loPI   C4A 9226  17.307   6.397   8.828 -0.0484 -0.2459  0.0677
  577loPI   C5A 9227  17.282   6.340   8.384 -0.3217 -0.2140 -0.1105
  577loPI   C6A 9228  17.683   6.282   8.188  0.2308 -0.0202  0.1555
  577loPI   C1B 9229  17.801   6.152   9.935 -0.0092  0.2496 -0.2236
  577loPI   C2B 9230  17.822   6.062   9.493  0.0176  0.1443 -0.1723
  577loPI   C3B 9231  17.894   6.104   9.093 -0.0026 -0.1303  0.1534
  577loPI   C4B 9232  17.937   6.222   8.653  0.0909 -0.0757 -0.0583
  578loPI    C1 9233  13.680   3.019  10.996  0.2118 -0.0198 -0.1607
  578loPI    C2 9234  13.842   2.666  11.095 -0.0253 -0.0124  0.2774
  578loPI    C3 9235  13.940   2.996  11.299  0.1852  0.1798 -0.1217
  578loPI   PO4 9236  13.652   3.050  10.788  0.0426 -0.0577  0.0619
  578loPI   GL1 9237  13.594   2.997  10.358 -0.5126  0.0168  0.3425
  578loPI   GL2 9238  13.308   3.085  10.123 -0.2705 -0.1955  0.0809
  578loPI   C1A 9239  13.780   2.961   9.995 -0.1774  0.0559 -0.0405
  578loPI   C2A 9240  13.756   2.876   9.501  0.0904 -0.1600 -0.0051
  578loPI   C3A 9241  13.888   2.911   9.046 -0.1139  0.2926 -0.1261
  578loPI   C4A 9242  13.936   2.864   8.574 -0.1207 -0.0519  0.0369
  578loPI   C5A 9243  13.841   2.927   8.126 -0.0891  0.4215 -0.1130
  578loPI   C6A 9244  13.491   3.073   7.809 -0.2394 -0.1581  0.1718
  578loPI   C1B 9245  13.376   3.157   9.684  0.0370 -0.0595 -0.3731
  578loPI   C2B 9246  13.349   3.074   9.202  0.0021 -0.0326  0.0708
  578loPI   C3B 9247  13.381   3.031   8.761 -0.1423 -0.2435  0.1164
  578loPI   C4B 9248  13.348   3.078   8.312 -0.1927  0.2868 -0.0119
  579loPI    C1 9249  10.344   1.735  10.606 -0.0397 -0.1291 -0.0827
  579loPI    C2 9250   9.948   1.681  10.583 -0.0212 -0.4489  0.2631
  579loPI    C3 9251  10.096   1.976  10.808 -0.0676 -0.0954 -0.1569
  579loPI   PO4 9252  10.431   1.689  10.293 -0.1080  0.1968 -0.0913
  579loPI   GL1 9253  10.539   1.770  10.006 -0.1268 -0.1767  0.0478
  579loPI   GL2 9254  10.734   2.093  10.115 -0.2365 -0.1418 -0.0927
  579loPI   C1A 9255  10.485   1.692   9.601  0.0101 -0.0123 -0.0574
  579loPI   C2A 9256  10.491   1.775   9.196 -0.1097  0.2629  0.0529
  579loPI   C3A 9257  10.439   1.729   8.724 -0.3836  0.3571 -0.0381
  579loPI   C4A 9258  10.440   1.921   8.335 -0.2658 -0.1496  0.0856
  579loPI   C5A 9259  10.499   2.053   7.901 -0.1294  0.0065 -0.3265
  579loPI   C6A 9260  10.562   2.531   7.888  0.0401 -0.1560  0.0805
  579loPI   C1B 9261  10.897   2.084   9.631  0.1353  0.1652 -0.0506
  579loPI   C2B 9262  10.941   2.062   9.145 -0.0088  0.0645 -0.2304
  579loPI   C3B 9263  10.803   2.138   8.636  0.0700 -0.0930  0.2709
  579loPI   C4B 9264  10.850   2.235   8.168  0.3022 -0.1006  0.1017
  580loPI    C1 9265  12.377   8.286  10.818  0.1704  0.1488 -0.2382
  580loPI    C2 9266  12.740   8.124  10.773  0.1406 -0.0364  0.1416
  580loPI    C3 9267  12.673   8.385  11.068 -0.0201  0.0487  0.0316
  580loPI   PO4 9268  12.303   8.367  10.615 -0.1273 -0.3147  0.3419
  580loPI   GL1 9269  12.494   8.463  10.253 -0.0576  0.0650  0.0773
  580loPI   GL2 9270  12.594   8.160  10.281  0.0601  0.3136 -0.1014
  580loPI   C1A 9271  12.545   8.682   9.864  0.0054  0.0206  0.0731
  580loPI   C2A 9272  12.439   8.652   9.460 -0.0553  0.0617 -0.2627
  580loPI   C3A 9273  12.517   8.640   9.017 -0.3122  0.2546 -0.0111
  580loPI   C4A 9274  12.522   8.724   8.568  0.1616  0.1206  0.0549
  580loPI   C5A 9275  12.487   8.710   8.160 -0.2323  0.1061 -0.0691
  580loPI   C6A 9276  12.019   8.694   7.934 -0.4169 -0.1141 -0.0559
  580loPI   C1B 9277  12.594   8.098   9.807 -0.3193  0.0046 -0.2535
  580loPI   C2B 9278  12.650   8.060   9.420  0.0364 -0.0852  0.1508
  580loPI   C3B 9279  12.569   8.112   9.048  0.1872  0.0865  0.0936
  580loPI   C4B 9280  12.502   8.138   8.684 -0.1658 -0.0897  0.0765
  581loPI    C1 9281   0.715  17.864  10.800  0.3899  0.0524  0.1098
  581loPI    C2 9282   0.346  17.902  10.949  0.3118 -0.1887 -0.0164
  581loPI    C3 9283   0.651  18.096  11.119  0.1765 -0.2248  0.2739
  581loPI   PO4 9284   0.651  17.899  10.482  0.0133  0.1772  0.1694
  581loPI   GL1 9285   0.693  18.156  10.188  0.3114  0.0189  0.2865
  581loPI   GL2 9286   0.860  18.480  10.189 -0.2068 -0.0590  0.2263
  581loPI   C1A 9287   0.658  17.865   9.855 -0.2635  0.0898 -0.4793
  581loPI   C2A 9288   0.661  17.783   9.539  0.1467  0.1860  0.0131
  581loPI   C3A 9289   0.651  17.710   8.968 -0.1053  0.0991 -0.2089
  581loPI   C4A 9290   0.733  17.722   8.493  0.1762  0.1883 -0.0851
  581loPI   C5A 9291   0.946  17.869   8.058 -0.1127 -0.0010  0.1634
  581loPI   C6A 9292   1.075  17.779   7.656 -0.0604  0.2285 -0.0376
  581loPI   C1B 9293   0.623  18.344   9.728 -0.4827  0.3170 -0.1385
  581loPI   C2B 9294   0.591  18.229   9.311  0.2304  0.0083  0.0146
  581loPI   C3B 9295   0.570  18.209   8.866  0.2202  0.0370 -0.0194
  581loPI   C4B 9296   0.626  18.223   8.304  0.0637  0.3239 -0.2663
  582loPI    C1 9297   1.345  14.077  11.341  0.0559  0.0661 -0.0026
  582loPI    C2 9298   1.598  13.839  11.143  0.0538  0.1077 -0.0556
  582loPI    C3 9299   1.696  13.978  11.505 -0.0380 -0.1506  0.0711
  582loPI   PO4 9300   1.192  14.181  11.150 -0.0126 -0.1618 -0.0158
  582loPI   GL1 9301   1.169  14.143  10.619 -0.3029 -0.2824 -0.2219
  582loPI   GL2 9302   1.316  13.834  10.694 -0.0406  0.1833 -0.3751
  582loPI   C1A 9303   1.246  14.203  10.152  0.1442  0.1359  0.0083
  582loPI   C2A 9304   1.252  14.226   9.747  0.1159 -0.1974  0.0633
  582loPI   C3A 9305   1.249  14.192   9.309  0.0516  0.0772 -0.1494
  582loPI   C4A 9306   1.226  14.224   8.890  0.0447  0.1735 -0.0863
  582loPI   C5A 9307   1.237  14.173   8.555 -0.0916  0.0788 -0.0596
  582loPI   C6A 9308   0.909  14.293   8.354 -0.0392 -0.1850 -0.0816
  582loPI   C1B 9309   1.275  13.727  10.303  0.0734  0.1047 -0.0536
  582loPI   C2B 9310   1.298  13.715   9.853  0.0198  0.2819 -0.1701
  582loPI   C3B 9311   1.276  13.659   9.428  0.2671 -0.0679  0.0347
  582loPI   C4B 9312   1.295  13.739   8.989 -0.1500 -0.1747  0.0200
  583loPI    C1 9313   2.467  12.551  11.152  0.0716  0.0870 -0.2024
  583loPI    C2 9314   2.287  12.410  10.823  0.0147 -0.0699 -0.1050
  583loPI    C3 9315   2.068  12.547  11.129  0.0659 -0.0032 -0.0980
  583loPI   PO4 9316   2.672  12.622  11.061  0.0238  0.1013  0.1522
  583loPI   GL1 9317   2.799  12.707  10.635  0.1875 -0.2427 -0.1638
  583loPI   GL2 9318   2.618  12.463  10.461  0.0906 -0.1502 -0.2043
  583loPI   C1A 9319   2.958  12.690  10.211  0.1766 -0.0320  0.0745
  583loPI   C2A 9320   2.824  12.707   9.859  0.2554  0.0229  0.0505
  583loPI   C3A 9321   2.814  12.729   9.513  0.1960 -0.1358 -0.1323
  583loPI   C4A 9322   2.789  12.638   9.101  0.0988 -0.1115  0.0191
  583loPI   C5A 9323   2.803  12.639   8.653 -0.0620 -0.0492 -0.0131
  583loPI   C6A 9324   2.926  12.783   8.244 -0.0328 -0.1307  0.1513
  583loPI   C1B 9325   2.560  12.333  10.037  0.0638  0.0278 -0.2377
  583loPI   C2B 9326   2.414  12.334   9.605  0.1858 -0.1342  0.3515
  583loPI   C3B 9327   2.360  12.312   9.193 -0.0494 -0.0233 -0.0977
  583loPI   C4B 9328   2.389  12.288   8.788  0.4254  0.0684  0.0662
  584loPI    C1 9329  14.934  16.215  11.109  0.0745 -0.4099 -0.2751
  584loPI    C2 9330  15.158  15.995  11.357  0.1764 -0.0287 -0.0205
  584loPI    C3 9331  14.761  16.012  11.408  0.1346 -0.3612 -0.2069
  584loPI   PO4 9332  14.981  16.101  10.879  0.1889 -0.1534 -0.0449
  584loPI   GL1 9333  15.005  16.467  10.554  0.1193 -0.1427 -0.3710
  584loPI   GL2 9334  14.780  16.168  10.472 -0.1319  0.3225  0.3452
  584loPI   C1A 9335  15.116  16.680  10.129 -0.1520  0.1968  0.2832
  584loPI   C2A 9336  15.155  16.691   9.622 -0.1211  0.1262  0.0231
  584loPI   C3A 9337  15.118  16.652   9.186  0.4001 -0.1145 -0.2332
  584loPI   C4A 9338  15.152  16.660   8.691  0.1399  0.0047  0.0862
  584loPI   C5A 9339  15.195  16.652   8.263  0.3055 -0.0763 -0.3221
  584loPI   C6A 9340  14.900  16.589   7.915  0.0266  0.1129  0.1355
  584loPI   C1B 9341  14.792  16.216  10.022  0.0330  0.0706  0.1075
  584loPI   C2B 9342  14.809  16.322   9.536  0.1362 -0.1728  0.2114
  584loPI   C3B 9343  14.716  16.361   9.142 -0.1003 -0.1752 -0.0378
  584loPI   C4B 9344  14.773  16.298   8.771 -0.1837  0.0292 -0.2599
  585loPI    C1 9345  12.435   7.883  11.103 -0.0050 -0.0775 -0.1009
  585loPI    C2 9346  12.198   8.130  11.310  0.0727 -0.0855 -0.0014
  585loPI    C3 9347  12.534   7.990  11.476  0.1449 -0.0782 -0.1396
  585loPI   PO4 9348  12.117   7.739  10.985  0.2428 -0.0573 -0.0748
  585loPI   GL1 9349  11.917   7.626  10.575 -0.1648  0.1684 -0.0123
  585loPI   GL2 9350  12.148   7.866  10.440 -0.1773 -0.0619 -0.2810
  585loPI   C1A 9351  11.881   7.511  10.214 -0.1020  0.1309 -0.1075
  585loPI   C2A 9352  11.859   7.502   9.775  0.0015 -0.0714 -0.1000
  585loPI   C3A 9353  11.805   7.600   9.430 -0.0728 -0.1977  0.0314
  585loPI   C4A 9354  11.783   7.475   8.943 -0.0624  0.1718 -0.0382
  585loPI   C5A 9355  11.798   7.511   8.506 -0.0365  0.1262  0.0711
  585loPI   C6A 9356  11.605   7.440   8.059  0.2599  0.0065  0.2825
  585loPI   C1B 9357  12.262   7.828  10.010  0.0938  0.0159 -0.0565
  585loPI   C2B 9358  12.252   7.856   9.627 -0.3927  0.0150  0.1540
  585loPI   C3B 9359  12.157   7.831   9.166  0.1298 -0.1380 -0.0046
  585loPI   C4B 9360  12.137   7.824   8.764  0.1048  0.1625 -0.2203
  586loPI    C1 9361  12.444   3.172  10.882 -0.1214  0.1302  0.0842
  586loPI    C2 9362  12.761   2.928  10.872  0.0068  0.3021 -0.1838
  586loPI    C3 9363  12.664   3.118  11.211 -0.0791 -0.0948  0.0207
  586loPI   PO4 9364  12.503   3.349  10.694  0.2009 -0.2840 -0.2107
  586loPI   GL1 9365  12.380   3.490  10.305 -0.1471  0.0681 -0.2270
  586loPI   GL2 9366  12.440   3.769  10.236 -0.0565 -0.1363 -0.1036
  586loPI   C1A 9367  12.469   3.323   9.980  0.2285 -0.2014  0.3543
  586loPI   C2A 9368  12.493   3.387   9.642  0.2291  0.1923 -0.0259
  586loPI   C3A 9369  12.465   3.355   9.182  0.1634  0.0452  0.1076
  586loPI   C4A 9370  12.429   3.463   8.718 -0.3045  0.1365 -0.4003
  586loPI   C5A 9371  12.404   3.484   8.245  0.1794 -0.0439 -0.2058
  586loPI   C6A 9372  12.242   3.202   7.980  0.0482 -0.0278 -0.0353
  586loPI   C1B 9373  12.343   3.840   9.781  0.1146 -0.2679 -0.0324
  586loPI   C2B 9374  12.395   3.854   9.353 -0.0915 -0.2470  0.3968
  586loPI   C3B 9375  12.322   3.889   8.946  0.0797  0.0290 -0.1028
  586loPI   C4B 9376  12.300   3.888   8.593  0.2262 -0.2862 -0.0084
  587loPI    C1 9377  17.226  10.920  11.177  0.0971  0.2934  0.0093
  587loPI    C2 9378  17.058  11.256  11.317 -0.0909  0.1376  0.1632
  587loPI    C3 9379  17.210  10.986  11.571  0.0340  0.0917  0.0415
  587loPI   PO4 9380  17.261  10.976  10.954 -0.2430 -0.0165 -0.1355
  587loPI   GL1 9381  17.089  10.926  10.521 -0.1981  0.0236 -0.1876
  587loPI   GL2 9382  17.011  10.607  10.433  0.1030 -0.1219 -0.3114
  587loPI   C1A 9383  16.980  11.158  10.163 -0.2930  0.2995 -0.1475
  587loPI   C2A 9384  17.004  11.218   9.772 -0.1205 -0.0778 -0.2025
  587loPI   C3A 9385  17.070  11.161   9.360 -0.4099 -0.0402  0.2326
  587loPI   C4A 9386  17.009  11.211   9.036 -0.1523  0.3759  0.1786
  587loPI   C5A 9387  16.999  11.086   8.546  0.2029  0.0100  0.0650
  587loPI   C6A 9388  17.013  11.375   8.256  0.0071  0.0938  0.0629
  587loPI   C1B 9389  17.089  10.665   9.951 -0.1114  0.0405  0.4140
  587loPI   C2B 9390  17.119  10.623   9.501 -0.0877  0.0446  0.0579
  587loPI   C3B 9391  17.125  10.705   9.082  0.0852  0.0817 -0.3484
  587loPI   C4B 9392  17.109  10.628   8.663 -0.0485  0.3854 -0.0439
  588loPI    C1 9393   7.035  10.401  11.239  0.1340  0.2266 -0.0592
  588loPI    C2 9394   7.432  10.441  11.270  0.1628 -0.2637  0.3148
  588loPI    C3 9395   7.213  10.360  11.595 -0.2407 -0.0575  0.1015
  588loPI   PO4 9396   6.922  10.249  11.064  0.0286  0.0980  0.0086
  588loPI   GL1 9397   6.933  10.196  10.660 -0.1452 -0.2324  0.0248
  588loPI   GL2 9398   7.085   9.814  10.598  0.2361 -0.2087  0.1661
  588loPI   C1A 9399   6.894  10.278  10.204 -0.0594  0.0163 -0.0943
  588loPI   C2A 9400   6.904  10.214   9.759  0.2042  0.0887 -0.0291
  588loPI   C3A 9401   6.900  10.265   9.346 -0.1231 -0.1169 -0.1040
  588loPI   C4A 9402   6.856  10.299   8.930 -0.1250 -0.0662  0.0230
  588loPI   C5A 9403   6.767  10.438   8.480 -0.0598 -0.2868  0.0877
  588loPI   C6A 9404   6.420  10.731   8.344  0.1989  0.0220  0.0300
  588loPI   C1B 9405   6.982   9.778  10.167  0.1720 -0.1145  0.0036
  588loPI   C2B 9406   6.911   9.743   9.803 -0.3224  0.1511 -0.1695
  588loPI   C3B 9407   7.014   9.692   9.268 -0.1769 -0.0949 -0.0969
  588loPI   C4B 9408   6.955   9.800   8.854  0.3628  0.2685 -0.1298
  589loPI    C1 9409  13.452   5.341  11.470  0.1935  0.0856  0.0130
  589loPI    C2 9410  13.296   5.705  11.524  0.0875  0.0627 -0.1325
  589loPI    C3 9411  13.606   5.585  11.747 -0.1486  0.0807  0.2127
  589loPI   PO4 9412  13.474   5.343  11.141 -0.0010  0.0257  0.0144
  589loPI   GL1 9413  13.434   5.358  10.710 -0.2970  0.2816 -0.2769
  589loPI   GL2 9414  13.644   5.403  10.450 -0.0197 -0.0865  0.0089
  589loPI   C1A 9415  13.176   5.145  10.345 -0.0686  0.1961  0.0895
  589loPI   C2A 9416  13.133   5.056   9.935 -0.1474  0.3698 -0.0554
  589loPI   C3A 9417  13.024   5.062   9.542 -0.0944  0.0472 -0.1071
  589loPI   C4A 9418  12.991   5.029   9.125  0.1276 -0.0607  0.2298
  589loPI   C5A 9419  12.917   5.177   8.602 -0.2002 -0.1764  0.2237
  589loPI   C6A 9420  12.721   5.565   8.460  0.0686  0.1589 -0.3158
  589loPI   C1B 9421  13.499   5.432  10.056  0.2466  0.0992 -0.0394
  589loPI   C2B 9422  13.486   5.400   9.627  0.0228  0.0046  0.3335
  589loPI   C3B 9423  13.385   5.320   9.166 -0.0782  0.3090  0.0036
  589loPI   C4B 9424  13.391   5.338   8.823  0.0232  0.2332 -0.2253
  590loPI    C1 9425  14.300  17.243  11.212 -0.1808  0.0422  0.0685
  590loPI    C2 9426  14.069  17.494  11.420 -0.2445  0.0225  0.0221
  590loPI    C3 9427  14.313  17.242  11.612 -0.0674  0.2244  0.0663
  590loPI   PO4 9428  14.126  17.164  10.940 -0.0815  0.3027  0.1165
  590loPI   GL1 9429  13.955  17.222  10.516 -0.0697  0.1409  0.3773
  590loPI   GL2 9430  14.224  17.031  10.349 -0.1599 -0.0060  0.2953
  590loPI   C1A 9431  13.810  17.252  10.125  0.1066 -0.0179 -0.1325
  590loPI   C2A 9432  13.746  17.109   9.790  0.1626  0.1617  0.1633
  590loPI   C3A 9433  13.687  17.119   9.332 -0.1483  0.1514  0.3529
  590loPI   C4A 9434  13.649  17.189   8.901  0.1118 -0.0886 -0.0090
  590loPI   C5A 9435  13.667  17.155   8.423  0.1448 -0.0934  0.0441
  590loPI   C6A 9436  13.951  17.293   8.048 -0.1183  0.2053 -0.0154
  590loPI   C1B 9437  14.233  16.992   9.896  0.2157  0.1305 -0.0828
  590loPI   C2B 9438  14.176  16.978   9.464  0.1426 -0.1643  0.0295
  590loPI   C3B 9439  14.200  17.052   9.033 -0.0609 -0.1761  0.4413
  590loPI   C4B 9440  14.260  16.982   8.626  0.2318 -0.3961  0.0696
  591loPI    C1 9441   0.527   3.797  10.724  0.3833  0.1711 -0.2555
  591loPI    C2 9442   0.763   3.874  11.038  0.0121  0.1789  0.0286
  591loPI    C3 9443   0.402   3.710  11.094  0.1279 -0.2625 -0.4352
  591loPI   PO4 9444   0.562   3.991  10.625  0.2356  0.0029 -0.0787
  591loPI   GL1 9445   0.560   4.231  10.230  0.0333  0.2305  0.3484
  591loPI   GL2 9446   0.833   4.141  10.090  0.3648  0.0440 -0.0183
  591loPI   C1A 9447   0.468   4.385   9.773 -0.0505 -0.0865 -0.1284
  591loPI   C2A 9448   0.528   4.346   9.384  0.0553 -0.0423  0.2266
  591loPI   C3A 9449   0.647   4.358   8.901  0.0215  0.0862 -0.2666
  591loPI   C4A 9450   0.594   4.195   8.477  0.0182  0.3121 -0.0601
  591loPI   C5A 9451   0.677   4.348   8.160 -0.0199  0.0441  0.0004
  591loPI   C6A 9452   0.953   4.219   7.702 -0.1675  0.1235  0.1503
  591loPI   C1B 9453   0.913   4.082   9.710 -0.4120  0.0852 -0.0697
  591loPI   C2B 9454   1.048   4.127   9.388 -0.4014  0.4047 -0.4160
  591loPI   C3B 9455   1.095   4.064   8.869 -0.1747 -0.0654  0.0342
  591loPI   C4B 9456   1.035   3.956   8.411  0.0178  0.0488 -0.0364
  592loPI    C1 9457   2.010  11.064  11.005  0.1749 -0.3092 -0.2658
  592loPI    C2 9458   2.215  10.841  11.267  0.0739 -0.0400  0.0504
  592loPI    C3 9459   1.933  11.093  11.397  0.1048  0.1875 -0.3102
  592loPI   PO4 9460   2.116  11.190  10.841 -0.2775 -0.0988  0.1989
  592loPI   GL1 9461   2.130  10.921  10.411  0.1757  0.0854 -0.2258
  592loPI   GL2 9462   1.928  11.064  10.332 -0.2416 -0.2378  0.1362
  592loPI   C1A 9463   2.274  11.058   9.976  0.3117 -0.0642 -0.0777
  592loPI   C2A 9464   2.237  10.926   9.515 -0.1498 -0.1236 -0.1616
  592loPI   C3A 9465   2.272  10.980   9.052 -0.1008  0.0736 -0.0670
  592loPI   C4A 9466   2.225  11.105   8.583 -0.0635 -0.0287 -0.3201
  592loPI   C5A 9467   2.313  10.899   8.200 -0.0747 -0.1569 -0.0085
  592loPI   C6A 9468   2.272  10.523   7.890 -0.1027 -0.1628 -0.0146
  592loPI   C1B 9469   1.804  11.250  10.002  0.3216  0.2636 -0.1422
  592loPI   C2B 9470   1.794  11.148   9.540  0.2791 -0.3170  0.0391
  592loPI   C3B 9471   1.770  11.151   9.140 -0.0515  0.1798 -0.2265
  592loPI   C4B 9472   1.733  11.144   8.717  0.0738  0.0217  0.0243
  593loPI    C1 9473  17.713  16.326  10.998 -0.1138 -0.0798 -0.0227
  593loPI    C2 9474  17.588  16.166  11.342  0.1108 -0.1357  0.0350
  593loPI    C3 9475  17.951  16.332  11.319 -0.1533  0.4655  0.0055
  593loPI   PO4 9476  17.662  16.128  10.874  0.2856 -0.0495 -0.2288
  593loPI   GL1 9477  17.915  15.811  10.620  0.2184  0.2341  0.2726
  593loPI   GL2 9478  18.045  15.610  10.425 -0.1759  0.2056  0.0486
  593loPI   C1A 9479  17.620  15.820  10.282  0.0746  0.0964  0.3654
  593loPI   C2A 9480  17.524  15.758   9.904 -0.0483  0.0537  0.2721
  593loPI   C3A 9481  17.638  15.856   9.487  0.2153 -0.0021 -0.1785
  593loPI   C4A 9482  17.551  15.751   9.041 -0.0194 -0.2940 -0.1521
  593loPI   C5A 9483  17.545  15.771   8.588  0.0109 -0.0004 -0.1069
  593loPI   C6A 9484  17.685  15.934   8.187  0.1529  0.2204  0.1103
  593loPI   C1B 9485  18.068  15.599   9.915 -0.1772 -0.1573 -0.0595
  593loPI   C2B 9486  18.051  15.616   9.494  0.2605  0.1795  0.2582
  593loPI   C3B 9487  18.057  15.598   9.034  0.1086 -0.2448 -0.1242
  593loPI   C4B 9488  18.018  15.650   8.593  0.1146 -0.3667 -0.2798
  594loPI    C1 9489  14.636   2.747  10.810  0.0423 -0.0432  0.0209
  594loPI    C2 9490  15.020   2.638  10.823  0.0817  0.1095  0.1794
  594loPI    C3 9491  14.872   2.880  11.105 -0.0694  0.2512 -0.0189
  594loPI   PO4 9492  14.592   2.835  10.510  0.0638 -0.0276 -0.1110
  594loPI   GL1 9493  14.288   3.144  10.346  0.2640 -0.0702  0.1682
  594loPI   GL2 9494  14.483   3.473  10.339  0.1367  0.1869  0.1244
  594loPI   C1A 9495  14.241   3.126  10.026 -0.1278  0.1557 -0.2322
  594loPI   C2A 9496  14.227   3.271   9.644  0.2040  0.0357  0.1012
  594loPI   C3A 9497  14.214   3.278   9.204  0.0320  0.0297  0.2328
  594loPI   C4A 9498  14.263   3.209   8.732 -0.1381  0.3811 -0.0644
  594loPI   C5A 9499  14.244   3.218   8.309  0.0338  0.1461  0.0778
  594loPI   C6A 9500  14.240   3.181   7.836  0.1987  0.0158 -0.2091
  594loPI   C1B 9501  14.298   3.631  10.008 -0.1041 -0.1229  0.2340
  594loPI   C2B 9502  14.170   3.822   9.510 -0.1648  0.1975  0.1526
  594loPI   C3B 9503  14.220   3.742   9.066  0.1475  0.1191 -0.0074
  594loPI   C4B 9504  14.220   3.702   8.600  0.2208 -0.0348 -0.0907
  595loPI    C1 9505   5.065  17.602  10.647  0.2343 -0.1570 -0.0553
  595loPI    C2 9506   5.053  17.979  10.781  0.0145 -0.1989  0.0463
  595loPI    C3 9507   5.253  17.700  10.986  0.2593 -0.1186 -0.0802
  595loPI   PO4 9508   4.831  17.522  10.595 -0.1734 -0.2780 -0.0460
  595loPI   GL1 9509   4.623  17.534  10.225  0.0363 -0.0782 -0.4173
  595loPI   GL2 9510   4.835  17.446  10.084 -0.4722  0.4306  0.2272
  595loPI   C1A 9511   4.373  17.440   9.843 -0.0391 -0.0713  0.0006
  595loPI   C2A 9512   4.334  17.467   9.411  0.1812 -0.0667 -0.2432
  595loPI   C3A 9513   4.351  17.577   9.103 -0.0012  0.1743 -0.0626
  595loPI   C4A 9514   4.329  17.663   8.726 -0.1860 -0.1243  0.0870
  595loPI   C5A 9515   4.340  17.558   8.263  0.2581 -0.1754  0.1731
  595loPI   C6A 9516   4.540  17.690   7.984  0.1394  0.0356 -0.1261
  595loPI   C1B 9517   4.805  17.303   9.684  0.1018  0.0075  0.0371
  595loPI   C2B 9518   4.781  17.348   9.271 -0.1666  0.1649  0.3509
  595loPI   C3B 9519   4.815  17.310   8.863 -0.1127 -0.1232 -0.2886
  595loPI   C4B 9520   4.755  17.331   8.431  0.0023 -0.3461  0.2273
  596loPI    C1 9521  10.455  13.228  11.147  0.1365 -0.0753  0.0741
  596loPI    C2 9522  10.436  13.526  11.414  0.1003 -0.1143  0.1152
  596loPI    C3 9523  10.364  13.150  11.529  0.0582 -0.1280  0.0449
  596loPI   PO4 9524  10.324  13.355  10.961 -0.1077 -0.0763  0.0099
  596loPI   GL1 9525  10.251  13.364  10.556 -0.2118 -0.0539  0.2199
  596loPI   GL2 9526  10.343  13.622  10.465 -0.0504  0.0109 -0.1478
  596loPI   C1A 9527  10.415  13.116  10.110  0.0248 -0.1948 -0.1895
  596loPI   C2A 9528  10.418  13.184   9.671  0.0937 -0.1337 -0.1672
  596loPI   C3A 9529  10.378  13.243   9.306  0.1654  0.3502  0.1327
  596loPI   C4A 9530  10.423  13.139   8.853  0.1229  0.0135 -0.0551
  596loPI   C5A 9531  10.408  13.218   8.416  0.2837  0.1228 -0.1669
  596loPI   C6A 9532  10.156  13.155   8.058  0.0375 -0.1530 -0.1587
  596loPI   C1B 9533  10.332  13.682  10.009 -0.2999 -0.0786 -0.0506
  596loPI   C2B 9534  10.316  13.687   9.525  0.0243  0.1170 -0.1338
  596loPI   C3B 9535  10.341  13.737   9.227  0.0010 -0.2266 -0.1867
  596loPI   C4B 9536  10.427  13.729   8.791  0.1405 -0.2666  0.0901
  597loPI    C1 9537  15.293  17.024  11.271  0.0761 -0.0946  0.2119
  597loPI    C2 9538  15.548  17.327  11.327  0.0323 -0.1249  0.6069
  597loPI    C3 9539  15.197  17.322  11.519 -0.2619 -0.0976  0.0899
  597loPI   PO4 9540  15.355  16.970  10.959  0.0307 -0.1863 -0.0125
  597loPI   GL1 9541  15.301  16.848  10.573 -0.0062  0.0375 -0.1575
  597loPI   GL2 9542  15.022  17.036  10.555 -0.2151 -0.0752 -0.2241
  597loPI   C1A 9543  15.540  17.010  10.098  0.0356 -0.0008 -0.0708
  597loPI   C2A 9544  15.586  17.016   9.679  0.1753 -0.1245  0.0258
  597loPI   C3A 9545  15.526  16.940   9.296  0.0216  0.1164  0.1285
  597loPI   C4A 9546  15.594  17.049   8.847 -0.0860  0.0156  0.3738
  597loPI   C5A 9547  15.608  16.946   8.486 -0.0459  0.0293 -0.2327
  597loPI   C6A 9548  15.761  16.649   8.119 -0.1346 -0.0633  0.3154
  597loPI   C1B 9549  14.773  17.224  10.204 -0.3434 -0.1168  0.1433
  597loPI   C2B 9550  14.598  17.272   9.716 -0.1845  0.1334  0.0938
  597loPI   C3B 9551  14.621  17.269   9.274  0.0863  0.1471 -0.1192
  597loPI   C4B 9552  14.573  17.357   8.850  0.0273 -0.2310  0.1798
  598loPI    C1 9553   1.328   7.911  11.019 -0.0472  0.2655  0.1988
  598loPI    C2 9554   1.361   7.581  11.242 -0.0271  0.1000 -0.0455
  598loPI    C3 9555   1.651   7.857  11.249  0.2043 -0.1331 -0.2301
  598loPI   PO4 9556   1.244   7.891  10.860  0.3309 -0.0992 -0.3269
  598loPI   GL1 9557   1.059   7.894  10.448  0.3330 -0.1905  0.0949
  598loPI   GL2 9558   1.205   7.626  10.229 -0.0626  0.4180  0.1099
  598loPI   C1A 9559   0.960   8.161  10.120  0.3656 -0.1088  0.0080
  598loPI   C2A 9560   1.006   8.108   9.641 -0.0037 -0.0793 -0.0704
  598loPI   C3A 9561   0.984   8.111   9.135  0.1990  0.1177  0.1291
  598loPI   C4A 9562   0.972   8.003   8.719 -0.2173 -0.1295  0.2394
  598loPI   C5A 9563   1.066   8.074   8.283  0.3094  0.1945 -0.0566
  598loPI   C6A 9564   0.939   8.107   7.898 -0.2166  0.2309  0.1578
  598loPI   C1B 9565   1.093   7.588   9.826  0.0344  0.1846  0.0419
  598loPI   C2B 9566   1.030   7.587   9.311 -0.1278  0.1042  0.0652
  598loPI   C3B 9567   0.943   7.528   8.878  0.1685 -0.2299 -0.0980
  598loPI   C4B 9568   1.066   7.559   8.432  0.0757  0.1151 -0.0042
  599loPI    C1 9569   0.076   5.310  11.235  0.0116 -0.0280  0.0343
  599loPI    C2 9570   0.408   5.505  11.346  0.0546 -0.0977  0.0285
  599loPI    C3 9571   0.073   5.540  11.562 -0.0098  0.1834 -0.1124
  599loPI   PO4 9572   0.083   5.337  10.888 -0.0601  0.4490 -0.2295
  599loPI   GL1 9573   0.190   5.352  10.404 -0.0443  0.1826  0.0739
  599loPI   GL2 9574   0.341   5.625  10.385 -0.0424 -0.1316 -0.2171
  599loPI   C1A 9575  -0.092   5.365  10.022 -0.2114  0.0437  0.0327
  599loPI   C2A 9576  -0.097   5.540   9.696 -0.2145 -0.1056  0.1431
  599loPI   C3A 9577   0.021   5.586   9.269 -0.0032 -0.1639  0.0512
  599loPI   C4A 9578   0.034   5.580   8.860 -0.3164 -0.1922  0.0913
  599loPI   C5A 9579   0.010   5.738   8.463  0.1747 -0.1712  0.3070
  599loPI   C6A 9580   0.190   6.064   8.193 -0.0659 -0.3218  0.1969
  599loPI   C1B 9581   0.180   5.795   9.975  0.0568 -0.2140 -0.0586
  599loPI   C2B 9582   0.320   5.879   9.606  0.0482 -0.1654  0.1783
  599loPI   C3B 9583   0.431   5.884   9.103  0.0977  0.2667  0.2646
  599loPI   C4B 9584   0.434   6.007   8.701  0.2102  0.0167 -0.2539
  600loPI    C1 9585   6.353   4.359  11.047  0.2537 -0.2680 -0.1531
  600loPI    C2 9586   6.637   4.634  10.985 -0.0521  0.0893 -0.0097
  600loPI    C3 9587   6.618   4.441  11.335 -0.0278  0.1152  0.0059
  600loPI   PO4 9588   6.348   4.183  10.884  0.3501  0.2374 -0.0156
  600loPI   GL1 9589   6.156   4.130  10.508  0.0857  0.0830  0.1782
  600loPI   GL2 9590   6.036   4.388  10.504 -0.0575  0.2134  0.1646
  600loPI   C1A 9591   6.041   3.864  10.140  0.3743 -0.0887  0.1699
  600loPI   C2A 9592   5.934   3.957   9.822 -0.0850  0.0489 -0.0745
  600loPI   C3A 9593   5.964   3.936   9.353 -0.0865  0.0173 -0.0208
  600loPI   C4A 9594   5.951   3.885   8.935 -0.1437 -0.1494  0.0650
  600loPI   C5A 9595   6.036   3.891   8.602 -0.3535  0.1750  0.3071
  600loPI   C6A 9596   6.438   3.846   8.367 -0.1575 -0.4811 -0.0680
  600loPI   C1B 9597   6.005   4.396  10.099  0.0759 -0.2056  0.1374
  600loPI   C2B 9598   5.839   4.454   9.765  0.0269  0.4818 -0.0213
  600loPI   C3B 9599   5.890   4.400   9.329  0.0946 -0.0858  0.0584
  600loPI   C4B 9600   5.849   4.410   8.870 -0.0591  0.1453 -0.0989
  601loPI    C1 9601   8.611  13.832  11.461 -0.2150  0.0799 -0.0013
  601loPI    C2 9602   8.344  13.535  11.443  0.1058 -0.2240  0.1391
  601loPI    C3 9603   8.683  13.487  11.650  0.3332  0.1064 -0.1434
  601loPI   PO4 9604   8.619  13.908  11.175  0.2110  0.2010 -0.0648
  601loPI   GL1 9605   8.719  13.816  10.820  0.0074 -0.0797 -0.0852
  601loPI   GL2 9606   8.772  13.589  10.572 -0.4256  0.1944  0.1204
  601loPI   C1A 9607   8.557  14.046  10.326  0.1217 -0.0631  0.1651
  601loPI   C2A 9608   8.570  13.972   9.900 -0.1954  0.2126  0.0631
  601loPI   C3A 9609   8.506  13.988   9.493  0.1590 -0.1023 -0.0702
  601loPI   C4A 9610   8.448  13.943   9.101 -0.1608 -0.2222 -0.0794
  601loPI   C5A 9611   8.437  13.899   8.707  0.1910 -0.1799 -0.2119
  601loPI   C6A 9612   8.162  13.640   8.373  0.0557 -0.2711 -0.1716
  601loPI   C1B 9613   8.660  13.526  10.175 -0.0726 -0.0505  0.4171
  601loPI   C2B 9614   8.566  13.480   9.716 -0.2701 -0.1587  0.0649
  601loPI   C3B 9615   8.546  13.408   9.299 -0.0432 -0.2960  0.1264
  601loPI   C4B 9616   8.568  13.500   8.935 -0.3673  0.2557 -0.0978
  602loPI    C1 9617   1.721  13.308  11.520  0.2704  0.1056 -0.1268
  602loPI    C2 9618   1.872  13.567  11.785 -0.0291  0.1632 -0.0089
  602loPI    C3 9619   1.642  13.264  11.910  0.2910 -0.1440 -0.1490
  602loPI   PO4 9620   1.668  13.419  11.353 -0.0889  0.0945 -0.0169
  602loPI   GL1 9621   1.787  13.417  10.931  0.0803  0.4624  0.0853
  602loPI   GL2 9622   1.514  13.355  10.805  0.0796  0.0720  0.0609
  602loPI   C1A 9623   1.916  13.696  10.602  0.1112  0.2407  0.0296
  602loPI   C2A 9624   1.737  13.615  10.192 -0.1275 -0.1414  0.0698
  602loPI   C3A 9625   1.696  13.481   9.793 -0.1348 -0.1609 -0.0933
  602loPI   C4A 9626   1.725  13.487   9.346 -0.1929  0.1268  0.0451
  602loPI   C5A 9627   1.765  13.458   8.937 -0.0404  0.0549  0.0476
  602loPI   C6A 9628   2.028  13.207   8.611  0.1780 -0.2216  0.0115
  602loPI   C1B 9629   1.399  13.208  10.426  0.3502 -0.2377 -0.0530
  602loPI   C2B 9630   1.311  13.275  10.038 -0.0644 -0.2638 -0.2643
  602loPI   C3B 9631   1.367  13.200   9.610  0.1155  0.1151 -0.1121
  602loPI   C4B 9632   1.332  13.219   9.128 -0.0625  0.1860  0.2672
  603loPI    C1 9633  16.909   3.192  10.248  0.0144  0.3811  0.1896
  603loPI    C2 9634  17.306   3.178  10.204 -0.0263 -0.0405 -0.1010
  603loPI    C3 9635  17.134   3.003  10.520  0.0172  0.1597  0.0357
  603loPI   PO4 9636  16.876   3.211   9.952 -0.2747 -0.1553  0.1008
  603loPI   GL1 9637  16.524   3.133   9.619  0.1397  0.2569 -0.0727
  603loPI   GL2 9638  16.641   2.823   9.650  0.0788 -0.1533  0.2578
  603loPI   C1A 9639  16.666   3.325   9.117 -0.0684  0.0557  0.3444
  603loPI   C2A 9640  16.741   3.536   8.745  0.2445  0.0055 -0.0551
  603loPI   C3A 9641  16.675   3.518   8.375 -0.2515  0.1604 -0.1222
  603loPI   C4A 9642  16.704   3.469   7.936 -0.1534 -0.0307 -0.1022
  603loPI   C5A 9643  16.980   3.370   7.619  0.0919 -0.0616 -0.1015
  603loPI   C6A 9644  17.172   3.187   7.255 -0.0705  0.0118 -0.0088
  603loPI   C1B 9645  16.759   2.869   9.306 -0.0045  0.0809  0.1363
  603loPI   C2B 9646  16.678   2.832   8.949  0.2217  0.2178 -0.2231
  603loPI   C3B 9647  16.868   2.858   8.503  0.0647 -0.1688 -0.0257
  603loPI   C4B 9648  16.936   3.085   8.131  0.0808 -0.0732  0.0260
  604loPI    C1 9649  14.220  13.649  11.418  0.0178  0.3024  0.0404
  604loPI    C2 9650  14.527  13.887  11.512  0.1671  0.1009  0.0696
  604loPI    C3 9651  14.374  13.641  11.788  0.0588  0.1130  0.0203
  604loPI   PO4 9652  14.170  13.578  11.206 -0.0180  0.1024 -0.3806
  604loPI   GL1 9653  14.345  13.674  10.767 -0.1113  0.1867 -0.0148
  604loPI   GL2 9654  14.414  13.295  10.710 -0.3109 -0.0065  0.2968
  604loPI   C1A 9655  14.087  13.709  10.386 -0.0860  0.0888  0.0677
  604loPI   C2A 9656  14.002  13.814  10.039 -0.0439  0.2307  0.4008
  604loPI   C3A 9657  13.950  13.764   9.564 -0.1038 -0.0098 -0.0867
  604loPI   C4A 9658  13.831  13.804   9.165 -0.2067  0.0214  0.4481
  604loPI   C5A 9659  13.801  13.718   8.722 -0.2558 -0.1915 -0.0071
  604loPI   C6A 9660  13.781  13.831   8.315 -0.2691 -0.1905 -0.0336
  604loPI   C1B 9661  14.013  13.229  10.439  0.0963 -0.2584  0.2250
  604loPI   C2B 9662  13.951  13.247   9.982 -0.1980  0.0128 -0.4389
  604loPI   C3B 9663  14.034  13.273   9.499  0.0779  0.0020  0.1847
  604loPI   C4B 9664  13.918  13.228   9.094 -0.2498  0.1299 -0.2846
  605loPI    C1 9665  17.479   6.874  11.029 -0.2063  0.0417  0.0057
  605loPI    C2 9666  17.332   6.918  11.398 -0.1828 -0.1507  0.0395
  605loPI    C3 9667  17.706   7.034  11.316 -0.1774 -0.1367  0.0837
  605loPI   PO4 9668  17.312   6.961  10.872 -0.1118 -0.0209  0.0031
  605loPI   GL1 9669  17.285   6.960  10.456  0.0974  0.2333 -0.0795
  605loPI   GL2 9670  17.328   6.676  10.428  0.1153 -0.0303  0.1818
  605loPI   C1A 9671  17.323   7.286  10.173  0.1282  0.1160 -0.2852
  605loPI   C2A 9672  17.223   7.352   9.770 -0.0817 -0.2077  0.3178
  605loPI   C3A 9673  17.232   7.394   9.319  0.1069 -0.0064 -0.1566
  605loPI   C4A 9674  17.230   7.318   8.902  0.0923 -0.0849  0.2019
  605loPI   C5A 9675  17.135   7.356   8.498  0.0100 -0.0700  0.0600
  605loPI   C6A 9676  17.188   7.401   8.042  0.1424 -0.0448  0.1172
  605loPI   C1B 9677  17.325   6.830  10.014 -0.1307 -0.2692  0.0339
  605loPI   C2B 9678  17.283   6.864   9.543  0.0873  0.0335 -0.0692
  605loPI   C3B 9679  17.255   6.846   9.087  0.1474 -0.0518 -0.1495
  605loPI   C4B 9680  17.167   6.848   8.673  0.1676 -0.0818 -0.0590
  606loPI    C1 9681   8.723  17.154  10.748  0.2756 -0.1385 -0.3469
  606loPI    C2 9682   8.927  16.914  10.995  0.0764 -0.0418 -0.0824
  606loPI    C3 9683   8.930  17.309  11.054 -0.2623 -0.0462 -0.0167
  606loPI   PO4 9684   8.781  17.136  10.522 -0.1038 -0.1968  0.0483
  606loPI   GL1 9685   9.212  17.126  10.281 -0.0654 -0.0348 -0.1265
  606loPI   GL2 9686   9.037  16.850  10.018 -0.0696 -0.1575 -0.2964
  606loPI   C1A 9687   9.484  17.162   9.916  0.4026  0.0075 -0.1171
  606loPI   C2A 9688   9.471  17.105   9.422 -0.1821 -0.0104  0.2070
  606loPI   C3A 9689   9.510  16.864   8.990 -0.1244 -0.0118  0.1939
  606loPI   C4A 9690   9.575  16.675   8.548  0.2555 -0.2999 -0.0672
  606loPI   C5A 9691   9.270  16.405   8.258  0.2256  0.0159  0.0289
  606loPI   C6A 9692   8.985  16.183   8.451  0.2210  0.1077 -0.0038
  606loPI   C1B 9693   9.010  16.865   9.605 -0.0652  0.2247 -0.1537
  606loPI   C2B 9694   8.999  16.757   9.203  0.0933  0.0435  0.0183
  606loPI   C3B 9695   9.011  16.800   8.769 -0.0668 -0.2774  0.1805
  606loPI   C4B 9696   9.165  16.915   8.335  0.0907 -0.2348 -0.1627
  607loPI    C1 9697   4.243  16.801  10.614  0.1585  0.0078 -0.0498
  607loPI    C2 9698   4.104  16.663  10.963 -0.0312  0.0931 -0.0902
  607loPI    C3 9699   3.850  16.751  10.667  0.1075  0.2757 -0.1575
  607loPI   PO4 9700   4.389  16.662  10.510 -0.0924  0.1074  0.2593
  607loPI   GL1 9701   4.143  16.414  10.245  0.2992 -0.0862 -0.0126
  607loPI   GL2 9702   4.428  16.457  10.060  0.2094 -0.3384 -0.0337
  607loPI   C1A 9703   4.050  16.147   9.899 -0.0120 -0.3123 -0.1131
  607loPI   C2A 9704   4.030  16.054   9.508 -0.0547 -0.4142  0.1739
  607loPI   C3A 9705   4.043  16.098   9.032 -0.1920 -0.0301 -0.0759
  607loPI   C4A 9706   3.956  16.328   8.701  0.1433  0.0206 -0.0539
  607loPI   C5A 9707   3.894  16.442   8.370 -0.2838 -0.0490 -0.0754
  607loPI   C6A 9708   4.135  16.610   7.951 -0.2034 -0.1292  0.1256
  607loPI   C1B 9709   4.402  16.459   9.671 -0.3503  0.1864  0.5444
  607loPI   C2B 9710   4.364  16.435   9.207 -0.0383  0.2243  0.0625
  607loPI   C3B 9711   4.370  16.592   8.806  0.0612  0.3704  0.2461
  607loPI   C4B 9712   4.457  16.427   8.306  0.3316  0.2525 -0.2610
  608loPI    C1 9713   0.940   6.084  11.030 -0.0512 -0.2914  0.0482
  608loPI    C2 9714   0.543   6.101  11.072 -0.0617 -0.0232 -0.1362
  608loPI    C3 9715   0.759   5.863  11.310 -0.3220 -0.0989  0.0286
  608loPI   PO4 9716   0.966   5.929  10.811  0.1083 -0.1243  0.1731
  608loPI   GL1 9717   0.785   5.881  10.443  0.2556 -0.0129  0.0031
  608loPI   GL2 9718   1.091   5.638  10.290  0.0150 -0.0368 -0.1067
  608loPI   C1A 9719   0.724   5.799   9.969 -0.0725 -0.1012  0.0778
  608loPI   C2A 9720   0.802   5.691   9.635  0.1237  0.2497  0.2154
  608loPI   C3A 9721   0.868   5.723   9.178 -0.0317 -0.0764  0.0845
  608loPI   C4A 9722   0.882   5.845   8.786  0.1720 -0.0527 -0.0853
  608loPI   C5A 9723   0.947   5.874   8.342  0.2463 -0.1403 -0.1660
  608loPI   C6A 9724   0.716   6.073   7.987 -0.0047 -0.2226 -0.2841
  608loPI   C1B 9725   1.277   5.409   9.978  0.0861  0.2046  0.2739
  608loPI   C2B 9726   1.277   5.503   9.549  0.0256  0.0846 -0.0417
  608loPI   C3B 9727   1.344   5.504   9.132 -0.1166 -0.0768  0.2330
  608loPI   C4B 9728   1.295   5.611   8.611  0.0117  0.3112  0.1388
  609loPI    C1 9729   7.894  10.218  11.160  0.0086 -0.0905 -0.0367
  609loPI    C2 9730   7.845  10.354  11.532 -0.0702 -0.0355 -0.0671
  609loPI    C3 9731   8.162  10.127  11.443 -0.0126  0.0117  0.0164
  609loPI   PO4 9732   7.901  10.434  10.974 -0.0871  0.1556 -0.1536
  609loPI   GL1 9733   7.930  10.573  10.569 -0.1473 -0.2607  0.0103
  609loPI   GL2 9734   8.062  10.783  10.540  0.1260 -0.2033  0.2982
  609loPI   C1A 9735   7.709  10.568  10.253  0.0670  0.1139 -0.1427
  609loPI   C2A 9736   7.734  10.405   9.869  0.2066  0.1379  0.0975
  609loPI   C3A 9737   7.803  10.415   9.423  0.2155  0.0148 -0.0327
  609loPI   C4A 9738   7.711  10.453   9.048  0.4268 -0.1522 -0.2571
  609loPI   C5A 9739   7.699  10.474   8.618 -0.1485 -0.2114  0.0039
  609loPI   C6A 9740   7.925  10.581   8.351 -0.0351 -0.0108  0.2696
  609loPI   C1B 9741   8.130  10.730  10.086  0.0569 -0.1988  0.3288
  609loPI   C2B 9742   8.097  10.771   9.653  0.0439 -0.0756  0.0613
  609loPI   C3B 9743   8.088  10.749   9.166 -0.0031  0.3059  0.0798
  609loPI   C4B 9744   8.124  10.837   8.727  0.2609  0.2353 -0.3285
  610loPI    C1 9745   8.442   8.540  11.244  0.0386 -0.1625 -0.0008
  610loPI    C2 9746   8.450   8.214  11.476  0.0738  0.0627  0.3225
  610loPI    C3 9747   8.241   8.535  11.590 -0.1032  0.0951 -0.0771
  610loPI   PO4 9748   8.419   8.437  10.918  0.0022 -0.0849 -0.0895
  610loPI   GL1 9749   8.446   8.086  10.560  0.1507  0.1257 -0.2264
  610loPI   GL2 9750   8.571   7.715  10.493 -0.0485  0.2149 -0.2208
  610loPI   C1A 9751   8.496   8.216  10.118 -0.0005 -0.0877 -0.1918
  610loPI   C2A 9752   8.569   8.272   9.695 -0.1240 -0.0699 -0.1960
  610loPI   C3A 9753   8.524   8.193   9.288 -0.5744 -0.1149  0.0146
  610loPI   C4A 9754   8.518   8.245   8.865  0.0029 -0.0938 -0.0102
  610loPI   C5A 9755   8.293   8.107   8.503  0.1452 -0.1218  0.0347
  610loPI   C6A 9756   8.487   7.705   8.346  0.0298  0.1699 -0.2268
  610loPI   C1B 9757   8.556   7.707  10.026  0.1337  0.3116  0.1681
  610loPI   C2B 9758   8.662   7.718   9.647 -0.2643 -0.3071 -0.1571
  610loPI   C3B 9759   8.636   7.667   9.219 -0.3592 -0.2571 -0.1245
  610loPI   C4B 9760   8.526   7.734   8.805 -0.1099  0.3375  0.2233
  611loPI    C1 9761   7.389   1.761  10.621  0.2791  0.1392  0.1828
  611loPI    C2 9762   7.442   1.365  10.612  0.1478  0.1259 -0.3779
  611loPI    C3 9763   7.114   1.519  10.782  0.2852  0.0102  0.0024
  611loPI   PO4 9764   7.394   1.877  10.396 -0.0185  0.4151 -0.3335
  611loPI   GL1 9765   7.272   2.224  10.186  0.1449 -0.0028 -0.0605
  611loPI   GL2 9766   7.516   2.240  10.011 -0.0974  0.2006  0.0659
  611loPI   C1A 9767   7.134   2.481   9.773  0.1190 -0.1393 -0.2478
  611loPI   C2A 9768   7.044   2.556   9.363  0.1881  0.0638  0.0558
  611loPI   C3A 9769   7.114   2.500   8.864 -0.1659 -0.2634 -0.0889
  611loPI   C4A 9770   7.141   2.448   8.439 -0.0210  0.1101  0.2260
  611loPI   C5A 9771   7.136   2.550   7.992 -0.0179 -0.0639 -0.0078
  611loPI   C6A 9772   6.813   2.788   7.726 -0.2795  0.1569  0.0319
  611loPI   C1B 9773   7.597   2.395   9.577 -0.1976 -0.0484 -0.2463
  611loPI   C2B 9774   7.587   2.412   9.091  0.1189 -0.1774  0.0692
  611loPI   C3B 9775   7.555   2.309   8.678 -0.0301 -0.0594 -0.0063
  611loPI   C4B 9776   7.608   2.386   8.234  0.1221 -0.1772 -0.0401
  612loPI    C1 9777  16.458   7.741  11.043  0.1281  0.1151 -0.1320
  612loPI    C2 9778  16.251   8.076  10.973 -0.2525 -0.1181 -0.1526
  612loPI    C3 9779  16.536   8.071  11.254 -0.2563  0.2148 -0.1390
  612loPI   PO4 9780  16.510   7.665  10.843  0.0172 -0.0120 -0.0936
  612loPI   GL1 9781  16.306   7.802  10.468 -0.4110 -0.2872  0.0998
  612loPI   GL2 9782  16.227   8.090  10.409 -0.0963 -0.2904  0.0746
  612loPI   C1A 9783  16.379   7.691  10.108  0.2259  0.1232 -0.3721
  612loPI   C2A 9784  16.394   7.692   9.764  0.0646  0.0976  0.0536
  612loPI   C3A 9785  16.188   7.720   9.320 -0.1815  0.3793 -0.1661
  612loPI   C4A 9786  16.290   7.742   8.896  0.1852  0.2953 -0.3487
  612loPI   C5A 9787  16.197   7.736   8.542  0.0243  0.1458  0.2012
  612loPI   C6A 9788  16.143   8.128   8.226  0.2225  0.0120 -0.0246
  612loPI   C1B 9789  16.241   8.158   9.987  0.3113  0.0246 -0.3463
  612loPI   C2B 9790  16.230   8.183   9.570 -0.0653  0.3206  0.0616
  612loPI   C3B 9791  16.251   8.171   9.133  0.2417 -0.0106 -0.2755
  612loPI   C4B 9792  16.233   8.212   8.750  0.1237  0.0997  0.3549
  613loPI    C1 9793   9.478   3.659  10.681 -0.0727  0.0806  0.0158
  613loPI    C2 9794   9.815   3.826  10.816  0.0130  0.0659 -0.1767
  613loPI    C3 9795   9.566   3.643  11.070  0.1539  0.0692 -0.0347
  613loPI   PO4 9796   9.472   3.616  10.422  0.1417  0.0930 -0.0418
  613loPI   GL1 9797   9.637   3.681   9.962  0.2675 -0.0550  0.0131
  613loPI   GL2 9798   9.736   3.443   9.863 -0.0142  0.1959 -0.0386
  613loPI   C1A 9799   9.656   3.907   9.593 -0.2233 -0.1889 -0.0669
  613loPI   C2A 9800   9.566   3.996   9.281 -0.0248  0.0558 -0.1815
  613loPI   C3A 9801   9.628   4.044   8.861  0.2584  0.1131 -0.0757
  613loPI   C4A 9802   9.615   4.048   8.406 -0.2277 -0.1612 -0.2926
  613loPI   C5A 9803   9.205   4.215   8.183 -0.1461 -0.0177  0.1074
  613loPI   C6A 9804   8.695   4.291   7.990 -0.2103 -0.1086 -0.0430
  613loPI   C1B 9805   9.830   3.449   9.436  0.2696  0.0759  0.1116
  613loPI   C2B 9806   9.664   3.545   9.062 -0.1451 -0.1736  0.2109
  613loPI   C3B 9807   9.670   3.521   8.606  0.1072  0.2711  0.2552
  613loPI   C4B 9808   9.742   3.528   8.151 -0.2378  0.2339 -0.2270
  614loPI    C1 9809  13.190  12.794  10.806  0.0897  0.1429 -0.1717
  614loPI    C2 9810  12.975  12.859  11.137 -0.0046  0.1664 -0.2371
  614loPI    C3 9811  13.373  12.822  11.161 -0.0383 -0.1322 -0.0809
  614loPI   PO4 9812  13.147  12.645  10.698  0.0765 -0.0597  0.0811
  614loPI   GL1 9813  12.896  12.675  10.361 -0.1661 -0.0747 -0.0459
  614loPI   GL2 9814  13.207  12.603  10.193  0.0760  0.5277 -0.4193
  614loPI   C1A 9815  12.688  12.799  10.011 -0.2194  0.1396  0.3567
  614loPI   C2A 9816  12.724  12.750   9.562 -0.2039  0.1113 -0.3555
  614loPI   C3A 9817  12.695  12.784   9.167  0.0725 -0.1412 -0.1333
  614loPI   C4A 9818  12.631  12.817   8.772  0.0789 -0.3168  0.0652
  614loPI   C5A 9819  12.534  12.744   8.398 -0.0151  0.4302 -0.0447
  614loPI   C6A 9820  12.785  13.102   8.106  0.1042  0.1091  0.1333
  614loPI   C1B 9821  13.218  12.594   9.768 -0.2644  0.1300 -0.0128
  614loPI   C2B 9822  13.143  12.618   9.281 -0.0476 -0.2617 -0.2609
  614loPI   C3B 9823  13.172  12.698   8.778 -0.1026 -0.1830  0.0752
  614loPI   C4B 9824  13.294  12.850   8.372  0.1766  0.3534  0.1464
  615loPI    C1 9825   8.181  14.376  11.208  0.2170  0.1170 -0.2628
  615loPI    C2 9826   8.141  14.527  11.576  0.1637  0.1237 -0.2712
  615loPI    C3 9827   8.431  14.262  11.499  0.1651  0.1102 -0.2207
  615loPI   PO4 9828   8.200  14.536  11.016  0.1967 -0.3552  0.0040
  615loPI   GL1 9829   8.050  14.404  10.527  0.0101  0.0006  0.0638
  615loPI   GL2 9830   8.367  14.516  10.462 -0.1150 -0.2208 -0.1795
  615loPI   C1A 9831   8.099  14.230  10.165 -0.1524 -0.1062  0.2196
  615loPI   C2A 9832   8.097  14.170   9.759 -0.0363 -0.3377  0.2289
  615loPI   C3A 9833   8.085  14.214   9.307 -0.2207  0.2155 -0.1894
  615loPI   C4A 9834   7.984  14.128   8.948  0.0908 -0.1020  0.0819
  615loPI   C5A 9835   7.982  14.169   8.549  0.2710 -0.0061  0.1179
  615loPI   C6A 9836   8.131  14.545   8.407 -0.2447 -0.2450 -0.2404
  615loPI   C1B 9837   8.523  14.516   9.934  0.3229  0.0865 -0.0406
  615loPI   C2B 9838   8.408  14.518   9.561 -0.0017 -0.0230  0.0244
  615loPI   C3B 9839   8.482  14.505   9.205  0.2631  0.0835  0.1685
  615loPI   C4B 9840   8.426  14.362   8.776  0.1047  0.1637  0.3106
  616loPI    C1 9841   4.539   9.311  11.168 -0.0570 -0.0989  0.0518
  616loPI    C2 9842   4.302   9.200  11.471 -0.0825  0.0127  0.0734
  616loPI    C3 9843   4.510   9.541  11.494  0.0147 -0.0424  0.0184
  616loPI   PO4 9844   4.454   9.299  10.967 -0.0547 -0.1712  0.1856
  616loPI   GL1 9845   4.388   9.508  10.636  0.0687  0.0108  0.0858
  616loPI   GL2 9846   4.742   9.403  10.551  0.0417 -0.2815  0.0728
  616loPI   C1A 9847   4.397   9.417  10.210 -0.0500 -0.1614  0.1335
  616loPI   C2A 9848   4.365   9.391   9.768  0.0621  0.2924 -0.3481
  616loPI   C3A 9849   4.357   9.339   9.354 -0.2098 -0.2036 -0.0641
  616loPI   C4A 9850   4.407   9.318   8.978  0.1232 -0.0767  0.1708
  616loPI   C5A 9851   4.380   9.325   8.536  0.2158 -0.1086 -0.0073
  616loPI   C6A 9852   4.225   9.101   8.265 -0.2415 -0.0642 -0.0724
  616loPI   C1B 9853   4.862   9.198  10.176  0.2499  0.0626  0.0435
  616loPI   C2B 9854   4.833   9.172   9.815 -0.2828  0.1879 -0.0698
  616loPI   C3B 9855   4.800   9.098   9.409 -0.1519  0.1204 -0.1958
  616loPI   C4B 9856   4.872   9.151   8.999  0.1963  0.0588 -0.1520
  617loPI    C1 9857  10.536   9.251  10.778  0.0438  0.0187  0.0617
  617loPI    C2 9858  10.155   9.283  10.895  0.0734  0.3589  0.0740
  617loPI    C3 9859  10.450   9.303  11.165  0.1060  0.2194  0.0495
  617loPI   PO4 9860  10.577   9.433  10.625 -0.1689 -0.1856 -0.2556
  617loPI   GL1 9861  10.618   9.392  10.197  0.0752  0.0971 -0.2166
  617loPI   GL2 9862  10.935   9.283  10.226 -0.0211  0.3039 -0.2834
  617loPI   C1A 9863  10.532   9.268   9.766  0.0240 -0.0582 -0.0454
  617loPI   C2A 9864  10.624   9.316   9.307  0.0215  0.0072  0.0487
  617loPI   C3A 9865  10.594   9.376   8.914  0.0350 -0.0085 -0.1622
  617loPI   C4A 9866  10.466   9.295   8.554 -0.1846  0.2303 -0.0450
  617loPI   C5A 9867  10.118   9.473   8.226  0.0956  0.0128 -0.0154
  617loPI   C6A 9868   9.915   9.219   7.977  0.0581  0.0639  0.1667
  617loPI   C1B 9869  11.009   9.182   9.932 -0.1253 -0.0581  0.1974
  617loPI   C2B 9870  11.055   9.193   9.515  0.0346 -0.0768 -0.1404
  617loPI   C3B 9871  11.056   9.226   9.051 -0.1726  0.2660  0.0734
  617loPI   C4B 9872  10.991   9.160   8.649 -0.3291 -0.0296  0.0784
  618loPI    C1 9873   2.973  14.533  11.223  0.0014  0.2142  0.0986
  618loPI    C2 9874   3.226  14.311  11.439 -0.0089 -0.0221 -0.1282
  618loPI    C3 9875   2.834  14.296  11.514 -0.0118 -0.0993 -0.1573
  618loPI   PO4 9876   3.031  14.467  11.015 -0.3358 -0.0461  0.1264
  618loPI   GL1 9877   3.112  14.196  10.628  0.5528 -0.1281  0.0935
  618loPI   GL2 9878   2.807  14.062  10.677 -0.0792 -0.2757  0.0906
  618loPI   C1A 9879   3.088  14.058  10.153 -0.2562  0.1674  0.0428
  618loPI   C2A 9880   3.059  14.018   9.681  0.2654 -0.0029  0.1646
  618loPI   C3A 9881   3.095  14.055   9.329  0.2110  0.1976  0.0340
  618loPI   C4A 9882   3.015  13.958   8.810 -0.0615 -0.0411  0.1687
  618loPI   C5A 9883   2.763  13.877   8.497  0.0465  0.0951 -0.1018
  618loPI   C6A 9884   2.474  14.065   8.420 -0.3283  0.2295  0.0516
  618loPI   C1B 9885   2.626  14.227  10.278  0.2059 -0.1152 -0.0533
  618loPI   C2B 9886   2.599  14.233   9.805 -0.1999  0.2506  0.0060
  618loPI   C3B 9887   2.578  14.236   9.410  0.0992 -0.0359  0.0555
  618loPI   C4B 9888   2.554  14.064   9.001  0.0359  0.1261  0.1656
  619loPI    C1 9889   2.427   2.638  10.369 -0.0729  0.1414  0.1139
  619loPI    C2 9890   2.180   2.323  10.386 -0.0387  0.1120  0.0644
  619loPI    C3 9891   2.318   2.451  10.033 -0.0011  0.1424  0.0900
  619loPI   PO4 9892   2.309   2.858  10.406  0.0295  0.1209  0.2541
  619loPI   GL1 9893   2.422   3.203  10.075 -0.3800 -0.0466  0.4460
  619loPI   GL2 9894   2.288   3.404   9.940 -0.0364  0.2311  0.1780
  619loPI   C1A 9895   2.513   3.038   9.759  0.0886  0.0610  0.0156
  619loPI   C2A 9896   2.504   2.979   9.379  0.0735 -0.0961  0.0752
  619loPI   C3A 9897   2.579   2.835   8.922  0.0251  0.0927 -0.0905
  619loPI   C4A 9898   2.556   2.911   8.540 -0.1320  0.2423 -0.0551
  619loPI   C5A 9899   2.475   2.826   8.131 -0.0584 -0.3450  0.4595
  619loPI   C6A 9900   2.373   3.016   7.670  0.2325 -0.0215  0.3035
  619loPI   C1B 9901   2.418   3.487   9.504  0.2164 -0.1077  0.0766
  619loPI   C2B 9902   2.586   3.421   8.998 -0.0097 -0.1449 -0.0908
  619loPI   C3B 9903   2.449   3.418   8.632 -0.1582  0.1198  0.1652
  619loPI   C4B 9904   2.417   3.350   8.143  0.0958 -0.2734 -0.0298
  620loPI    C1 9905  15.060   1.882  10.800 -0.1406  0.0007  0.1087
  620loPI    C2 9906  14.974   1.855  11.189  0.0172 -0.1279  0.1357
  620loPI    C3 9907  15.084   1.529  10.986  0.0467 -0.0400  0.0095
  620loPI   PO4 9908  14.913   2.074  10.722  0.0996 -0.0117  0.0665
  620loPI   GL1 9909  14.981   2.214  10.282 -0.4013 -0.0843 -0.1742
  620loPI   GL2 9910  14.920   2.523  10.356 -0.1235 -0.1104 -0.1075
  620loPI   C1A 9911  14.902   2.080   9.838  0.0067 -0.2456 -0.2837
  620loPI   C2A 9912  14.803   2.089   9.505 -0.3732 -0.0684  0.1446
  620loPI   C3A 9913  14.962   1.999   9.103  0.0645  0.1397  0.2125
  620loPI   C4A 9914  14.948   2.164   8.602 -0.1578  0.0150 -0.0970
  620loPI   C5A 9915  14.919   1.999   8.177  0.0301  0.3262 -0.2172
  620loPI   C6A 9916  15.153   2.122   7.796 -0.1455  0.3449 -0.1043
  620loPI   C1B 9917  14.850   2.595   9.862  0.0417 -0.3109  0.0248
  620loPI   C2B 9918  14.698   2.578   9.423  0.0598  0.2877 -0.0129
  620loPI   C3B 9919  14.850   2.548   8.927  0.1523 -0.2256  0.2035
  620loPI   C4B 9920  14.891   2.694   8.441 -0.1246  0.0262 -0.1975
  621loPI    C1 9921  12.767  14.706  11.326  0.0649 -0.0252 -0.1862
  621loPI    C2 9922  13.115  14.849  11.464 -0.0532  0.2907 -0.2087
  621loPI    C3 9923  12.772  14.949  11.644 -0.1186 -0.2012 -0.0468
  621loPI   PO4 9924  12.839  14.713  11.010  0.2159 -0.3281  0.0659
  621loPI   GL1 9925  12.609  14.808  10.614 -0.0536 -0.0505  0.0418
  621loPI   GL2 9926  12.975  14.633  10.488  0.3482 -0.2038  0.0608
  621loPI   C1A 9927  12.388  14.786  10.228 -0.1118  0.0658 -0.1152
  621loPI   C2A 9928  12.443  14.775   9.822 -0.2483 -0.2313  0.1249
  621loPI   C3A 9929  12.378  14.821   9.397  0.2338  0.0035  0.2293
  621loPI   C4A 9930  12.385  14.837   8.950  0.1543  0.2153 -0.1369
  621loPI   C5A 9931  12.298  14.657   8.545  0.2954 -0.0374  0.0343
  621loPI   C6A 9932  11.911  14.431   8.369 -0.1294 -0.0967  0.3325
  621loPI   C1B 9933  12.900  14.594  10.080 -0.1038 -0.1097  0.2664
  621loPI   C2B 9934  12.937  14.657   9.633  0.0432  0.1603 -0.1427
  621loPI   C3B 9935  12.838  14.652   9.196 -0.1047 -0.1823 -0.0156
  621loPI   C4B 9936  12.766  14.612   8.745  0.3150 -0.0988 -0.0176
  622loPI    C1 9937   4.435   7.620  11.337  0.1557 -0.1999 -0.0463
  622loPI    C2 9938   4.329   7.471  11.693  0.2581 -0.0781  0.0357
  622loPI    C3 9939   4.634   7.729  11.667  0.1719  0.0086 -0.1239
  622loPI   PO4 9940   4.290   7.694  11.201 -0.1746  0.1842  0.3667
  622loPI   GL1 9941   4.138   7.817  10.829 -0.3304 -0.1027  0.0889
  622loPI   GL2 9942   3.818   7.869  10.765 -0.1744 -0.1584  0.0750
  622loPI   C1A 9943   4.205   7.602  10.410  0.0841 -0.0433  0.4045
  622loPI   C2A 9944   4.175   7.626  10.029 -0.0945  0.0717  0.3051
  622loPI   C3A 9945   4.078   7.674   9.616  0.2053 -0.0429 -0.1962
  622loPI   C4A 9946   4.248   7.554   9.211 -0.0927 -0.2009 -0.0960
  622loPI   C5A 9947   4.123   7.800   8.788  0.3500 -0.0199 -0.0911
  622loPI   C6A 9948   4.139   7.687   8.301  0.1648 -0.1499  0.1127
  622loPI   C1B 9949   3.620   7.820  10.333  0.3735 -0.0876  0.1069
  622loPI   C2B 9950   3.587   7.870   9.859 -0.0093 -0.1359  0.2686
  622loPI   C3B 9951   3.644   7.886   9.401  0.0078  0.1247  0.1300
  622loPI   C4B 9952   3.605   8.097   9.087 -0.2253  0.0468 -0.0761
  623loPI    C1 9953   4.448  16.041  10.871 -0.1819  0.0044 -0.1012
  623loPI    C2 9954   4.533  16.427  10.935  0.0157 -0.0622  0.0484
  623loPI    C3 9955   4.563  16.163  11.234 -0.0764 -0.2017 -0.0640
  623loPI   PO4 9956   4.471  16.045  10.607 -0.2697  0.3983 -0.3699
  623loPI   GL1 9957   4.817  16.020  10.290 -0.1417  0.2773 -0.0974
  623loPI   GL2 9958   5.032  15.975  10.024 -0.1150  0.0841 -0.1017
  623loPI   C1A 9959   4.526  15.977   9.895 -0.1400  0.3040 -0.0883
  623loPI   C2A 9960   4.512  15.931   9.549  0.2813  0.2281  0.2524
  623loPI   C3A 9961   4.541  15.935   9.066 -0.1714  0.0581  0.0791
  623loPI   C4A 9962   4.371  15.945   8.620 -0.2313 -0.1079 -0.0854
  623loPI   C5A 9963   4.153  16.050   8.213  0.0062  0.1364  0.0753
  623loPI   C6A 9964   3.919  15.672   8.072 -0.0104 -0.0846 -0.2241
  623loPI   C1B 9965   4.969  15.772   9.649  0.0971  0.0286 -0.0174
  623loPI   C2B 9966   5.006  15.654   9.274  0.1136  0.1505 -0.0379
  623loPI   C3B 9967   4.956  15.751   8.890 -0.0854 -0.2602 -0.0341
  623loPI   C4B 9968   4.956  15.786   8.500 -0.0113 -0.1371 -0.1350
  624loPI    C1 9969   6.204   9.719  11.462 -0.0801 -0.0748 -0.0920
  624loPI    C2 9970   6.049  10.081  11.389  0.0595 -0.0322 -0.1810
  624loPI    C3 9971   6.303  10.030  11.694  0.0764 -0.0449 -0.1972
  624loPI   PO4 9972   6.153   9.624  11.228 -0.1102  0.2306 -0.3375
  624loPI   GL1 9973   6.031   9.750  10.877  0.1583  0.0981  0.0260
  624loPI   GL2 9974   6.100  10.029  10.859  0.0293 -0.3152 -0.0260
  624loPI   C1A 9975   6.109   9.673  10.462 -0.0553  0.1134  0.1359
  624loPI   C2A 9976   6.073   9.660   9.993 -0.0453  0.1728 -0.2411
  624loPI   C3A 9977   6.099   9.624   9.608  0.0971  0.1030  0.2184
  624loPI   C4A 9978   6.069   9.632   9.281  0.3009  0.0966  0.0960
  624loPI   C5A 9979   6.130   9.711   8.844  0.2951 -0.1686  0.3150
  624loPI   C6A 9980   5.896   9.585   8.404 -0.1736 -0.1414  0.1819
  624loPI   C1B 9981   5.935  10.149  10.427  0.1347  0.0184 -0.0218
  624loPI   C2B 9982   6.045  10.225   9.969  0.2538  0.0413 -0.0015
  624loPI   C3B 9983   6.018  10.117   9.462 -0.0813  0.2418  0.0286
  624loPI   C4B 9984   6.022  10.195   9.052 -0.1980  0.0749  0.0895
  625loPI    C1 9985   3.029   1.720  10.875 -0.2359  0.2292  0.3246
  625loPI    C2 9986   2.992   2.101  10.989 -0.0447  0.3348  0.0447
  625loPI    C3 9987   3.345   1.916  11.022 -0.0301  0.3141 -0.2087
  625loPI   PO4 9988   2.963   1.685  10.610  0.0490  0.0724  0.0822
  625loPI   GL1 9989   3.009   1.820  10.179  0.1353  0.0749  0.1804
  625loPI   GL2 9990   3.206   1.716   9.919  0.3142  0.0410  0.0858
  625loPI   C1A 9991   2.757   1.954   9.762 -0.0561 -0.2891  0.3148
  625loPI   C2A 9992   2.645   1.929   9.349 -0.2561 -0.0939 -0.0737
  625loPI   C3A 9993   2.640   1.849   8.985 -0.0084  0.0472  0.0829
  625loPI   C4A 9994   2.722   1.877   8.559  0.1695  0.0973  0.0497
  625loPI   C5A 9995   2.623   1.945   8.098 -0.0869 -0.2525  0.1139
  625loPI   C6A 9996   2.299   2.196   8.016  0.0338  0.0781  0.0520
  625loPI   C1B 9997   3.167   1.751   9.480  0.1154  0.1737  0.4158
  625loPI   C2B 9998   3.078   1.672   9.040 -0.0927 -0.1011 -0.1560
  625loPI   C3B 9999   3.194   1.630   8.664  0.1594 -0.0712 -0.1244
  625loPI   C4B10000   3.156   1.643   8.206  0.0795 -0.2540 -0.2176
  626loPI    C110001  17.216   0.803  11.109 -0.0352 -0.2229  0.1021
  626loPI    C210002  17.118   0.623  11.453  0.1188 -0.2282  0.1437
  626loPI    C310003  17.409   0.898  11.447 -0.1019  0.0076  0.0771
  626loPI   PO410004  17.156   0.689  10.955  0.3034  0.1150 -0.1112
  626loPI   GL110005  17.215   0.666  10.502 -0.0354 -0.2122  0.3766
  626loPI   GL210006  17.199   0.965  10.304 -0.3246  0.2048  0.4021
  626loPI   C1A10007  17.154   0.497  10.109 -0.3071  0.1646  0.5020
  626loPI   C2A10008  17.192   0.350   9.695  0.0190 -0.0200  0.0745
  626loPI   C3A10009  17.066   0.346   9.331 -0.0102  0.1059  0.1341
  626loPI   C4A10010  17.134   0.340   8.853  0.1501  0.1902  0.0562
  626loPI   C5A10011  17.173   0.420   8.466  0.1693 -0.1913 -0.1284
  626loPI   C6A10012  17.070   0.560   8.115  0.0880  0.0389 -0.1514
  626loPI   C1B10013  17.112   0.915   9.874 -0.0693 -0.0029  0.0587
  626loPI   C2B10014  17.036   0.860   9.433  0.1779 -0.1660  0.2507
  626loPI   C3B10015  17.090   0.858   8.977  0.0188 -0.0187 -0.0290
  626loPI   C4B10016  17.077   0.925   8.537  0.0925 -0.0070 -0.1747
  627loPI    C110017   3.026   8.619  10.758  0.1365  0.2462 -0.0894
  627loPI    C210018   2.707   8.762  10.565 -0.0772 -0.2356 -0.1074
  627loPI    C310019   2.771   8.862  10.947 -0.0290  0.1744 -0.2185
  627loPI   PO410020   3.221   8.655  10.628  0.4174  0.3317 -0.2674
  627loPI   GL110021   3.091   8.627  10.237  0.3122 -0.1783  0.3284
  627loPI   GL210022   3.187   8.888  10.159  0.2640 -0.2591  0.1009
  627loPI   C1A10023   3.023   8.545   9.786  0.1082  0.0186 -0.2217
  627loPI   C2A10024   3.045   8.683   9.378  0.0273  0.0391 -0.0374
  627loPI   C3A10025   3.102   8.729   8.966 -0.0105  0.3036  0.2473
  627loPI   C4A10026   3.207   8.819   8.555 -0.1035  0.2536 -0.1359
  627loPI   C5A10027   3.259   9.142   8.276 -0.0936 -0.3967 -0.0065
  627loPI   C6A10028   3.131   9.520   8.093  0.0630  0.2725 -0.1852
  627loPI   C1B10029   3.313   8.976   9.721 -0.1933 -0.3563 -0.0486
  627loPI   C2B10030   3.540   9.148   9.323  0.1039 -0.2722  0.1104
  627loPI   C3B10031   3.552   9.157   8.863  0.0758 -0.1206 -0.2269
  627loPI   C4B10032   3.690   9.325   8.391  0.0343  0.0980 -0.2366
  628loPI    C110033  15.078   6.000  10.857  0.2947  0.0122  0.0187
  628loPI    C210034  15.319   5.819  11.120  0.2098  0.1255  0.1762
  628loPI    C310035  15.048   6.085  11.247  0.0505  0.0530 -0.0069
  628loPI   PO410036  15.194   6.014  10.694  0.2735  0.1265 -0.1234
  628loPI   GL110037  15.223   6.396  10.474 -0.0329 -0.1702  0.0235
  628loPI   GL210038  15.282   6.688  10.297  0.1244 -0.0806  0.0028
  628loPI   C1A10039  15.210   6.185  10.106  0.0741  0.3469 -0.1473
  628loPI   C2A10040  15.140   6.186   9.659 -0.2471 -0.0728 -0.0711
  628loPI   C3A10041  15.121   6.244   9.223  0.1779  0.1516 -0.1179
  628loPI   C4A10042  15.081   6.223   8.807  0.2525 -0.0984  0.0139
  628loPI   C5A10043  15.039   6.176   8.372 -0.0267  0.0835 -0.0400
  628loPI   C6A10044  15.078   5.809   8.117 -0.1327  0.2884  0.1623
  628loPI   C1B10045  15.055   6.654   9.941  0.2694 -0.0243 -0.2533
  628loPI   C2B10046  14.987   6.720   9.420  0.2722 -0.2476  0.0432
  628loPI   C3B10047  15.050   6.757   9.032  0.1092  0.1166  0.2194
  628loPI   C4B10048  15.009   6.810   8.544  0.0657  0.0910  0.0696
  629loPI    C110049  11.048  14.213  11.450  0.0555 -0.1563 -0.0387
  629loPI    C210050  11.307  13.911  11.413  0.1276 -0.0865 -0.1101
  629loPI    C310051  11.420  14.250  11.592  0.1033 -0.0346 -0.1928
  629loPI   PO410052  10.940  14.249  11.147  0.2373 -0.1890 -0.0654
  629loPI   GL110053  11.017  14.425  10.746 -0.1916 -0.3134  0.0963
  629loPI   GL210054  10.826  14.069  10.638  0.0429 -0.2197 -0.0723
  629loPI   C1A10055  11.057  14.379  10.329  0.0329  0.0891 -0.4041
  629loPI   C2A10056  11.172  14.315   9.881  0.3122 -0.0238  0.0310
  629loPI   C3A10057  11.112  14.361   9.457 -0.1701 -0.0731  0.1825
  629loPI   C4A10058  11.118  14.317   8.983 -0.1387  0.0809  0.0766
  629loPI   C5A10059  11.146  14.335   8.543  0.2333 -0.0401  0.0853
  629loPI   C6A10060  11.051  14.557   8.173  0.0308  0.0838 -0.2724
  629loPI   C1B10061  10.687  14.004  10.215  0.1175  0.0581  0.0755
  629loPI   C2B10062  10.711  14.008   9.784 -0.2667 -0.2173 -0.0093
  629loPI   C3B10063  10.690  14.004   9.358  0.0127 -0.0326  0.3668
  629loPI   C4B10064  10.731  14.011   9.025  0.0554 -0.1093  0.2336
  630loPI    C110065   1.743   3.559  10.767  0.0544  0.0428 -0.0775
  630loPI    C210066   1.906   3.669  11.116  0.1550  0.1250 -0.1497
  630loPI    C310067   1.596   3.416  11.111  0.3237 -0.0887 -0.0138
  630loPI   PO410068   1.873   3.709  10.596  0.0893  0.2865  0.3140
  630loPI   GL110069   1.921   3.795  10.184 -0.1582 -0.2355 -0.2300
  630loPI   GL210070   2.233   3.834  10.155  0.1524 -0.1216  0.3023
  630loPI   C1A10071   1.905   3.677   9.708 -0.0130 -0.0427  0.3031
  630loPI   C2A10072   1.921   3.647   9.341  0.0369  0.2848  0.0799
  630loPI   C3A10073   1.988   3.639   8.878  0.0378  0.0210 -0.2857
  630loPI   C4A10074   1.960   3.609   8.495  0.0688 -0.0328 -0.1095
  630loPI   C5A10075   2.005   3.602   8.103  0.0060  0.1461 -0.0379
  630loPI   C6A10076   1.910   3.285   7.819  0.0242 -0.0859 -0.0745
  630loPI   C1B10077   2.355   3.949   9.729  0.3291 -0.0592  0.3992
  630loPI   C2B10078   2.415   3.895   9.209  0.0340 -0.0825 -0.0121
  630loPI   C3B10079   2.534   3.945   8.742  0.1856  0.0521  0.1283
  630loPI   C4B10080   2.425   3.820   8.290 -0.4474 -0.1944  0.2662
  631loPI    C110081   6.360   2.274  10.655 -0.1617  0.0447  0.3455
  631loPI    C210082   6.603   1.973  10.756 -0.1566  0.0294  0.2879
  631loPI    C310083   6.565   2.288  10.999  0.2526  0.2323  0.0990
  631loPI   PO410084   6.129   2.177  10.601  0.1222 -0.0638  0.0447
  631loPI   GL110085   5.884   2.215  10.248  0.2763  0.0798 -0.6207
  631loPI   GL210086   6.157   2.439  10.149 -0.0384 -0.3541  0.0674
  631loPI   C1A10087   5.829   2.120   9.849  0.0398 -0.0265  0.0006
  631loPI   C2A10088   5.836   2.150   9.446  0.0772  0.1317  0.1596
  631loPI   C3A10089   5.831   2.052   9.005  0.0124  0.0069  0.1719
  631loPI   C4A10090   5.822   2.009   8.557  0.1381 -0.0008 -0.4265
  631loPI   C5A10091   5.804   2.100   8.112  0.0212  0.0445  0.4102
  631loPI   C6A10092   5.871   2.040   7.695 -0.3138 -0.0770 -0.0076
  631loPI   C1B10093   6.195   2.398   9.695 -0.1275  0.1007  0.1388
  631loPI   C2B10094   6.243   2.462   9.234  0.2095  0.1999  0.0459
  631loPI   C3B10095   6.251   2.311   8.703  0.0739 -0.4545 -0.1064
  631loPI   C4B10096   6.255   2.339   8.287 -0.1516 -0.1895 -0.0109
  632loPI    C110097  17.854  10.263  11.025  0.3239 -0.0889 -0.0905
  632loPI    C210098  18.046  10.418  11.340  0.3748 -0.1173 -0.1075
  632loPI    C310099  18.049  10.022  11.278 -0.1129 -0.1730  0.1761
  632loPI   PO410100  17.881  10.397  10.844  0.2648 -0.1341  0.0129
  632loPI   GL110101  17.796  10.406  10.373 -0.2394  0.0340 -0.0040
  632loPI   GL210102  18.005  10.223  10.371  0.2267  0.1978  0.0275
  632loPI   C1A10103  17.565  10.566  10.046  0.0871 -0.0073  0.1107
  632loPI   C2A10104  17.567  10.523   9.667 -0.0296  0.2504 -0.1129
  632loPI   C3A10105  17.602  10.489   9.266  0.2249 -0.4220 -0.4530
  632loPI   C4A10106  17.587  10.359   8.897  0.0148 -0.1992 -0.2694
  632loPI   C5A10107  17.611  10.415   8.413  0.1170  0.0684  0.1344
  632loPI   C6A10108  17.595  10.458   8.029  0.0707  0.1080  0.0401
  632loPI   C1B10109  18.107  10.216   9.968  0.2588 -0.0768 -0.0615
  632loPI   C2B10110  18.087  10.304   9.505 -0.1206  0.0309  0.2409
  632loPI   C3B10111  18.073  10.199   9.070 -0.0167  0.0207 -0.2744
  632loPI   C4B10112  18.073  10.253   8.656  0.1174  0.3047 -0.0464
  633loPI    C110113   0.429  11.675  10.880  0.0032 -0.1741  0.0412
  633loPI    C210114   0.672  11.595  11.188  0.0151  0.0203  0.0834
  633loPI    C310115   0.389  11.876  11.224  0.0312  0.0597 -0.0907
  633loPI   PO410116   0.593  11.721  10.735  0.0699  0.0536 -0.1838
  633loPI   GL110117   0.618  11.550  10.401  0.0359 -0.2327 -0.0630
  633loPI   GL210118   0.701  11.939  10.262 -0.1479  0.1664 -0.1084
  633loPI   C1A10119   0.807  11.486  10.031  0.0509  0.0568  0.1581
  633loPI   C2A10120   0.800  11.504   9.628 -0.0377 -0.0669  0.2642
  633loPI   C3A10121   0.790  11.485   9.267 -0.0371 -0.1353 -0.2505
  633loPI   C4A10122   0.772  11.459   8.959  0.1817  0.0093  0.2649
  633loPI   C5A10123   0.820  11.472   8.551  0.0519  0.4772 -0.0352
  633loPI   C6A10124   0.898  11.367   8.175  0.1309  0.0740 -0.0241
  633loPI   C1B10125   0.737  12.042   9.851 -0.0192  0.1737 -0.0679
  633loPI   C2B10126   0.688  11.978   9.406 -0.1102  0.1035  0.3374
  633loPI   C3B10127   0.726  11.972   8.991 -0.0854  0.0120 -0.2105
  633loPI   C4B10128   0.678  11.895   8.636  0.1908  0.1218 -0.0402
  634loPI    C110129   9.705   1.281  10.542 -0.2082 -0.0802 -0.2320
  634loPI    C210130   9.353   1.252  10.729 -0.0956 -0.3709 -0.0586
  634loPI    C310131   9.686   1.320  10.940 -0.0568  0.0014 -0.2319
  634loPI   PO410132   9.756   1.034  10.465 -0.0876  0.0158  0.0902
  634loPI   GL110133   9.765   0.903  10.065 -0.2315  0.1274  0.1275
  634loPI   GL210134  10.056   0.918  10.096 -0.3085  0.1127 -0.0034
  634loPI   C1A10135   9.762   1.002   9.576 -0.1981  0.0639 -0.2912
  634loPI   C2A10136   9.682   1.095   9.207 -0.2801  0.1324 -0.2439
  634loPI   C3A10137   9.684   0.995   8.810  0.0614 -0.0769  0.1633
  634loPI   C4A10138   9.581   0.973   8.456 -0.2419 -0.1963  0.1204
  634loPI   C5A10139   9.469   1.107   8.067  0.1320  0.0537 -0.0705
  634loPI   C6A10140   9.335   1.198   7.621  0.0496 -0.2239  0.0793
  634loPI   C1B10141  10.206   0.795   9.776  0.0481  0.1912 -0.4510
  634loPI   C2B10142  10.296   0.803   9.293  0.1121  0.0708 -0.2573
  634loPI   C3B10143  10.118   0.881   8.881 -0.2075  0.0067  0.2054
  634loPI   C4B10144  10.110   0.797   8.536  0.0626  0.0447  0.2206
  635loPI    C110145  12.516   1.581  10.893  0.0605 -0.1453 -0.1250
  635loPI    C210146  12.147   1.568  11.049  0.1719  0.0308  0.1617
  635loPI    C310147  12.274   1.898  10.863  0.1470 -0.0708 -0.0388
  635loPI   PO410148  12.553   1.450  10.745 -0.2828 -0.1049 -0.0403
  635loPI   GL110149  12.594   1.339  10.403 -0.3245  0.0610 -0.0347
  635loPI   GL210150  12.450   1.092  10.325  0.1979  0.2233 -0.0021
  635loPI   C1A10151  12.759   1.395   9.981 -0.0537 -0.2002  0.1137
  635loPI   C2A10152  12.820   1.385   9.528  0.0091  0.2012  0.0594
  635loPI   C3A10153  12.866   1.377   9.094 -0.1961 -0.0825  0.0906
  635loPI   C4A10154  12.863   1.397   8.707 -0.2254  0.2441 -0.1555
  635loPI   C5A10155  12.627   1.453   8.291  0.0316  0.1777 -0.2521
  635loPI   C6A10156  12.206   1.219   8.198 -0.1815 -0.1556 -0.0105
  635loPI   C1B10157  12.420   1.032   9.891 -0.0971  0.0717  0.2147
  635loPI   C2B10158  12.442   1.049   9.458  0.1220  0.1264  0.0847
  635loPI   C3B10159  12.483   1.068   9.071  0.0159  0.0739  0.1657
  635loPI   C4B10160  12.438   1.078   8.622  0.2346 -0.0253 -0.1236
  636loPI    C110161   8.620   4.488  10.899 -0.0808 -0.1273 -0.0040
  636loPI    C210162   8.833   4.744  11.121 -0.1394  0.1415 -0.2514
  636loPI    C310163   8.637   4.442  11.296  0.0090  0.2071  0.0339
  636loPI   PO410164   8.790   4.509  10.666  0.2556  0.1257 -0.0048
  636loPI   GL110165   8.751   4.758  10.330 -0.1017 -0.1056  0.1176
  636loPI   GL210166   8.507   4.647  10.142 -0.0945 -0.1297 -0.0452
  636loPI   C1A10167   9.092   4.645   9.989  0.2305 -0.0163 -0.1783
  636loPI   C2A10168   9.101   4.693   9.573 -0.0172 -0.0882  0.3800
  636loPI   C3A10169   9.038   4.685   9.209 -0.0776  0.0055 -0.3087
  636loPI   C4A10170   9.012   4.733   8.786 -0.0707 -0.4322 -0.1593
  636loPI   C5A10171   9.120   4.686   8.325  0.2242 -0.1916 -0.4003
  636loPI   C6A10172   9.257   4.621   7.923  0.0240 -0.2352 -0.0632
  636loPI   C1B10173   8.585   4.868   9.806 -0.1410  0.0543 -0.1895
  636loPI   C2B10174   8.620   4.866   9.467 -0.0755 -0.2046 -0.0434
  636loPI   C3B10175   8.555   4.816   8.948  0.0955  0.0470 -0.0349
  636loPI   C4B10176   8.622   4.853   8.470 -0.0310 -0.0038  0.6116
  637loPI    C110177   1.677  14.576  11.289 -0.0511  0.0325  0.2266
  637loPI    C210178   1.325  14.575  11.478 -0.1504 -0.0025  0.0442
  637loPI    C310179   1.490  14.921  11.365 -0.0507  0.0243  0.2651
  637loPI   PO410180   1.692  14.374  11.148  0.1569 -0.2114  0.0723
  637loPI   GL110181   1.662  14.224  10.778 -0.0778 -0.0632  0.1106
  637loPI   GL210182   1.685  14.507  10.652  0.1123 -0.0727  0.0727
  637loPI   C1A10183   1.694  14.087  10.378 -0.1399 -0.1344  0.2025
  637loPI   C2A10184   1.725  14.061   9.968  0.0810  0.0077 -0.4630
  637loPI   C3A10185   1.657  13.977   9.552 -0.1980 -0.0105  0.0873
  637loPI   C4A10186   1.720  14.014   9.069  0.1111 -0.2360 -0.0800
  637loPI   C5A10187   1.669  13.910   8.719  0.2421 -0.0848 -0.4200
  637loPI   C6A10188   1.679  13.594   8.441 -0.0220 -0.1888 -0.1049
  637loPI   C1B10189   1.646  14.507  10.142  0.2129  0.2188 -0.2150
  637loPI   C2B10190   1.657  14.597   9.782  0.0167 -0.0185  0.2372
  637loPI   C3B10191   1.624  14.463   9.380 -0.3405 -0.0481 -0.0543
  637loPI   C4B10192   1.658  14.483   8.915  0.0365  0.0725  0.0195
  638loPI    C110193   8.604   3.340  10.850  0.0673  0.1384  0.1188
  638loPI    C210194   8.302   3.439  11.093 -0.1376 -0.3708  0.0845
  638loPI    C310195   8.678   3.524  11.198 -0.2637 -0.0463  0.2924
  638loPI   PO410196   8.568   3.393  10.586 -0.2302  0.0957  0.0811
  638loPI   GL110197   8.479   3.528  10.158  0.4309  0.1740  0.2733
  638loPI   GL210198   8.092   3.529  10.113  0.3129  0.1170 -0.1008
  638loPI   C1A10199   8.735   3.793   9.820  0.3541 -0.0004  0.1558
  638loPI   C2A10200   8.767   3.823   9.418  0.1012  0.2176 -0.2413
  638loPI   C3A10201   8.672   3.887   9.040 -0.0837  0.2033 -0.1731
  638loPI   C4A10202   8.670   3.869   8.615  0.1204  0.1506 -0.0909
  638loPI   C5A10203   8.784   3.768   8.142 -0.0414  0.3368 -0.2347
  638loPI   C6A10204   8.892   3.397   7.824  0.2037  0.1573  0.0236
  638loPI   C1B10205   8.279   3.478   9.732 -0.1331  0.2132  0.0375
  638loPI   C2B10206   8.322   3.569   9.293 -0.0880 -0.0057  0.1353
  638loPI   C3B10207   8.327   3.490   8.890 -0.0492 -0.0915 -0.0780
  638loPI   C4B10208   8.204   3.619   8.495 -0.0380  0.0888 -0.0007
  639loPI    C110209  11.039   5.230  11.183  0.2084  0.1405 -0.1416
  639loPI    C210210  11.379   5.116  11.359 -0.0262 -0.0880  0.1751
  639loPI    C310211  11.257   5.496  11.388  0.0411 -0.0775  0.3347
  639loPI   PO410212  11.086   4.980  10.930 -0.1686  0.2629 -0.1125
  639loPI   GL110213  11.096   4.976  10.454  0.2168 -0.1135  0.2140
  639loPI   GL210214  11.415   5.029  10.377 -0.0112  0.0027 -0.4785
  639loPI   C1A10215  10.791   5.339  10.147  0.0891 -0.3268 -0.0866
  639loPI   C2A10216  10.742   5.404   9.709  0.2729 -0.0591 -0.0870
  639loPI   C3A10217  10.774   5.415   9.212 -0.3234  0.0482  0.2040
  639loPI   C4A10218  10.722   5.585   8.787  0.1419 -0.0177  0.0148
  639loPI   C5A10219  10.745   5.540   8.381  0.3636  0.1852  0.0952
  639loPI   C6A10220  11.069   5.663   8.138  0.1746 -0.1841  0.0196
  639loPI   C1B10221  11.644   5.020  10.000  0.0787 -0.0386  0.1310
  639loPI   C2B10222  11.773   5.036   9.606 -0.0459 -0.1373 -0.0224
  639loPI   C3B10223  11.634   5.176   9.159 -0.2266  0.1287 -0.1527
  639loPI   C4B10224  11.613   5.115   8.651 -0.0567 -0.0102 -0.0390
  640loPI    C110225  17.829   7.156  10.805 -0.2218  0.1852 -0.1267
  640loPI    C210226  18.138   6.974  10.628 -0.1655  0.0243  0.1317
  640loPI    C310227  17.767   6.834  10.575 -0.1320 -0.1155  0.2603
  640loPI   PO410228  17.833   7.420  10.723 -0.0852  0.0563  0.1474
  640loPI   GL110229  18.047   7.437  10.347 -0.1272  0.0484 -0.1078
  640loPI   GL210230  17.775   7.198  10.281  0.2530 -0.3375 -0.2431
  640loPI   C1A10231  18.208   7.497   9.969  0.1083 -0.0237 -0.1460
  640loPI   C2A10232  18.195   7.392   9.541 -0.0626  0.0047  0.0737
  640loPI   C3A10233  18.081   7.449   9.140  0.1876  0.1209 -0.1224
  640loPI   C4A10234  18.032   7.521   8.767 -0.1791  0.0590  0.0015
  640loPI   C5A10235  18.068   7.602   8.254  0.0748  0.0149 -0.1655
  640loPI   C6A10236  18.198   7.730   7.823  0.0069 -0.0818 -0.0182
  640loPI   C1B10237  17.739   7.143   9.884 -0.1832  0.2234 -0.1754
  640loPI   C2B10238  17.763   7.086   9.437  0.0583 -0.0587  0.1471
  640loPI   C3B10239  17.705   7.146   8.949  0.0896  0.1912  0.0477
  640loPI   C4B10240  17.659   7.197   8.468 -0.0145  0.0147 -0.0561
  641loPI    C110241   7.797   6.720  11.532 -0.0102 -0.1392 -0.1133
  641loPI    C210242   8.031   6.747  11.855 -0.1238  0.2202 -0.0569
  641loPI    C310243   7.924   6.388  11.716  0.1976  0.0569  0.1048
  641loPI   PO410244   7.839   6.891  11.377 -0.2651 -0.0129 -0.0841
  641loPI   GL110245   7.746   6.929  11.026 -0.6705  0.0680  0.0921
  641loPI   GL210246   7.980   7.168  10.858 -0.0239 -0.2018 -0.2538
  641loPI   C1A10247   7.683   6.958  10.591 -0.1666  0.1556  0.0519
  641loPI   C2A10248   7.756   7.047  10.209 -0.1468  0.2059  0.1747
  641loPI   C3A10249   7.795   6.979   9.797 -0.1114 -0.0105  0.1651
  641loPI   C4A10250   7.868   7.082   9.417  0.0376 -0.1380  0.1271
  641loPI   C5A10251   7.785   7.046   9.023 -0.0083 -0.0274  0.0917
  641loPI   C6A10252   7.599   7.316   8.707  0.0891 -0.3354  0.2770
  641loPI   C1B10253   7.706   7.471  10.570 -0.2027  0.2065 -0.0860
  641loPI   C2B10254   7.649   7.526  10.108 -0.0297 -0.2116  0.1135
  641loPI   C3B10255   7.713   7.508   9.685 -0.0412  0.0190  0.3492
  641loPI   C4B10256   7.769   7.562   9.170  0.4397 -0.1159  0.1754
  642loPI    C110257  13.626  16.826  11.224 -0.0877 -0.0789  0.0200
  642loPI    C210258  13.957  16.979  11.389  0.0638 -0.1898 -0.1765
  642loPI    C310259  13.600  17.043  11.559  0.1630  0.0918 -0.0688
  642loPI   PO410260  13.636  16.829  10.927 -0.1220  0.0398 -0.2045
  642loPI   GL110261  13.606  16.701  10.576 -0.0060 -0.0618  0.1170
  642loPI   GL210262  13.415  16.870  10.363 -0.2797  0.1107 -0.0997
  642loPI   C1A10263  13.828  16.754  10.212 -0.0050 -0.0285 -0.0653
  642loPI   C2A10264  13.865  16.619   9.769 -0.4196 -0.3324  0.0057
  642loPI   C3A10265  13.801  16.650   9.347  0.1436  0.0528 -0.0753
  642loPI   C4A10266  13.832  16.721   8.915  0.0397 -0.0770 -0.0272
  642loPI   C5A10267  13.886  16.682   8.461  0.0345 -0.0444 -0.3885
  642loPI   C6A10268  14.128  16.857   8.104  0.1042  0.0696  0.4072
  642loPI   C1B10269  13.318  16.793  10.010 -0.0644  0.1074 -0.1039
  642loPI   C2B10270  13.379  16.763   9.580 -0.3060  0.0074  0.1327
  642loPI   C3B10271  13.294  16.845   9.138  0.1184 -0.1427  0.1757
  642loPI   C4B10272  13.351  16.879   8.689 -0.1327  0.1166 -0.1078
  643loPI    C110273   3.533  17.209  11.013  0.0596  0.1788 -0.0085
  643loPI    C210274   3.926  17.134  10.999  0.0720  0.2268  0.0775
  643loPI    C310275   3.776  17.366  11.289 -0.0232  0.1886  0.0592
  643loPI   PO410276   3.425  17.012  10.879 -0.2829  0.1083  0.1562
  643loPI   GL110277   3.404  16.858  10.428 -0.1413  0.1584  0.0889
  643loPI   GL210278   3.342  17.152  10.238 -0.2012 -0.0749 -0.1405
  643loPI   C1A10279   3.460  16.707   9.917 -0.0023  0.0818 -0.0812
  643loPI   C2A10280   3.428  16.645   9.401 -0.0399  0.2592  0.1316
  643loPI   C3A10281   3.532  16.573   8.904 -0.1591  0.0231 -0.0832
  643loPI   C4A10282   3.390  16.555   8.495 -0.2658 -0.1049 -0.0609
  643loPI   C5A10283   3.460  16.456   8.079  0.0271 -0.0263  0.0077
  643loPI   C6A10284   3.675  16.544   7.722 -0.1213  0.0982  0.0194
  643loPI   C1B10285   3.354  17.190   9.857  0.4616  0.3435 -0.0192
  643loPI   C2B10286   3.451  17.129   9.416  0.1653  0.1274  0.2451
  643loPI   C3B10287   3.464  17.016   9.025 -0.0482 -0.5938  0.1978
  643loPI   C4B10288   3.484  17.051   8.584 -0.1027 -0.0730 -0.1995
  644loPI    C110289  11.884  13.762  11.363 -0.0511  0.0598  0.0214
  644loPI    C210290  11.838  13.393  11.511 -0.1738  0.0992  0.0825
  644loPI    C310291  12.093  13.648  11.685  0.0606 -0.0214 -0.0792
  644loPI   PO410292  11.778  13.835  11.200  0.1101 -0.2896 -0.1305
  644loPI   GL110293  11.652  13.811  10.805 -0.0606 -0.1232  0.0023
  644loPI   GL210294  11.880  13.706  10.637  0.1718  0.1719  0.2331
  644loPI   C1A10295  11.385  13.799  10.497 -0.0359 -0.0089  0.0752
  644loPI   C2A10296  11.226  13.919  10.150 -0.0934 -0.0031 -0.3161
  644loPI   C3A10297  11.224  13.885   9.627  0.1172  0.3737 -0.1999
  644loPI   C4A10298  11.158  13.782   9.205 -0.0695 -0.1043  0.0824
  644loPI   C5A10299  11.100  13.844   8.767  0.1836 -0.0694 -0.3237
  644loPI   C6A10300  10.733  14.010   8.541 -0.0323  0.0738 -0.2648
  644loPI   C1B10301  11.722  13.693  10.156  0.2088 -0.1598 -0.1450
  644loPI   C2B10302  11.682  13.690   9.730  0.1598  0.0928  0.0284
  644loPI   C3B10303  11.659  13.709   9.312 -0.1250  0.1837  0.2815
  644loPI   C4B10304  11.583  13.719   8.892 -0.1867  0.0572 -0.0302
  645loPI    C110305   4.530  14.191  11.311  0.1824  0.2056 -0.4268
  645loPI    C210306   4.280  14.501  11.342 -0.0940 -0.0262 -0.2759
  645loPI    C310307   4.612  14.489  11.564 -0.2505  0.0075 -0.0370
  645loPI   PO410308   4.511  14.068  11.035  0.1871  0.1624 -0.1548
  645loPI   GL110309   4.421  14.153  10.628  0.0690 -0.0937 -0.1713
  645loPI   GL210310   4.286  13.825  10.662  0.1805  0.0335 -0.0770
  645loPI   C1A10311   4.463  13.965  10.224 -0.0422 -0.2470  0.1368
  645loPI   C2A10312   4.404  13.977   9.770  0.0019 -0.0804  0.0586
  645loPI   C3A10313   4.419  13.974   9.332  0.1564  0.1359  0.3144
  645loPI   C4A10314   4.377  14.034   8.852 -0.0030 -0.1402  0.2529
  645loPI   C5A10315   4.121  13.944   8.497  0.3448 -0.1858 -0.0067
  645loPI   C6A10316   3.966  13.780   7.964 -0.2612  0.0031  0.3859
  645loPI   C1B10317   4.048  13.750  10.356 -0.0011  0.4442  0.1932
  645loPI   C2B10318   4.025  13.721   9.882 -0.2170  0.0260  0.5243
  645loPI   C3B10319   3.932  13.656   9.404 -0.0779 -0.0201 -0.0550
  645loPI   C4B10320   3.938  13.692   9.008  0.2224  0.0354  0.2165
  646loPI    C110321  17.658  12.773  11.254  0.2440 -0.1863  0.0314
  646loPI    C210322  17.615  12.505  11.548 -0.1877 -0.2464 -0.0802
  646loPI    C310323  17.445  12.866  11.580  0.0954 -0.1099 -0.0862
  646loPI   PO410324  17.598  12.600  11.004 -0.2382 -0.1649  0.1358
  646loPI   GL110325  17.600  12.484  10.538 -0.4638  0.1690 -0.0660
  646loPI   GL210326  17.653  12.778  10.389  0.1976 -0.1400  0.1396
  646loPI   C1A10327  17.682  12.304  10.148 -0.0387  0.0694 -0.0861
  646loPI   C2A10328  17.737  12.280   9.739  0.0335 -0.0809 -0.1120
  646loPI   C3A10329  17.734  12.324   9.338  0.1411  0.3302 -0.1078
  646loPI   C4A10330  17.716  12.372   8.896 -0.0764  0.0291  0.1841
  646loPI   C5A10331  17.672  12.241   8.552 -0.0100  0.1880  0.1708
  646loPI   C6A10332  17.852  12.307   8.179  0.0897  0.0545  0.0724
  646loPI   C1B10333  17.659  12.901  10.000  0.0924 -0.0034 -0.2305
  646loPI   C2B10334  17.674  12.808   9.535  0.3042  0.0744 -0.0401
  646loPI   C3B10335  17.555  12.785   9.148  0.1837 -0.1547  0.2469
  646loPI   C4B10336  17.572  12.916   8.683 -0.3661 -0.0717 -0.0197
  647loPI    C110337   4.325   8.830  11.184  0.1539 -0.0536 -0.1164
  647loPI    C210338   4.675   8.863  11.377 -0.0580 -0.0365  0.2757
  647loPI    C310339   4.369   8.669  11.548 -0.2437 -0.0500 -0.0622
  647loPI   PO410340   4.358   8.783  10.998  0.0806  0.0315  0.7716
  647loPI   GL110341   4.390   8.562  10.613  0.3021  0.1837 -0.0076
  647loPI   GL210342   4.481   8.819  10.518  0.0003  0.3010  0.1632
  647loPI   C1A10343   4.546   8.388  10.250 -0.0656 -0.0584 -0.1754
  647loPI   C2A10344   4.565   8.398   9.809 -0.1178 -0.2218  0.0066
  647loPI   C3A10345   4.515   8.345   9.359  0.0638  0.1630  0.1114
  647loPI   C4A10346   4.496   8.323   8.902 -0.0469  0.0260  0.2659
  647loPI   C5A10347   4.284   8.329   8.552 -0.2767  0.0473 -0.0828
  647loPI   C6A10348   4.061   8.387   8.151 -0.1795  0.0209 -0.3586
  647loPI   C1B10349   4.482   8.845  10.029  0.3465  0.0258  0.0428
  647loPI   C2B10350   4.443   8.847   9.641  0.0516 -0.0397 -0.1211
  647loPI   C3B10351   4.487   8.874   9.144 -0.0957 -0.1828 -0.0725
  647loPI   C4B10352   4.461   8.810   8.711 -0.1352  0.1885  0.0819
  648loPI    C110353  16.853   1.751  10.867  0.1283  0.0848 -0.1466
  648loPI    C210354  16.613   1.907  11.146 -0.1404  0.0479 -0.3528
  648loPI    C310355  16.905   2.129  10.987  0.0731  0.0413  0.0169
  648loPI   PO410356  16.718   1.665  10.695 -0.0196 -0.1378  0.0847
  648loPI   GL110357  16.723   1.552  10.291 -0.0818  0.1392 -0.0555
  648loPI   GL210358  16.758   1.840  10.239  0.3003  0.0137  0.3261
  648loPI   C1A10359  16.511   1.482   9.945  0.1904 -0.3335 -0.2041
  648loPI   C2A10360  16.572   1.534   9.524 -0.1615 -0.1489 -0.2044
  648loPI   C3A10361  16.540   1.490   9.077 -0.0784 -0.1046  0.2165
  648loPI   C4A10362  16.644   1.643   8.659 -0.0526 -0.0573 -0.0605
  648loPI   C5A10363  16.658   1.732   8.153 -0.0187 -0.0692  0.1338
  648loPI   C6A10364  16.387   1.858   7.884 -0.1042 -0.1619 -0.0492
  648loPI   C1B10365  16.882   1.826   9.810 -0.0804  0.2144  0.2007
  648loPI   C2B10366  16.974   1.868   9.407  0.2541 -0.0066 -0.0037
  648loPI   C3B10367  16.908   1.870   9.006  0.0110 -0.2753  0.1604
  648loPI   C4B10368  17.089   1.917   8.655 -0.0147 -0.1526  0.2012
  649loPI    C110369   5.107   6.899  11.033 -0.2720  0.3921  0.0949
  649loPI    C210370   5.272   6.985  11.387  0.1325 -0.1630  0.0530
  649loPI    C310371   4.947   6.753  11.369  0.0975 -0.1146  0.0621
  649loPI   PO410372   5.028   7.106  10.925 -0.1906 -0.0000  0.0347
  649loPI   GL110373   4.973   7.201  10.486 -0.1282  0.2167  0.1949
  649loPI   GL210374   4.658   7.322  10.402 -0.3293 -0.1623 -0.1834
  649loPI   C1A10375   5.088   7.145  10.057  0.1792  0.1329  0.1140
  649loPI   C2A10376   5.231   7.201   9.584 -0.2139 -0.0558 -0.0050
  649loPI   C3A10377   5.182   7.187   9.194  0.0557 -0.1341 -0.2241
  649loPI   C4A10378   5.156   7.171   8.791  0.1015 -0.1513 -0.0404
  649loPI   C5A10379   4.770   6.898   8.604 -0.1648  0.2639 -0.2504
  649loPI   C6A10380   4.399   6.754   8.484  0.1674 -0.1178  0.1636
  649loPI   C1B10381   4.618   7.380   9.907 -0.1354 -0.0184  0.1805
  649loPI   C2B10382   4.702   7.346   9.438 -0.2358  0.1143  0.0447
  649loPI   C3B10383   4.717   7.370   9.021  0.0375 -0.1301  0.4134
  649loPI   C4B10384   4.533   7.497   8.665 -0.1058 -0.3370 -0.1196
  650loPI    C110385   5.731  11.666  11.436  0.2012  0.0009 -0.1477
  650loPI    C210386   6.080  11.495  11.344  0.3323  0.1889 -0.0067
  650loPI    C310387   5.852  11.339  11.633  0.2479  0.0045 -0.1703
  650loPI   PO410388   5.639  11.756  11.153 -0.0389 -0.0667 -0.1507
  650loPI   GL110389   5.655  11.738  10.722 -0.0527  0.2090 -0.1595
  650loPI   GL210390   5.434  11.826  10.628  0.0243  0.1770 -0.0711
  650loPI   C1A10391   5.798  11.756  10.327 -0.2549  0.1068 -0.1422
  650loPI   C2A10392   5.709  11.674   9.955 -0.1183 -0.1901 -0.0558
  650loPI   C3A10393   5.697  11.722   9.497  0.2422  0.4137  0.1658
  650loPI   C4A10394   5.692  11.637   9.113  0.1732 -0.2196  0.0232
  650loPI   C5A10395   5.692  11.578   8.682  0.1607  0.4671 -0.4894
  650loPI   C6A10396   5.954  11.594   8.349  0.0119  0.0479 -0.0822
  650loPI   C1B10397   5.332  11.924  10.185  0.2051  0.1163  0.2095
  650loPI   C2B10398   5.251  11.771   9.805  0.2319 -0.1525 -0.0800
  650loPI   C3B10399   5.229  11.829   9.294 -0.0353  0.0816  0.1383
  650loPI   C4B10400   5.243  11.799   8.780  0.0034  0.0055  0.1925
  651loPI    C110401  15.162   8.676  10.883  0.1671 -0.0172  0.0703
  651loPI    C210402  15.104   8.858  11.235 -0.0489  0.0676 -0.0074
  651loPI    C310403  15.471   8.742  11.128  0.0378  0.1555  0.1902
  651loPI   PO410404  14.929   8.730  10.770  0.1756 -0.0151 -0.1252
  651loPI   GL110405  14.861   8.747  10.377  0.0757 -0.2307 -0.0567
  651loPI   GL210406  14.928   8.278  10.305  0.0611 -0.1223  0.3047
  651loPI   C1A10407  14.869   8.731   9.981  0.2127  0.1811 -0.0442
  651loPI   C2A10408  14.722   8.680   9.526  0.1190  0.3981 -0.1115
  651loPI   C3A10409  14.736   8.781   9.108 -0.4975 -0.0623 -0.3123
  651loPI   C4A10410  14.718   8.729   8.687  0.0175 -0.2737  0.1687
  651loPI   C5A10411  14.690   8.622   8.308 -0.0318 -0.0159  0.0147
  651loPI   C6A10412  15.021   8.456   7.950  0.1065 -0.2284  0.1706
  651loPI   C1B10413  14.837   8.243   9.924 -0.1194  0.3880  0.0904
  651loPI   C2B10414  14.775   8.207   9.508  0.0564  0.3147 -0.1767
  651loPI   C3B10415  14.885   8.211   9.058  0.1498  0.2658  0.0418
  651loPI   C4B10416  14.707   8.214   8.669 -0.2451  0.1193  0.0729
  652loPI    C110417   3.610  13.409  11.228  0.2316 -0.0754 -0.2027
  652loPI    C210418   3.657  13.201  11.566 -0.0282  0.1917  0.0024
  652loPI    C310419   3.869  13.535  11.506 -0.0965  0.2298 -0.0276
  652loPI   PO410420   3.472  13.216  11.050 -0.1751  0.1221 -0.2931
  652loPI   GL110421   3.267  13.293  10.685  0.1095  0.1469 -0.0904
  652loPI   GL210422   3.307  13.026  10.550  0.1556  0.3048 -0.0990
  652loPI   C1A10423   3.187  13.579  10.402 -0.2088 -0.0614 -0.2321
  652loPI   C2A10424   3.078  13.555   9.945  0.1498 -0.1850 -0.2500
  652loPI   C3A10425   3.096  13.527   9.527  0.3202  0.0882  0.0660
  652loPI   C4A10426   3.052  13.452   9.099  0.1368  0.1428 -0.0709
  652loPI   C5A10427   3.079  13.458   8.647 -0.1684  0.3228  0.3786
  652loPI   C6A10428   2.993  13.522   8.221  0.1194 -0.3616 -0.1354
  652loPI   C1B10429   3.249  13.139  10.141  0.1763  0.2598 -0.3691
  652loPI   C2B10430   3.182  13.093   9.721 -0.1757  0.1613  0.0919
  652loPI   C3B10431   3.149  12.989   9.284 -0.2893 -0.2403  0.3206
  652loPI   C4B10432   3.135  12.992   8.830 -0.3653 -0.0206  0.3719
  653loPI    C110433   6.976  16.961  10.684 -0.0583  0.0238  0.1263
  653loPI    C210434   7.265  17.234  10.723  0.0864 -0.0833 -0.1613
  653loPI    C310435   7.156  17.012  11.037  0.1512  0.1199  0.0076
  653loPI   PO410436   7.051  16.755  10.425  0.1117 -0.3183 -0.0518
  653loPI   GL110437   6.906  16.506  10.139 -0.3417 -0.2968  0.2586
  653loPI   GL210438   6.612  16.339  10.135  0.0291  0.1034  0.1663
  653loPI   C1A10439   6.826  16.617   9.683  0.0697 -0.1955  0.0973
  653loPI   C2A10440   6.814  16.557   9.259 -0.0990 -0.1041  0.0066
  653loPI   C3A10441   6.753  16.499   8.828  0.0522 -0.1720  0.2603
  653loPI   C4A10442   6.573  16.489   8.395 -0.0058  0.0612 -0.2484
  653loPI   C5A10443   6.516  16.290   8.056  0.1509 -0.0872  0.4038
  653loPI   C6A10444   6.201  16.141   7.837  0.0117  0.0006 -0.1331
  653loPI   C1B10445   6.335  16.284   9.656  0.2312 -0.2121  0.2082
  653loPI   C2B10446   6.406  16.232   9.245  0.0792  0.1341  0.4786
  653loPI   C3B10447   6.309  16.239   8.825  0.0605 -0.1418  0.0067
  653loPI   C4B10448   6.203  16.115   8.419  0.2814  0.3464 -0.0858
  654loPI    C110449  11.555   9.490  11.011 -0.0779  0.1486 -0.1709
  654loPI    C210450  11.602   9.816  11.238 -0.0622  0.0487 -0.0290
  654loPI    C310451  11.306   9.559  11.317 -0.1031  0.0522 -0.1691
  654loPI   PO410452  11.476   9.488  10.855 -0.1547 -0.3431  0.0991
  654loPI   GL110453  11.517   9.485  10.473 -0.1528  0.0088 -0.0892
  654loPI   GL210454  11.830   9.566  10.420  0.1189  0.0332  0.1332
  654loPI   C1A10455  11.518   9.401  10.003  0.1934 -0.3608  0.3674
  654loPI   C2A10456  11.510   9.508   9.568  0.2840  0.0263 -0.1176
  654loPI   C3A10457  11.429   9.516   9.192  0.1954 -0.4093  0.0155
  654loPI   C4A10458  11.434   9.509   8.701 -0.1147 -0.0525 -0.3671
  654loPI   C5A10459  11.571   9.553   8.257  0.1364 -0.1815 -0.1059
  654loPI   C6A10460  11.971   9.657   8.074  0.1889  0.0299 -0.0450
  654loPI   C1B10461  11.906   9.712  10.008 -0.4195  0.2165  0.0325
  654loPI   C2B10462  11.823   9.840   9.493 -0.0253 -0.3868  0.0134
  654loPI   C3B10463  11.840   9.844   9.040  0.0298 -0.0782 -0.0300
  654loPI   C4B10464  11.830   9.763   8.589  0.0701  0.1734 -0.2258
  655loPI    C110465   1.136   6.972  11.165 -0.1706  0.1211  0.0274
  655loPI    C210466   1.504   7.022  11.313 -0.1499  0.1731 -0.0411
  655loPI    C310467   1.192   7.198  11.491 -0.1426  0.1233  0.0211
  655loPI   PO410468   1.141   6.950  10.943 -0.1171 -0.1307  0.1083
  655loPI   GL110469   1.173   6.995  10.443  0.2424  0.1010 -0.1860
  655loPI   GL210470   0.991   6.734  10.410  0.1692  0.0612  0.1263
  655loPI   C1A10471   1.170   7.113  10.063 -0.0941 -0.2255 -0.1885
  655loPI   C2A10472   1.132   7.112   9.618 -0.0813 -0.0582 -0.2927
  655loPI   C3A10473   1.116   7.105   9.167  0.1446 -0.2879 -0.3168
  655loPI   C4A10474   1.157   7.129   8.671  0.1482 -0.2662  0.1786
  655loPI   C5A10475   1.196   7.174   8.130  0.2609  0.0655  0.0645
  655loPI   C6A10476   1.576   7.318   7.970  0.1779  0.0422  0.0261
  655loPI   C1B10477   1.110   6.646   9.919 -0.3978  0.1955  0.2497
  655loPI   C2B10478   1.147   6.646   9.472  0.3029  0.1047  0.0138
  655loPI   C3B10479   1.207   6.595   9.059  0.1253 -0.1532  0.4612
  655loPI   C4B10480   1.256   6.617   8.620  0.0425  0.0092 -0.0383
  656loPI    C110481   3.905   8.440  11.513 -0.0983  0.0961 -0.2345
  656loPI    C210482   3.641   8.564  11.786 -0.0197 -0.0854 -0.0733
  656loPI    C310483   3.761   8.182  11.783  0.0806 -0.0535 -0.2794
  656loPI   PO410484   3.907   8.556  11.200 -0.0058 -0.2415  0.0128
  656loPI   GL110485   3.885   8.583  10.750  0.1041 -0.1532 -0.1244
  656loPI   GL210486   3.928   8.353  10.701 -0.0158 -0.1899  0.1243
  656loPI   C1A10487   4.024   8.685  10.342  0.1272  0.0962  0.1412
  656loPI   C2A10488   4.072   8.597   9.788 -0.1418 -0.1422  0.2867
  656loPI   C3A10489   4.094   8.560   9.324  0.3116  0.0521  0.1841
  656loPI   C4A10490   4.008   8.509   8.978  0.1421  0.0804  0.2049
  656loPI   C5A10491   3.793   8.264   8.626 -0.0373 -0.2079  0.0208
  656loPI   C6A10492   3.635   8.052   8.168  0.0663 -0.1758  0.1724
  656loPI   C1B10493   4.121   8.201  10.427  0.1471 -0.0477  0.0221
  656loPI   C2B10494   4.064   8.125  10.022 -0.1077 -0.1975 -0.3400
  656loPI   C3B10495   4.004   8.134   9.646 -0.1656  0.1374 -0.1270
  656loPI   C4B10496   4.093   8.050   9.288 -0.0551  0.1248 -0.1981
  657loPI    C110497  16.590  13.805  11.212 -0.3499  0.0649  0.0356
  657loPI    C210498  16.622  14.071  11.510  0.0363  0.0096  0.0480
  657loPI    C310499  16.586  13.681  11.592  0.2297 -0.0143  0.0248
  657loPI   PO410500  16.637  13.948  11.017  0.0416  0.2729  0.2052
  657loPI   GL110501  16.341  13.953  10.637 -0.2843  0.2012 -0.2293
  657loPI   GL210502  16.149  13.986  10.362  0.2262  0.0668 -0.1910
  657loPI   C1A10503  16.502  14.320  10.292  0.1808 -0.2084  0.0175
  657loPI   C2A10504  16.469  14.306   9.885 -0.1167  0.2110 -0.3401
  657loPI   C3A10505  16.504  14.316   9.480 -0.0290 -0.0939  0.2266
  657loPI   C4A10506  16.491  14.286   9.012  0.0314 -0.2679  0.2021
  657loPI   C5A10507  16.387  14.118   8.643  0.1783 -0.0176 -0.0699
  657loPI   C6A10508  16.446  14.108   8.253  0.1884  0.0488  0.0040
  657loPI   C1B10509  16.079  13.900   9.931  0.2134 -0.0892 -0.0557
  657loPI   C2B10510  16.090  13.859   9.399  0.0793 -0.0457  0.1358
  657loPI   C3B10511  16.085  13.919   8.972 -0.0375  0.2391  0.1128
  657loPI   C4B10512  16.018  13.839   8.532 -0.0556  0.0875 -0.1758
  658loPI    C110513  17.682  15.681  11.178 -0.0863 -0.0126  0.0940
  658loPI    C210514  17.979  15.459  11.328 -0.0628  0.0967  0.2105
  658loPI    C310515  17.831  15.764  11.540  0.3064  0.5671 -0.1858
  658loPI   PO410516  17.660  15.548  10.985  0.2071  0.0217 -0.0172
  658loPI   GL110517  17.711  15.248  10.678  0.2003 -0.1106 -0.0838
  658loPI   GL210518  17.833  15.030  10.587  0.2302 -0.2316 -0.0143
  658loPI   C1A10519  17.740  15.322  10.149 -0.1167  0.0532 -0.0069
  658loPI   C2A10520  17.678  15.374   9.702 -0.0874 -0.0996 -0.2847
  658loPI   C3A10521  17.663  15.221   9.348 -0.1769 -0.2750 -0.0225
  658loPI   C4A10522  17.579  15.190   8.940 -0.1633 -0.3991 -0.2517
  658loPI   C5A10523  17.634  15.208   8.566 -0.1420 -0.1016  0.1835
  658loPI   C6A10524  17.919  15.164   8.243 -0.1370  0.3216 -0.0989
  658loPI   C1B10525  17.781  14.825  10.168  0.0733 -0.2989 -0.0919
  658loPI   C2B10526  17.822  14.761   9.786  0.2990 -0.1542 -0.1411
  658loPI   C3B10527  17.740  14.733   9.352 -0.1464  0.1219  0.0297
  658loPI   C4B10528  17.745  14.748   8.883 -0.1000  0.4717 -0.0578
  659loPI    C110529   1.288   9.910  10.924 -0.1158  0.0791 -0.1130
  659loPI    C210530   1.064  10.226  11.023  0.0100  0.0147  0.4050
  659loPI    C310531   0.916   9.857  11.062 -0.1124 -0.0015 -0.1348
  659loPI   PO410532   1.353  10.022  10.650 -0.0059  0.1457 -0.1489
  659loPI   GL110533   1.485  10.061  10.274  0.1652  0.0341 -0.0495
  659loPI   GL210534   1.475  10.288  10.019 -0.0059 -0.4865 -0.1644
  659loPI   C1A10535   1.518   9.826   9.857  0.2863 -0.2225 -0.0148
  659loPI   C2A10536   1.531   9.785   9.465  0.0448 -0.0043  0.1343
  659loPI   C3A10537   1.564   9.796   8.997  0.0152 -0.0980  0.1967
  659loPI   C4A10538   1.512   9.777   8.540 -0.2260 -0.0684  0.2677
  659loPI   C5A10539   1.353   9.759   8.093 -0.1272  0.0447  0.2987
  659loPI   C6A10540   1.323   9.974   7.739 -0.1503  0.1589  0.0255
  659loPI   C1B10541   1.424  10.272   9.572  0.2729 -0.0325 -0.1375
  659loPI   C2B10542   1.458  10.297   9.149  0.0851  0.2451 -0.0118
  659loPI   C3B10543   1.470  10.315   8.671  0.1155  0.0096  0.1910
  659loPI   C4B10544   1.435  10.305   8.156 -0.2769 -0.0648  0.0875
  660loPI    C110545  12.185   6.847  10.974 -0.2533 -0.0493 -0.0641
  660loPI    C210546  12.207   6.631  11.310  0.0230 -0.0014 -0.0491
  660loPI    C310547  12.121   7.021  11.328  0.0950  0.0138 -0.0282
  660loPI   PO410548  11.967   6.747  10.824 -0.1779 -0.0119 -0.1668
  660loPI   GL110549  11.969   6.536  10.478 -0.0313 -0.0962  0.2351
  660loPI   GL210550  11.724   6.774  10.397 -0.2632  0.0987  0.1186
  660loPI   C1A10551  11.957   6.332  10.100 -0.1131 -0.1001 -0.0116
  660loPI   C2A10552  11.957   6.366   9.632 -0.0231 -0.2329  0.0749
  660loPI   C3A10553  12.002   6.466   9.300 -0.1455  0.1789 -0.2476
  660loPI   C4A10554  11.908   6.478   8.909  0.0003 -0.0813  0.1382
  660loPI   C5A10555  11.796   6.512   8.508  0.1428 -0.0106 -0.0386
  660loPI   C6A10556  11.345   6.620   8.380  0.0648 -0.1285  0.0697
  660loPI   C1B10557  11.520   6.598   9.999 -0.1345  0.4068  0.0015
  660loPI   C2B10558  11.425   6.511   9.675  0.3966 -0.0859  0.3661
  660loPI   C3B10559  11.464   6.615   9.310 -0.0268  0.1436 -0.1820
  660loPI   C4B10560  11.448   6.600   8.856  0.3861  0.0700  0.1867
  661loPI    C110561   5.167  12.126  11.156  0.0152 -0.2608  0.0425
  661loPI    C210562   5.480  12.175  10.913 -0.0808 -0.0647 -0.0441
  661loPI    C310563   5.443  12.403  11.240 -0.2000  0.0042 -0.1051
  661loPI   PO410564   4.966  12.165  10.955  0.0427 -0.0784 -0.0798
  661loPI   GL110565   5.004  12.087  10.698  0.1650  0.3142  0.3876
  661loPI   GL210566   5.257  12.377  10.513  0.2631  0.2820  0.2352
  661loPI   C1A10567   4.859  12.056  10.274  0.4636 -0.0733 -0.2323
  661loPI   C2A10568   4.864  12.089   9.896  0.0844  0.1071 -0.0066
  661loPI   C3A10569   4.822  12.003   9.519  0.0575 -0.3143  0.2619
  661loPI   C4A10570   4.787  12.077   9.094 -0.0252 -0.1013  0.0762
  661loPI   C5A10571   4.670  11.968   8.632  0.1087  0.0711  0.0574
  661loPI   C6A10572   4.618  12.272   8.218 -0.2508 -0.2942  0.1025
  661loPI   C1B10573   5.207  12.368  10.095 -0.0959 -0.1608 -0.1930
  661loPI   C2B10574   5.178  12.358   9.633  0.1693  0.3939 -0.0665
  661loPI   C3B10575   5.109  12.394   9.265 -0.1039  0.0164 -0.0020
  661loPI   C4B10576   5.146  12.315   8.772 -0.1217 -0.3436  0.0278
  662loPI    C110577  17.376   1.578  10.836  0.0228  0.1273 -0.1506
  662loPI    C210578  17.393   1.972  10.906 -0.1696  0.1000  0.0591
  662loPI    C310579  17.230   1.727  11.177 -0.0149 -0.1299 -0.0526
  662loPI   PO410580  17.222   1.529  10.597  0.1072 -0.0202  0.4253
  662loPI   GL110581  17.225   1.431  10.153  0.2603  0.0169  0.0791
  662loPI   GL210582  17.290   1.836  10.075  0.2305 -0.1925 -0.6005
  662loPI   C1A10583  17.000   1.373   9.681  0.1359  0.0390  0.1650
  662loPI   C2A10584  17.076   1.389   9.216 -0.0792 -0.1070 -0.1456
  662loPI   C3A10585  17.040   1.375   8.786 -0.0072 -0.0562 -0.0868
  662loPI   C4A10586  17.044   1.457   8.377 -0.0244  0.4586 -0.1385
  662loPI   C5A10587  17.291   1.615   7.922  0.0750  0.1176 -0.0437
  662loPI   C6A10588  17.671   1.796   7.872 -0.1338 -0.1379 -0.3455
  662loPI   C1B10589  17.404   1.664   9.654  0.2334 -0.1321 -0.1793
  662loPI   C2B10590  17.518   1.704   9.281 -0.0682 -0.1563  0.0126
  662loPI   C3B10591  17.478   1.631   8.924  0.1434 -0.0305  0.0959
  662loPI   C4B10592  17.441   1.730   8.391 -0.0256 -0.2250  0.2184
  663loPI    C110593  13.849  12.131  11.286  0.3442  0.1607 -0.0467
  663loPI    C210594  14.215  12.165  11.443  0.1527 -0.0088  0.4551
  663loPI    C310595  13.994  11.840  11.519 -0.0670  0.0459  0.0734
  663loPI   PO410596  13.849  12.129  11.019  0.6984  0.1526 -0.0009
  663loPI   GL110597  13.596  11.943  10.662  0.0077  0.0520 -0.1842
  663loPI   GL210598  14.066  12.033  10.558 -0.0911 -0.3094 -0.1286
  663loPI   C1A10599  13.738  11.905  10.220  0.2567  0.0798  0.0265
  663loPI   C2A10600  13.829  11.937   9.744  0.1501  0.1083  0.4382
  663loPI   C3A10601  13.771  12.037   9.266 -0.1736  0.0119  0.3435
  663loPI   C4A10602  13.788  11.967   8.869  0.1372  0.2135 -0.0058
  663loPI   C5A10603  13.992  12.134   8.523  0.2140  0.0218 -0.0163
  663loPI   C6A10604  13.975  12.560   8.284 -0.0231  0.0247  0.2375
  663loPI   C1B10605  14.168  12.271  10.262  0.2523  0.2838  0.2009
  663loPI   C2B10606  14.273  12.356   9.864  0.0472  0.0708  0.1322
  663loPI   C3B10607  14.309  12.356   9.542 -0.0772 -0.1859  0.1582
  663loPI   C4B10608  14.179  12.243   9.074  0.2206 -0.0270 -0.0039
  664loPI    C110609   6.503  10.421  11.391 -0.0562  0.2384  0.0162
  664loPI    C210610   6.400  10.566  11.749  0.1165  0.2649  0.0560
  664loPI    C310611   6.782  10.579  11.630  0.0514  0.3060 -0.1520
  664loPI   PO410612   6.310  10.503  11.246  0.1900  0.2431 -0.0661
  664loPI   GL110613   6.448  10.337  10.773  0.0747 -0.3320 -0.0405
  664loPI   GL210614   6.237  10.472  10.555  0.1642 -0.2178  0.0262
  664loPI   C1A10615   6.485  10.009  10.463  0.0274 -0.0079 -0.0340
  664loPI   C2A10616   6.542   9.995  10.010 -0.1026 -0.2349 -0.0602
  664loPI   C3A10617   6.503   9.941   9.631  0.1632  0.1428 -0.0696
  664loPI   C4A10618   6.469   9.967   9.103 -0.2862 -0.0263 -0.3418
  664loPI   C5A10619   6.436  10.103   8.648 -0.3160  0.0235  0.0953
  664loPI   C6A10620   6.082  10.361   8.501  0.1885 -0.2918 -0.0545
  664loPI   C1B10621   6.407  10.448  10.210 -0.1512  0.0280 -0.0481
  664loPI   C2B10622   6.412  10.468   9.743  0.0315  0.2051  0.1620
  664loPI   C3B10623   6.432  10.403   9.367 -0.0861 -0.0249 -0.0079
  664loPI   C4B10624   6.348  10.565   8.961  0.1839  0.0954 -0.1159
  665loPI    C110625  10.702  12.850  11.033  0.0261  0.1852  0.0063
  665loPI    C210626  11.077  12.963  11.114  0.0569  0.1135 -0.0366
  665loPI    C310627  10.802  12.963  11.404  0.1544 -0.0909  0.0579
  665loPI   PO410628  10.784  12.669  10.800 -0.1297  0.2978 -0.0639
  665loPI   GL110629  10.681  12.676  10.401 -0.3747 -0.0967  0.2407
  665loPI   GL210630  10.864  12.373  10.424  0.1237 -0.0129  0.1133
  665loPI   C1A10631  10.529  12.656  10.069  0.1517 -0.1772  0.0757
  665loPI   C2A10632  10.468  12.685   9.674 -0.0266 -0.1568 -0.0708
  665loPI   C3A10633  10.435  12.733   9.169  0.0087  0.2130  0.0514
  665loPI   C4A10634  10.558  12.708   8.671 -0.3207  0.0865 -0.0068
  665loPI   C5A10635  10.794  12.938   8.413  0.1535  0.1507 -0.1757
  665loPI   C6A10636  11.149  12.990   8.456  0.0290  0.1445 -0.0504
  665loPI   C1B10637  10.930  12.405   9.934  0.0599  0.1536 -0.1823
  665loPI   C2B10638  10.957  12.490   9.524  0.0309  0.0507  0.1253
  665loPI   C3B10639  10.968  12.567   9.086  0.2361  0.3011  0.3460
  665loPI   C4B10640  11.026  12.554   8.680  0.0850 -0.0153  0.0315
  666loPI    C110641   5.967  15.671  10.476  0.2317  0.3488 -0.1540
  666loPI    C210642   5.693  15.959  10.521 -0.0525  0.0710 -0.0726
  666loPI    C310643   5.912  15.840  10.834  0.0795  0.2098 -0.1109
  666loPI   PO410644   5.757  15.453  10.382 -0.2194  0.1819  0.0434
  666loPI   GL110645   5.716  15.550   9.952 -0.2862  0.0274 -0.3058
  666loPI   GL210646   5.374  15.417   9.966 -0.0312 -0.3159 -0.1005
  666loPI   C1A10647   5.580  15.606   9.522  0.1857  0.0862 -0.0758
  666loPI   C2A10648   5.455  15.522   9.085  0.3326 -0.0261  0.0964
  666loPI   C3A10649   5.442  15.598   8.701  0.2505 -0.1683 -0.1215
  666loPI   C4A10650   5.445  15.421   8.255  0.0999  0.1467  0.0217
  666loPI   C5A10651   5.571  15.207   7.909 -0.3482 -0.2419  0.0680
  666loPI   C6A10652   5.542  15.229   7.503  0.1563  0.1383  0.1830
  666loPI   C1B10653   5.282  15.202   9.649 -0.2734  0.1505  0.0969
  666loPI   C2B10654   5.062  15.202   9.322 -0.1203 -0.3398  0.2519
  666loPI   C3B10655   5.071  15.289   8.880  0.1575 -0.2619 -0.0449
  666loPI   C4B10656   5.002  15.280   8.500 -0.0713 -0.0800  0.0614
  667loPI    C110657  10.118   4.948  10.742 -0.2424 -0.1476  0.0649
  667loPI    C210658  10.075   4.788  11.106 -0.0243 -0.0767  0.1236
  667loPI    C310659  10.138   5.181  11.067 -0.3053 -0.0420 -0.0066
  667loPI   PO410660  10.251   4.757  10.637  0.1308  0.1347  0.0929
  667loPI   GL110661  10.441   4.796  10.292 -0.1734  0.0879 -0.2171
  667loPI   GL210662  10.700   4.822  10.155  0.2704 -0.3168  0.0175
  667loPI   C1A10663  10.416   4.618   9.846 -0.1098 -0.3094  0.0351
  667loPI   C2A10664  10.383   4.574   9.315  0.1719 -0.0401  0.0773
  667loPI   C3A10665  10.379   4.629   8.882 -0.3759  0.2800  0.0951
  667loPI   C4A10666  10.471   4.770   8.436 -0.3461 -0.1616  0.1524
  667loPI   C5A10667  10.559   4.650   8.016 -0.2716 -0.1632  0.1452
  667loPI   C6A10668  10.730   4.376   7.669 -0.0666 -0.0393  0.0446
  667loPI   C1B10669  10.850   4.923   9.832 -0.2466 -0.1840  0.1905
  667loPI   C2B10670  10.869   4.824   9.462  0.3007  0.1400  0.2672
  667loPI   C3B10671  10.796   4.927   9.104 -0.0092  0.0689  0.0246
  667loPI   C4B10672  10.765   5.004   8.724  0.0527  0.0284 -0.0144
  668loPI    C110673   4.967   5.322  11.257 -0.0319  0.0926  0.0465
  668loPI    C210674   4.646   5.250  11.485 -0.1879  0.3704 -0.0795
  668loPI    C310675   5.013   5.225  11.642 -0.2682  0.0577  0.0673
  668loPI   PO410676   4.962   5.257  11.090 -0.1061  0.0184  0.2637
  668loPI   GL110677   4.750   5.292  10.649 -0.0522  0.0013 -0.0187
  668loPI   GL210678   5.138   5.197  10.617  0.0632  0.1990  0.3784
  668loPI   C1A10679   4.824   5.321  10.175 -0.1791 -0.1839 -0.0411
  668loPI   C2A10680   4.835   5.414   9.741  0.1899 -0.2871  0.0731
  668loPI   C3A10681   4.866   5.307   9.371 -0.2279 -0.1442  0.3849
  668loPI   C4A10682   4.889   5.337   8.980 -0.0593  0.1683 -0.0373
  668loPI   C5A10683   4.927   5.418   8.620 -0.1981 -0.0008 -0.1497
  668loPI   C6A10684   4.602   5.727   8.374  0.0262  0.0712  0.0085
  668loPI   C1B10685   5.342   5.200  10.231  0.1449  0.0504 -0.0513
  668loPI   C2B10686   5.333   5.156   9.746 -0.2488 -0.2543  0.1308
  668loPI   C3B10687   5.358   5.238   9.243 -0.0446  0.1171  0.1196
  668loPI   C4B10688   5.379   5.201   8.800 -0.2444  0.0562 -0.0518
  669loPI    C110689  13.347  15.941  11.188 -0.0548  0.1396  0.1468
  669loPI    C210690  13.480  16.278  11.359  0.3337  0.1945 -0.2454
  669loPI    C310691  13.731  15.972  11.297  0.0482 -0.0658 -0.1459
  669loPI   PO410692  13.257  15.972  10.945 -0.3212 -0.0941  0.0315
  669loPI   GL110693  13.136  16.061  10.583  0.2552 -0.0789  0.1519
  669loPI   GL210694  13.369  16.278  10.438  0.4595  0.1307  0.1884
  669loPI   C1A10695  13.154  16.006  10.132  0.1821  0.2855  0.0802
  669loPI   C2A10696  13.065  15.905   9.685 -0.1425 -0.0411 -0.1698
  669loPI   C3A10697  13.135  15.943   9.268  0.3655  0.0735 -0.2450
  669loPI   C4A10698  12.994  16.022   8.882 -0.1194 -0.1164 -0.2440
  669loPI   C5A10699  13.110  16.227   8.511  0.0644 -0.5141  0.0684
  669loPI   C6A10700  13.380  16.477   8.295 -0.1036 -0.1630 -0.3100
  669loPI   C1B10701  13.514  16.334  10.061  0.0039  0.1309  0.2274
  669loPI   C2B10702  13.420  16.283   9.612 -0.1153 -0.3636  0.1015
  669loPI   C3B10703  13.444  16.327   9.126 -0.0515 -0.1775 -0.2512
  669loPI   C4B10704  13.546  16.307   8.803  0.1055 -0.1081 -0.0910
  670loPI    C110705   7.650  15.210  11.030  0.1750  0.0892  0.2018
  670loPI    C210706   7.879  15.482  11.212  0.2288  0.1357  0.0658
  670loPI    C310707   7.685  15.207  11.428  0.3811  0.1204  0.1848
  670loPI   PO410708   7.452  15.488  10.770 -0.0057  0.2254 -0.2264
  670loPI   GL110709   7.422  15.476  10.335 -0.1416 -0.1938  0.0023
  670loPI   GL210710   7.527  15.906  10.382 -0.2374  0.1671  0.2550
  670loPI   C1A10711   7.411  15.398   9.864 -0.2989  0.1312 -0.0011
  670loPI   C2A10712   7.485  15.316   9.417 -0.0023 -0.2232 -0.1884
  670loPI   C3A10713   7.437  15.438   9.004  0.0732 -0.0644  0.0143
  670loPI   C4A10714   7.399  15.274   8.560  0.1696  0.1115 -0.1609
  670loPI   C5A10715   7.578  15.427   8.255 -0.0346 -0.0181 -0.0611
  670loPI   C6A10716   7.471  15.878   8.158 -0.1258  0.2632  0.0984
  670loPI   C1B10717   7.329  15.890   9.974  0.0906  0.1504 -0.0924
  670loPI   C2B10718   7.395  15.838   9.499 -0.1705 -0.2625 -0.0555
  670loPI   C3B10719   7.442  15.925   9.051 -0.2522 -0.2426 -0.0810
  670loPI   C4B10720   7.195  15.737   8.642 -0.3001 -0.1896 -0.0225
  671loPI    C110721  15.482   9.229  11.031  0.1868  0.1323 -0.1279
  671loPI    C210722  15.406   9.525  11.289 -0.0586  0.0600 -0.1150
  671loPI    C310723  15.579   9.188  11.417  0.0213  0.1113 -0.0878
  671loPI   PO410724  15.667   9.338  10.846  0.0189  0.2193 -0.1817
  671loPI   GL110725  15.823   9.220  10.492 -0.2602  0.1532  0.0980
  671loPI   GL210726  16.134   9.026  10.466  0.0747  0.0864 -0.0818
  671loPI   C1A10727  15.572   9.402  10.125  0.4196  0.0589  0.1982
  671loPI   C2A10728  15.525   9.408   9.675  0.2910 -0.0253  0.4595
  671loPI   C3A10729  15.483   9.343   9.267  0.1617 -0.1712  0.0453
  671loPI   C4A10730  15.492   9.344   8.843  0.1762  0.0382 -0.1257
  671loPI   C5A10731  15.437   9.354   8.378 -0.0350  0.1907 -0.1558
  671loPI   C6A10732  15.198   9.015   8.219 -0.2827  0.3497  0.0981
  671loPI   C1B10733  16.037   9.154  10.046  0.1393  0.0329 -0.1264
  671loPI   C2B10734  15.972   9.155   9.601 -0.1113 -0.2026  0.0738
  671loPI   C3B10735  15.978   9.161   9.183  0.1795  0.1309 -0.1467
  671loPI   C4B10736  15.960   9.220   8.733  0.3015  0.0586  0.1866
  672loPI    C110737  12.045  12.852  10.996  0.0929 -0.0594  0.1337
  672loPI    C210738  11.667  12.979  10.966  0.0952 -0.0731  0.0433
  672loPI    C310739  11.832  12.925  11.327 -0.0413 -0.2222  0.0845
  672loPI   PO410740  12.104  12.875  10.762  0.3847 -0.1214 -0.1952
  672loPI   GL110741  12.403  12.877  10.425 -0.0633  0.2083 -0.1911
  672loPI   GL210742  12.570  13.132  10.399  0.1830  0.0841  0.0891
  672loPI   C1A10743  12.197  12.906  10.009 -0.0926  0.0558  0.3625
  672loPI   C2A10744  12.217  12.936   9.568 -0.0264 -0.1368 -0.1127
  672loPI   C3A10745  12.218  13.010   9.162  0.2136 -0.1007  0.3360
  672loPI   C4A10746  12.179  13.025   8.687  0.0223  0.0276 -0.4299
  672loPI   C5A10747  12.423  13.273   8.376  0.2105  0.1851 -0.0519
  672loPI   C6A10748  12.723  13.624   8.284 -0.2490  0.0243 -0.2428
  672loPI   C1B10749  12.682  13.315  10.126 -0.2654  0.0070  0.0485
  672loPI   C2B10750  12.744  13.263   9.817  0.3168 -0.0318  0.1158
  672loPI   C3B10751  12.626  13.328   9.413 -0.1444  0.0290 -0.1630
  672loPI   C4B10752  12.547  13.298   8.933 -0.2241 -0.3000 -0.0629
  673loPI    C110753   1.472   2.281  10.770  0.0629  0.1475 -0.0855
  673loPI    C210754   1.729   2.495  10.989  0.1747  0.0307 -0.1015
  673loPI    C310755   1.547   2.176  11.149  0.1067  0.0612 -0.1179
  673loPI   PO410756   1.666   2.224  10.563 -0.2711 -0.2377 -0.0315
  673loPI   GL110757   1.756   2.164  10.163  0.1851  0.2103  0.2518
  673loPI   GL210758   1.735   1.800  10.039 -0.1896  0.0106 -0.0853
  673loPI   C1A10759   1.833   2.361   9.805 -0.2699 -0.0095 -0.0813
  673loPI   C2A10760   1.677   2.367   9.407 -0.3025  0.0043 -0.3699
  673loPI   C3A10761   1.780   2.291   9.002 -0.1752  0.0075  0.2753
  673loPI   C4A10762   1.756   2.232   8.568 -0.0731  0.1008  0.1742
  673loPI   C5A10763   1.867   2.309   8.176 -0.2858  0.1882 -0.0072
  673loPI   C6A10764   1.633   2.258   7.812 -0.0650 -0.1523 -0.0116
  673loPI   C1B10765   1.905   1.882   9.661  0.0601  0.1142  0.1484
  673loPI   C2B10766   1.791   1.823   9.267  0.0081 -0.2672 -0.2062
  673loPI   C3B10767   1.827   1.746   8.795  0.0857  0.1166  0.1409
  673loPI   C4B10768   1.857   1.662   8.390  0.0812  0.0050 -0.0332
  674loPI    C110769  12.122   9.404  10.890 -0.0516 -0.0711 -0.1280
  674loPI    C210770  11.920   9.147  11.120 -0.0678 -0.0452 -0.1129
  674loPI    C310771  12.257   9.314  11.256  0.0568 -0.2187 -0.2031
  674loPI   PO410772  12.143   9.282  10.665 -0.3515  0.1306 -0.0266
  674loPI   GL110773  12.012   9.124  10.326  0.1012 -0.0496  0.0900
  674loPI   GL210774  12.054   8.788  10.200  0.0985 -0.3236  0.2922
  674loPI   C1A10775  11.963   9.167   9.912  0.0237 -0.1033  0.3779
  674loPI   C2A10776  11.919   9.278   9.423  0.0289  0.0662 -0.2625
  674loPI   C3A10777  11.911   9.347   8.985 -0.1131  0.1984 -0.1496
  674loPI   C4A10778  11.862   9.251   8.538  0.2657  0.1849  0.1779
  674loPI   C5A10779  11.880   9.158   8.151 -0.3067  0.0392  0.0523
  674loPI   C6A10780  11.775   9.320   7.808  0.1846  0.0610  0.0636
  674loPI   C1B10781  12.023   8.725   9.776  0.3630  0.3528  0.2915
  674loPI   C2B10782  11.902   8.725   9.236 -0.2479  0.0269 -0.4133
  674loPI   C3B10783  11.974   8.814   8.820 -0.4705 -0.1581 -0.1462
  674loPI   C4B10784  12.049   8.762   8.463 -0.0447 -0.1029  0.2458
  675loPI    C110785   7.497   0.083  10.523  0.1292  0.2661  0.1466
  675loPI    C210786   7.500  -0.237  10.763  0.1654  0.0946 -0.0794
  675loPI    C310787   7.526   0.130  10.919 -0.0805 -0.0014  0.1968
  675loPI   PO410788   7.273   0.020  10.365 -0.0426 -0.2335 -0.3237
  675loPI   GL110789   7.179  -0.215  10.101  0.0139 -0.1274 -0.2759
  675loPI   GL210790   7.013  -0.041   9.858  0.0266 -0.3066 -0.0619
  675loPI   C1A10791   7.436  -0.202   9.703 -0.0224 -0.0060 -0.2150
  675loPI   C2A10792   7.486  -0.269   9.246  0.2548 -0.1199 -0.0767
  675loPI   C3A10793   7.512  -0.278   8.805  0.0993  0.2296  0.0891
  675loPI   C4A10794   7.647  -0.277   8.383 -0.0403 -0.1610 -0.1248
  675loPI   C5A10795   8.046  -0.181   8.144  0.0829  0.0275  0.1413
  675loPI   C6A10796   8.399  -0.362   8.167  0.1918  0.1667  0.0639
  675loPI   C1B10797   7.058   0.067   9.456  0.3065  0.0704 -0.3732
  675loPI   C2B10798   7.043  -0.010   9.015  0.0210  0.1957  0.0277
  675loPI   C3B10799   7.115   0.023   8.584  0.4320  0.0508 -0.1765
  675loPI   C4B10800   6.796  -0.004   8.253  0.0034  0.1295  0.0140
  676loPI    C110801  14.892  15.643  11.121  0.3746  0.0175  0.0454
  676loPI    C210802  14.817  15.276  11.260 -0.1134  0.1355  0.1128
  676loPI    C310803  14.950  15.561  11.508  0.3684 -0.0152  0.0393
  676loPI   PO410804  14.803  15.517  10.817 -0.1501 -0.1006  0.1945
  676loPI   GL110805  14.814  15.703  10.405  0.2169 -0.0934 -0.0969
  676loPI   GL210806  15.149  15.676  10.536 -0.2107  0.3373  0.5222
  676loPI   C1A10807  14.961  15.764   9.984  0.0568 -0.0218 -0.1903
  676loPI   C2A10808  14.965  15.817   9.556  0.0028  0.1610 -0.0961
  676loPI   C3A10809  14.843  15.761   9.068  0.4184  0.0541  0.0046
  676loPI   C4A10810  14.996  15.781   8.583  0.0175  0.3442  0.0286
  676loPI   C5A10811  14.998  15.697   8.110 -0.0427  0.1838  0.4072
  676loPI   C6A10812  14.861  15.624   7.744 -0.2001  0.0475  0.0400
  676loPI   C1B10813  15.127  15.348  10.240  0.1236  0.1843  0.0677
  676loPI   C2B10814  15.069  15.340   9.775 -0.0622  0.3695  0.1652
  676loPI   C3B10815  14.955  15.318   9.354 -0.0532  0.1029  0.2107
  676loPI   C4B10816  14.933  15.254   8.867  0.2124 -0.2805  0.1399
  677PSPI    C110817   3.258  11.361   5.972 -0.0108  0.1293  0.0019
  677PSPI    C210818   3.474  11.293   5.643 -0.1142 -0.0420 -0.0319
  677PSPI    C310819   3.142  11.515   5.622  0.0713  0.2463  0.0257
  677PSPI   PO410820   3.228  11.145   6.060 -0.0770 -0.2738 -0.0960
  677PSPI   GL110821   3.280  10.928   6.330  0.3843  0.0292 -0.0028
  677PSPI   GL210822   3.455  10.666   6.515 -0.2983 -0.0593 -0.0453
  677PSPI   C1A10823   3.325  11.248   6.645  0.1428  0.2680  0.2530
  677PSPI   C2A10824   3.042  11.365   6.928  0.0026  0.1274 -0.0279
  677PSPI   C3A10825   2.716  11.509   6.984 -0.1303 -0.2359  0.4603
  677PSPI   C4A10826   2.708  11.884   6.736  0.1979 -0.2241 -0.1414
  677PSPI   C1B10827   3.328  10.834   6.903 -0.0225 -0.1110  0.1197
  677PSPI   C2B10828   3.264  11.065   7.253  0.0022 -0.0704  0.0919
  677PSPI   C3B10829   3.347  11.130   7.669 -0.2072 -0.1107  0.1627
  677PSPI   C4B10830   3.038  11.178   7.928 -0.0016 -0.2113  0.1352
  678PSPI    C110831   4.763   6.418   5.909 -0.1105  0.1063  0.0606
  678PSPI    C210832   5.058   6.683   5.857  0.1913 -0.2206  0.0663
  678PSPI    C310833   4.909   6.485   5.543 -0.2652  0.1872  0.0128
  678PSPI   PO410834   4.797   6.293   6.125 -0.0623  0.1901  0.1776
  678PSPI   GL110835   4.872   6.226   6.545 -0.0417  0.0275  0.0137
  678PSPI   GL210836   4.520   6.294   6.571  0.1275 -0.0609 -0.1587
  678PSPI   C1A10837   4.947   5.785   6.737 -0.1404  0.0724  0.2086
  678PSPI   C2A10838   4.913   5.772   7.168 -0.0836  0.1916 -0.2121
  678PSPI   C3A10839   4.932   6.011   7.498 -0.1046  0.1297  0.1853
  678PSPI   C4A10840   4.754   6.203   7.911 -0.1280 -0.1524 -0.2837
  678PSPI   C1B10841   4.153   6.182   6.885  0.1751  0.1294 -0.2612
  678PSPI   C2B10842   3.976   6.207   7.347 -0.0253 -0.1321 -0.0479
  678PSPI   C3B10843   4.038   6.252   7.722  0.0107 -0.1244  0.2528
  678PSPI   C4B10844   3.895   6.456   8.049 -0.4344 -0.4221  0.1534
  679PSPI    C110845   9.178   0.962   5.973  0.2619 -0.3262 -0.0004
  679PSPI    C210846   9.061   1.137   5.633  0.1658 -0.0883  0.1518
  679PSPI    C310847   9.243   0.781   5.623 -0.0127 -0.1751 -0.1333
  679PSPI   PO410848   9.302   1.190   6.062  0.0911  0.2951  0.2719
  679PSPI   GL110849   9.273   1.419   6.407 -0.2469 -0.2165 -0.0367
  679PSPI   GL210850   8.924   1.229   6.436 -0.2842 -0.1556  0.0247
  679PSPI   C1A10851   9.624   1.699   6.559  0.1493  0.2561  0.0603
  679PSPI   C2A10852   9.728   1.775   6.967  0.3009  0.1395  0.0149
  679PSPI   C3A10853  10.009   1.888   7.339  0.2891  0.5021 -0.1207
  679PSPI   C4A10854  10.173   1.706   7.701 -0.2727  0.0541 -0.0048
  679PSPI   C1B10855   9.027   1.259   6.793 -0.0676  0.1510  0.1476
  679PSPI   C2B10856   9.295   1.356   7.121 -0.1647 -0.1321 -0.2144
  679PSPI   C3B10857   9.582   1.549   7.416  0.0184 -0.0175  0.0839
  679PSPI   C4B10858   9.811   1.383   7.773  0.4213 -0.0136  0.0027
  680PSPI    C110859  12.530   5.581   5.808 -0.0338  0.1660 -0.0513
  680PSPI    C210860  12.198   5.472   5.614  0.0900 -0.0779 -0.1311
  680PSPI    C310861  12.535   5.541   5.410  0.1543 -0.0804 -0.0267
  680PSPI   PO410862  12.614   5.418   5.954 -0.1040 -0.0160  0.2545
  680PSPI   GL110863  12.688   5.218   6.325 -0.2719 -0.0856  0.0813
  680PSPI   GL210864  12.669   4.937   6.546  0.0730 -0.2740  0.1858
  680PSPI   C1A10865  12.950   5.326   6.708 -0.2365 -0.0345 -0.3596
  680PSPI   C2A10866  13.310   5.313   6.845 -0.0099  0.0192 -0.2983
  680PSPI   C3A10867  13.317   5.486   7.332 -0.3189 -0.0076 -0.2936
  680PSPI   C4A10868  13.297   5.358   7.776  0.0581  0.1127 -0.2430
  680PSPI   C1B10869  12.504   5.120   6.939 -0.1226  0.0591  0.2448
  680PSPI   C2B10870  12.623   4.834   7.312 -0.0573  0.3725 -0.0699
  680PSPI   C3B10871  12.915   4.510   7.366 -0.0869  0.2246 -0.2583
  680PSPI   C4B10872  12.949   4.258   7.723 -0.2298 -0.0764  0.1286
  681PSPI    C110873   9.083   3.719   5.257 -0.0239  0.0773 -0.1314
  681PSPI    C210874   9.165   3.344   5.147 -0.0168  0.1197 -0.2723
  681PSPI    C310875   8.785   3.466   5.172 -0.0255  0.0533 -0.0559
  681PSPI   PO410876   9.375   3.706   5.421  0.0962  0.3077 -0.0861
  681PSPI   GL110877   9.504   3.564   5.846 -0.1333 -0.0525 -0.0160
  681PSPI   GL210878   9.595   3.818   6.010 -0.2602  0.1268  0.0926
  681PSPI   C1A10879   9.116   3.417   6.083  0.1964 -0.0182 -0.1123
  681PSPI   C2A10880   8.702   3.351   6.166 -0.1467  0.0793  0.0919
  681PSPI   C3A10881   8.375   3.292   6.111  0.0528  0.2612  0.0959
  681PSPI   C4A10882   7.954   3.395   6.058 -0.1374 -0.1072 -0.2651
  681PSPI   C1B10883   9.538   3.610   6.383 -0.1609 -0.1778  0.2830
  681PSPI   C2B10884   9.426   3.376   6.742  0.2243 -0.2539 -0.0658
  681PSPI   C3B10885   9.051   3.154   7.035  0.0867 -0.1917  0.0358
  681PSPI   C4B10886   8.765   3.320   7.284  0.0423  0.1269 -0.1448
  682PSPI    C110887   1.292  16.287   5.565  0.4236  0.0835  0.1088
  682PSPI    C210888   1.043  16.027   5.390  0.1253  0.2731  0.2421
  682PSPI    C310889   1.397  16.110   5.222  0.0694  0.0562  0.0105
  682PSPI   PO410890   1.254  16.186   5.865  0.3239  0.3092  0.0076
  682PSPI   GL110891   1.502  16.350   6.100  0.0409  0.0006  0.2324
  682PSPI   GL210892   1.737  16.088   6.107  0.3801  0.1130  0.0633
  682PSPI   C1A10893   1.752  16.431   6.535 -0.0169  0.1758 -0.1900
  682PSPI   C2A10894   1.714  16.532   6.915 -0.4265 -0.2627  0.0636
  682PSPI   C3A10895   1.749  16.886   7.245 -0.0638  0.1431 -0.1497
  682PSPI   C4A10896   1.828  17.139   7.596 -0.2731 -0.1435  0.1353
  682PSPI   C1B10897   1.527  15.928   6.418 -0.0790  0.1809 -0.0444
  682PSPI   C2B10898   1.474  16.006   6.850 -0.3280 -0.0971 -0.0716
  682PSPI   C3B10899   1.783  16.069   7.289 -0.1120  0.1961 -0.1741
  682PSPI   C4B10900   2.184  15.943   7.502  0.1973 -0.0539  0.2865
  683PSPI    C110901  13.171   4.956   5.721 -0.1901 -0.5045 -0.1778
  683PSPI    C210902  12.858   4.963   5.969 -0.0460  0.0862  0.0020
  683PSPI    C310903  12.820   5.102   5.596 -0.0508 -0.0393 -0.0447
  683PSPI   PO410904  13.378   5.046   5.916 -0.1540  0.1075  0.1918
  683PSPI   GL110905  13.493   5.324   6.317  0.1501  0.0869  0.1933
  683PSPI   GL210906  13.598   5.684   6.285  0.2003 -0.2585 -0.2259
  683PSPI   C1A10907  13.817   5.291   6.666  0.0836  0.3851  0.2509
  683PSPI   C2A10908  14.135   5.106   6.987 -0.1656 -0.3002 -0.2009
  683PSPI   C3A10909  14.306   5.074   7.349 -0.1974  0.0261 -0.1750
  683PSPI   C4A10910  14.087   5.004   7.849  0.0049 -0.0015 -0.3014
  683PSPI   C1B10911  13.704   5.739   6.636  0.0764  0.1294 -0.0745
  683PSPI   C2B10912  13.787   5.557   7.082  0.1035 -0.0979  0.0252
  683PSPI   C3B10913  13.747   5.856   7.423 -0.1093 -0.0473  0.2308
  683PSPI   C4B10914  13.408   5.800   7.752  0.1799  0.0437 -0.1554
  684PSPI    C110915  14.600   3.916   5.935 -0.1142  0.0536 -0.0752
  684PSPI    C210916  14.765   4.121   6.236  0.0177  0.0344 -0.1340
  684PSPI    C310917  14.400   4.218   6.104 -0.0317  0.0565  0.0178
  684PSPI   PO410918  14.861   3.724   5.912 -0.0232 -0.0786 -0.0388
  684PSPI   GL110919  15.097   3.661   6.319  0.1852  0.2532  0.2147
  684PSPI   GL210920  15.149   3.855   6.469  0.3877  0.3279 -0.1796
  684PSPI   C1A10921  15.309   3.349   6.628 -0.0635  0.1326  0.0892
  684PSPI   C2A10922  15.493   3.280   7.017  0.4471 -0.0583  0.2732
  684PSPI   C3A10923  15.374   3.482   7.399  0.1566  0.0919  0.1859
  684PSPI   C4A10924  15.402   3.632   7.873  0.0802  0.2340  0.0915
  684PSPI   C1B10925  15.274   4.032   6.785 -0.0827  0.2394 -0.1053
  684PSPI   C2B10926  15.406   4.068   7.148 -0.1129  0.0896  0.1571
  684PSPI   C3B10927  15.536   3.960   7.506 -0.2016  0.1885  0.2222
  684PSPI   C4B10928  15.876   3.926   7.839 -0.3076  0.0426  0.0285
  685PSPI    C110929  10.287   8.029   5.561  0.0138  0.1678  0.0866
  685PSPI    C210930  10.153   7.673   5.438  0.0399  0.0700  0.3348
  685PSPI    C310931  10.541   7.722   5.520  0.1141  0.2751 -0.1088
  685PSPI   PO410932  10.139   8.091   5.757  0.0228  0.0643 -0.0847
  685PSPI   GL110933  10.164   8.081   6.212  0.1067 -0.0360 -0.0013
  685PSPI   GL210934  10.434   7.937   6.342  0.3153  0.0177  0.1302
  685PSPI   C1A10935   9.870   8.305   6.478 -0.0052 -0.0632  0.0171
  685PSPI   C2A10936   9.878   8.365   6.981  0.2333  0.3954  0.0986
  685PSPI   C3A10937   9.834   8.457   7.375 -0.0987 -0.1488 -0.2252
  685PSPI   C4A10938   9.656   8.956   7.456  0.0337  0.1072 -0.2435
  685PSPI   C1B10939  10.176   7.806   6.699  0.3767 -0.3722 -0.1024
  685PSPI   C2B10940   9.998   7.905   7.122 -0.0543  0.3880 -0.0361
  685PSPI   C3B10941  10.008   7.973   7.507 -0.0959  0.0262 -0.1637
  685PSPI   C4B10942   9.875   8.118   7.833  0.1169  0.0587 -0.0718
  686PSPI    C110943   6.124  12.900   5.683  0.0784  0.0183 -0.0854
  686PSPI    C210944   5.909  13.106   5.416 -0.1286  0.0347  0.0916
  686PSPI    C310945   6.058  12.747   5.319 -0.2621  0.0090 -0.0221
  686PSPI   PO410946   5.934  13.047   6.011  0.0734 -0.1790  0.0598
  686PSPI   GL110947   6.058  13.108   6.413  0.0586 -0.2792  0.1772
  686PSPI   GL210948   6.255  12.748   6.464  0.0529 -0.1929 -0.0815
  686PSPI   C1A10949   5.908  13.353   6.765 -0.1785  0.1242 -0.0707
  686PSPI   C2A10950   5.792  13.365   7.256 -0.2400 -0.0643  0.1404
  686PSPI   C3A10951   5.696  13.361   7.610  0.0581  0.0698  0.1981
  686PSPI   C4A10952   6.085  13.485   7.804  0.0033  0.1114 -0.4567
  686PSPI   C1B10953   6.121  12.836   6.910  0.0468  0.2889 -0.2089
  686PSPI   C2B10954   5.975  12.843   7.282  0.1315 -0.0154 -0.0806
  686PSPI   C3B10955   5.735  12.849   7.671 -0.0218 -0.1789 -0.0869
  686PSPI   C4B10956   5.752  12.777   8.065  0.1765  0.0956 -0.2364
  687PSPI    C110957   8.460  13.396   5.840 -0.0395  0.1276 -0.1060
  687PSPI    C210958   8.447  12.996   5.862 -0.2140  0.1384  0.0045
  687PSPI    C310959   8.650  13.174   5.566  0.0534 -0.0299  0.0841
  687PSPI   PO410960   8.569  13.503   6.066 -0.0941  0.2406 -0.0894
  687PSPI   GL110961   8.714  13.382   6.399  0.1196  0.0595 -0.0373
  687PSPI   GL210962   9.028  13.259   6.594  0.2023  0.1799  0.0707
  687PSPI   C1A10963   8.588  13.625   6.785 -0.0293 -0.5153  0.0246
  687PSPI   C2A10964   8.551  13.641   7.193 -0.1345  0.0465 -0.0396
  687PSPI   C3A10965   8.656  13.740   7.693 -0.0171  0.2133 -0.3233
  687PSPI   C4A10966   8.740  14.024   7.953 -0.1572 -0.0337 -0.1619
  687PSPI   C1B10967   8.757  13.174   6.934  0.1639  0.2633  0.2653
  687PSPI   C2B10968   8.672  13.068   7.387  0.4036  0.0187  0.0680
  687PSPI   C3B10969   8.879  13.219   7.804  0.0425 -0.0204 -0.0051
  687PSPI   C4B10970   9.153  13.441   8.226  0.0554 -0.0199 -0.1251
  688PSPI    C110971   8.129  16.400   5.485 -0.1101  0.0791  0.0644
  688PSPI    C210972   7.974  16.633   5.199 -0.0571  0.0947  0.0483
  688PSPI    C310973   8.335  16.715   5.350 -0.0877  0.0903  0.1245
  688PSPI   PO410974   7.986  16.399   5.691  0.0974  0.0034  0.2497
  688PSPI   GL110975   8.096  16.184   6.088  0.4358  0.1616 -0.0387
  688PSPI   GL210976   8.057  15.911   6.070  0.2942  0.0397  0.0376
  688PSPI   C1A10977   7.768  16.281   6.473  0.0827  0.1278  0.0009
  688PSPI   C2A10978   7.789  16.388   6.908  0.0350 -0.1401 -0.3360
  688PSPI   C3A10979   7.756  16.302   7.382 -0.0350  0.0060  0.1403
  688PSPI   C4A10980   7.813  15.920   7.692 -0.0330 -0.0044 -0.3099
  688PSPI   C1B10981   7.982  15.818   6.498  0.0671 -0.1823  0.1214
  688PSPI   C2B10982   8.092  16.012   6.887  0.0928 -0.1255  0.2320
  688PSPI   C3B10983   8.358  16.079   7.277  0.2029  0.0780 -0.1613
  688PSPI   C4B10984   8.425  16.016   7.675  0.0696 -0.0788  0.2132
  689PSPI    C110985  15.328   4.411   5.436  0.0112 -0.1561  0.0209
  689PSPI    C210986  15.543   4.110   5.586 -0.0381 -0.2416 -0.0784
  689PSPI    C310987  15.558   4.190   5.194  0.2285  0.0932 -0.0049
  689PSPI   PO410988  15.268   4.578   5.597  0.2516  0.0622  0.0543
  689PSPI   GL110989  15.195   4.756   6.074 -0.4562 -0.6400  0.1937
  689PSPI   GL210990  15.550   4.895   6.050 -0.0053 -0.4802 -0.1215
  689PSPI   C1A10991  14.806   4.662   6.328 -0.0934  0.2538  0.0237
  689PSPI   C2A10992  14.465   4.565   6.456 -0.1056  0.0923 -0.0267
  689PSPI   C3A10993  14.201   4.662   6.745 -0.0732 -0.0288  0.1429
  689PSPI   C4A10994  14.071   4.594   7.215  0.1677  0.1600 -0.1430
  689PSPI   C1B10995  15.469   4.988   6.409 -0.0320 -0.0431  0.0140
  689PSPI   C2B10996  15.482   5.129   6.816 -0.0146  0.1902  0.3228
  689PSPI   C3B10997  15.822   5.088   7.145  0.1191 -0.0557  0.0999
  689PSPI   C4B10998  16.067   4.864   7.572  0.0167 -0.2252 -0.0854
  690PSPI    C110999   7.252   6.695   6.232  0.0699 -0.1370 -0.2248
  690PSPI    C211000   6.983   6.719   5.938  0.0048 -0.2070 -0.1715
  690PSPI    C311001   7.358   6.845   5.877 -0.0507 -0.0687 -0.2323
  690PSPI   PO411002   6.965   6.811   6.430  0.0250  0.1387  0.1095
  690PSPI   GL111003   6.600   6.778   6.684 -0.0179  0.2759 -0.0309
  690PSPI   GL211004   6.415   6.933   6.870 -0.2106  0.0682  0.0327
  690PSPI   C1A11005   6.563   6.479   7.019  0.4395  0.2285 -0.0506
  690PSPI   C2A11006   6.472   6.367   7.369  0.1050 -0.2656 -0.1080
  690PSPI   C3A11007   6.398   6.240   7.744 -0.2140 -0.0052  0.0187
  690PSPI   C4A11008   6.084   6.230   8.002 -0.3385  0.2947  0.0995
  690PSPI   C1B11009   6.515   6.953   7.258  0.1629  0.1366  0.3233
  690PSPI   C2B11010   6.523   6.866   7.709  0.1502 -0.0473 -0.0082
  690PSPI   C3B11011   6.384   6.648   8.035  0.0152 -0.1948 -0.1347
  690PSPI   C4B11012   6.250   6.526   8.405 -0.0438 -0.0034 -0.1746
  691PSPI    C111013   7.876   8.536   5.986 -0.1135  0.1549  0.2526
  691PSPI    C211014   7.596   8.344   5.775  0.2970  0.0463 -0.2126
  691PSPI    C311015   7.937   8.158   5.869  0.3015  0.2414  0.1740
  691PSPI   PO411016   7.857   8.696   6.173  0.2760 -0.2215 -0.0185
  691PSPI   GL111017   7.653   8.625   6.491 -0.2784  0.1142 -0.0199
  691PSPI   GL211018   7.396   8.826   6.623  0.1283  0.1614 -0.1159
  691PSPI   C1A11019   7.662   8.359   6.857 -0.1913 -0.1133  0.0119
  691PSPI   C2A11020   7.792   8.424   7.282  0.3696 -0.0255  0.1680
  691PSPI   C3A11021   7.888   8.631   7.698  0.1414  0.1579 -0.1626
  691PSPI   C4A11022   7.869   8.429   8.078  0.0910 -0.3189  0.1686
  691PSPI   C1B11023   7.401   8.769   7.102 -0.0423  0.3008 -0.0391
  691PSPI   C2B11024   7.476   8.795   7.563  0.0818  0.1995  0.0703
  691PSPI   C3B11025   7.379   8.714   7.932 -0.1564  0.0274 -0.1115
  691PSPI   C4B11026   7.583   8.846   8.339  0.0380 -0.0709  0.1030
  692PSPI    C111027  12.209   1.039   5.926 -0.0725  0.1548  0.1803
  692PSPI    C211028  12.064   0.670   5.975  0.1095  0.0525 -0.0351
  692PSPI    C311029  11.864   0.935   5.752  0.0426  0.0450  0.0154
  692PSPI   PO411030  12.249   1.031   6.228  0.1461 -0.0147 -0.1486
  692PSPI   GL111031  12.345   1.256   6.648 -0.1162  0.0194 -0.2124
  692PSPI   GL211032  12.251   1.503   6.351  0.0049 -0.1741 -0.2302
  692PSPI   C1A11033  12.227   1.344   7.052  0.2080 -0.0525 -0.1437
  692PSPI   C2A11034  12.124   1.349   7.483 -0.0699 -0.0885 -0.0301
  692PSPI   C3A11035  12.014   1.543   7.846  0.0147 -0.1797 -0.2743
  692PSPI   C4A11036  11.921   1.941   7.890  0.3949 -0.2439 -0.2659
  692PSPI   C1B11037  12.000   1.589   6.650  0.1522 -0.1870  0.1376
  692PSPI   C2B11038  11.766   1.525   7.051  0.2967  0.1370 -0.0456
  692PSPI   C3B11039  11.765   1.759   7.437 -0.1791 -0.0923  0.2622
  692PSPI   C4B11040  11.465   1.570   7.826  0.1377  0.1480  0.3779
  693PSPI    C111041   8.314  10.488   5.750 -0.2650  0.0573  0.0980
  693PSPI    C211042   8.231  10.100   5.703 -0.1316  0.0314  0.0736
  693PSPI    C311043   8.387  10.309   5.400 -0.2121  0.1065  0.0838
  693PSPI   PO411044   8.387  10.541   5.991  0.0556 -0.1382  0.2374
  693PSPI   GL111045   8.457  10.522   6.467 -0.0779 -0.1669  0.2624
  693PSPI   GL211046   8.633  10.261   6.452  0.2894 -0.1620 -0.0458
  693PSPI   C1A11047   8.613  10.733   6.849 -0.3139 -0.1993 -0.2143
  693PSPI   C2A11048   8.653  10.749   7.297  0.2571  0.0183 -0.1903
  693PSPI   C3A11049   8.927  10.583   7.628 -0.0196  0.0687  0.2130
  693PSPI   C4A11050   9.277  10.515   7.991 -0.2011 -0.1110  0.2020
  693PSPI   C1B11051   8.861  10.345   6.821 -0.2674 -0.0521  0.1324
  693PSPI   C2B11052   8.946  10.200   7.258 -0.0265 -0.1140  0.1089
  693PSPI   C3B11053   9.142  10.144   7.660  0.0440  0.0775  0.0295
  693PSPI   C4B11054   9.458   9.898   7.981  0.0416  0.2521 -0.1909
  694PSPI    C111055   0.141  13.975   6.217  0.2610 -0.0745 -0.2116
  694PSPI    C211056   0.231  14.175   5.882  0.3104  0.0403 -0.1303
  694PSPI    C311057  -0.139  14.033   5.937  0.2408  0.2178 -0.1339
  694PSPI   PO411058   0.299  13.950   6.339 -0.2502  0.0283  0.0282
  694PSPI   GL111059   0.165  13.923   6.753 -0.1533  0.0403 -0.1153
  694PSPI   GL211060  -0.150  13.877   6.717 -0.1441  0.1455  0.0985
  694PSPI   C1A11061   0.279  14.127   7.084  0.0909 -0.2838  0.0440
  694PSPI   C2A11062   0.311  14.160   7.514  0.2204  0.0623  0.1370
  694PSPI   C3A11063   0.334  13.976   7.940  0.0139  0.2221  0.2198
  694PSPI   C4A11064   0.191  13.815   8.319  0.1120  0.0475  0.3376
  694PSPI   C1B11065  -0.090  13.801   7.165 -0.2049 -0.0276 -0.3618
  694PSPI   C2B11066  -0.080  13.836   7.667 -0.1720  0.0884  0.1994
  694PSPI   C3B11067  -0.168  13.600   8.044  0.3014 -0.1275  0.3015
  694PSPI   C4B11068  -0.429  13.647   8.349 -0.5319 -0.3359 -0.0866
  695PSPI    C111069   7.352   8.635   6.086  0.1920  0.2399  0.1248
  695PSPI    C211070   7.169   8.673   5.733  0.1760  0.1352  0.1214
  695PSPI    C311071   7.519   8.855   5.798  0.0855  0.3125  0.1180
  695PSPI   PO411072   7.176   8.619   6.232  0.0655  0.0339 -0.2255
  695PSPI   GL111073   6.762   8.442   6.402  0.2490 -0.1699  0.2196
  695PSPI   GL211074   6.706   8.764   6.557 -0.0376  0.2695 -0.1724
  695PSPI   C1A11075   6.635   8.284   6.807  0.1071  0.1704 -0.0320
  695PSPI   C2A11076   6.650   8.427   7.275  0.1009  0.2147  0.1256
  695PSPI   C3A11077   6.591   8.265   7.765 -0.0367 -0.3922  0.0339
  695PSPI   C4A11078   6.513   8.220   8.128 -0.2288 -0.0472  0.2300
  695PSPI   C1B11079   6.909   8.811   7.043 -0.1760  0.0036  0.3823
  695PSPI   C2B11080   6.999   8.899   7.395 -0.2484  0.1307 -0.2995
  695PSPI   C3B11081   6.950   8.625   7.684 -0.0718 -0.0696 -0.0520
  695PSPI   C4B11082   7.047   8.380   8.097 -0.0961 -0.0796  0.0239
  696PSPI    C111083   3.420   9.865   5.624  0.2752 -0.0511  0.1146
  696PSPI    C211084   3.264  10.173   5.826  0.1174 -0.0508 -0.0060
  696PSPI    C311085   3.492  10.240   5.505 -0.0210 -0.0612 -0.1074
  696PSPI   PO411086   3.445   9.701   5.842  0.0276  0.4063  0.0711
  696PSPI   GL111087   3.325   9.725   6.243 -0.1523 -0.0599  0.1655
  696PSPI   GL211088   3.029   9.444   6.206  0.1525 -0.0876 -0.3345
  696PSPI   C1A11089   3.256   9.623   6.674 -0.1990  0.0494  0.0431
  696PSPI   C2A11090   3.029   9.681   7.013  0.0016  0.1044  0.0971
  696PSPI   C3A11091   2.764   9.802   7.298 -0.0860 -0.0764 -0.2607
  696PSPI   C4A11092   2.747   9.803   7.765  0.0312 -0.0429 -0.0584
  696PSPI   C1B11093   2.737   9.445   6.586  0.0229  0.3173  0.0399
  696PSPI   C2B11094   2.579   9.447   6.976  0.0181 -0.0131 -0.0404
  696PSPI   C3B11095   2.411   9.473   7.403  0.0134 -0.2418 -0.0782
  696PSPI   C4B11096   2.721   9.335   7.720 -0.0459  0.1875 -0.0525
  697POPI    C111097   7.666   9.986   6.204  0.3512 -0.0544 -0.2160
  697POPI    C211098   7.744   9.594   6.172 -0.1820 -0.1567 -0.3520
  697POPI    C311099   7.779   9.832   5.853 -0.2886 -0.1784 -0.3805
  697POPI   PO411100   7.750  10.045   6.427  0.0533 -0.1332 -0.1276
  697POPI   GL111101   8.125  10.146   6.676  0.1839 -0.1578  0.0107
  697POPI   GL211102   7.997  10.406   6.720 -0.2363 -0.0072 -0.0481
  697POPI   C1A11103   7.945  10.068   7.222 -0.2447 -0.0054 -0.0923
  697POPI   D2A11104   7.695  10.130   7.660 -0.0313 -0.0929  0.1693
  697POPI   C3A11105   7.670  10.422   7.898  0.0908 -0.0236 -0.0465
  697POPI   C4A11106   7.388  10.602   8.111  0.2727 -0.2161 -0.1305
  697POPI   C1B11107   8.306  10.343   7.081 -0.5311  0.0722 -0.4279
  697POPI   C2B11108   8.422  10.296   7.490 -0.1062 -0.2912  0.1228
  697POPI   C3B11109   8.605  10.258   7.969 -0.0792 -0.1552 -0.3601
  697POPI   C4B11110   9.023  10.078   8.172  0.0261  0.0037 -0.2528
  698POPI    C111111   0.812  17.061   5.469  0.1327 -0.1138 -0.0517
  698POPI    C211112   0.925  16.694   5.359 -0.2057 -0.2152 -0.0697
  698POPI    C311113   0.556  16.756   5.502 -0.0266  0.0510  0.2940
  698POPI   PO411114   1.063  17.152   5.635  0.0236  0.1304 -0.0867
  698POPI   GL111115   1.047  17.339   6.053 -0.4479  0.2619  0.2161
  698POPI   GL211116   1.129  16.997   6.279 -0.1170 -0.1468 -0.0353
  698POPI   C1A11117   0.973  17.471   6.463 -0.2530  0.1004 -0.3904
  698POPI   D2A11118   0.939  17.411   6.961 -0.2162 -0.0299  0.2900
  698POPI   C3A11119   0.644  17.076   7.112  0.5104  0.1819 -0.3230
  698POPI   C4A11120   0.322  16.867   6.969  0.1782 -0.1067 -0.0640
  698POPI   C1B11121   1.217  16.968   6.760 -0.1114 -0.5114 -0.1316
  698POPI   C2B11122   1.126  16.878   7.232 -0.1131  0.0864  0.0253
  698POPI   C3B11123   1.404  16.900   7.668  0.3012 -0.2304 -0.1698
  698POPI   C4B11124   1.539  16.665   8.073  0.1114 -0.1351 -0.0461
  699POPI    C111125   9.984   1.371   5.576 -0.0025  0.1993  0.1523
  699POPI    C211126  10.276   1.463   5.320  0.0664 -0.0500  0.1385
  699POPI    C311127   9.908   1.384   5.184  0.0173  0.1556  0.1471
  699POPI   PO411128  10.086   1.221   5.755  0.0568 -0.4020 -0.0364
  699POPI   GL111129   9.854   1.336   6.126 -0.0695  0.1285 -0.1542
  699POPI   GL211130   9.696   1.208   6.402  0.0837  0.1265 -0.0265
  699POPI   C1A11131  10.121   1.165   6.582  0.0017  0.0715  0.0104
  699POPI   D2A11132  10.083   1.029   6.988  0.0249 -0.0028  0.0341
  699POPI   C3A11133  10.406   0.952   7.237 -0.0433 -0.1146 -0.0553
  699POPI   C4A11134  10.609   0.998   7.644 -0.0487 -0.0977  0.2092
  699POPI   C1B11135   9.619   1.182   6.784  0.2262 -0.3434  0.0960
  699POPI   C2B11136   9.630   1.038   7.211 -0.1070 -0.0498 -0.2453
  699POPI   C3B11137   9.749   0.888   7.631  0.0831  0.1243  0.1448
  699POPI   C4B11138   9.754   0.646   8.165  0.1784  0.0648 -0.0074
  700POPI    C111139   3.105  15.431   5.274  0.0905  0.1533  0.1819
  700POPI    C211140   3.489  15.346   5.352  0.0844  0.1913  0.2543
  700POPI    C311141   3.395  15.584   5.044  0.1066  0.0118  0.1075
  700POPI   PO411142   2.910  15.514   5.579 -0.1005 -0.2354  0.1249
  700POPI   GL111143   2.668  15.497   5.944 -0.1228  0.1299 -0.0421
  700POPI   GL211144   2.286  15.444   6.128  0.0561  0.1109  0.0683
  700POPI   C1A11145   2.782  15.458   6.366 -0.0367 -0.1405 -0.2769
  700POPI   D2A11146   2.756  15.559   6.813 -0.3095  0.2465  0.2322
  700POPI   C3A11147   3.053  15.622   7.081  0.0120  0.0481  0.2020
  700POPI   C4A11148   3.218  15.470   7.490  0.3857 -0.0341 -0.1048
  700POPI   C1B11149   2.245  15.458   6.584  0.2911  0.2287  0.0737
  700POPI   C2B11150   2.176  15.218   7.064  0.1028  0.2752  0.0234
  700POPI   C3B11151   2.156  15.215   7.488  0.0113 -0.0339 -0.1116
  700POPI   C4B11152   2.318  15.443   7.744 -0.2047 -0.0397 -0.3119
  701POPI    C111153  16.398  14.561   6.071 -0.0218 -0.1523  0.0480
  701POPI    C211154  16.651  14.262   5.986 -0.0609 -0.1953  0.0824
  701POPI    C311155  16.447  14.442   5.692  0.3030  0.1037  0.0049
  701POPI   PO411156  16.519  14.641   6.326 -0.0137  0.0107  0.2805
  701POPI   GL111157  16.348  14.682   6.749 -0.4552 -0.0157 -0.0053
  701POPI   GL211158  16.639  14.893   6.727 -0.1530 -0.0728  0.0257
  701POPI   C1A11159  16.377  14.796   7.231 -0.1308  0.2844  0.0313
  701POPI   D2A11160  16.346  14.652   7.676  0.3093  0.3365  0.1984
  701POPI   C3A11161  16.077  14.897   7.854 -0.1119 -0.1109  0.0544
  701POPI   C4A11162  15.929  14.884   8.313  0.1446  0.2285 -0.0711
  701POPI   C1B11163  16.806  15.187   7.008 -0.1966 -0.1177 -0.0796
  701POPI   C2B11164  16.841  15.283   7.299  0.0263  0.0314  0.2664
  701POPI   C3B11165  16.535  15.143   7.619  0.2313 -0.2030  0.1020
  701POPI   C4B11166  16.548  15.102   7.986  0.0096 -0.1274 -0.3867
  702POPI    C111167   7.124   6.113   6.230  0.1588 -0.0929  0.0597
  702POPI    C211168   7.171   5.991   5.852 -0.0427 -0.3711  0.1211
  702POPI    C311169   6.862   6.226   5.950 -0.0079 -0.3242  0.1192
  702POPI   PO411170   7.461   6.224   6.244  0.0479  0.2017  0.4021
  702POPI   GL111171   7.607   6.479   6.563 -0.0338  0.1100  0.2680
  702POPI   GL211172   7.803   6.096   6.657 -0.1562 -0.2072  0.1817
  702POPI   C1A11173   7.448   6.486   6.997  0.0264  0.2146 -0.3858
  702POPI   D2A11174   7.430   6.288   7.383 -0.0513  0.2310 -0.0412
  702POPI   C3A11175   7.269   6.055   7.775 -0.0984  0.2395  0.2084
  702POPI   C4A11176   7.145   5.920   8.238  0.0219  0.0745  0.1960
  702POPI   C1B11177   7.809   6.045   7.060  0.0915  0.0591  0.2687
  702POPI   C2B11178   7.731   5.959   7.528 -0.0368 -0.2720  0.2336
  702POPI   C3B11179   7.608   5.665   7.953  0.1735  0.1565  0.1671
  702POPI   C4B11180   7.576   5.597   8.417 -0.1031  0.3079  0.2045
  703POPI    C111181   7.293   9.714   5.976  0.0689  0.2908  0.0007
  703POPI    C211182   7.015   9.986   6.069 -0.2454 -0.0875  0.1959
  703POPI    C311183   6.978   9.770   5.735 -0.1006 -0.0301  0.1420
  703POPI   PO411184   7.262   9.526   6.150  0.1833  0.0384  0.0393
  703POPI   GL111185   7.407   9.435   6.561 -0.1199 -0.0278 -0.0526
  703POPI   GL211186   7.563   9.606   6.709 -0.2388  0.1593 -0.2441
  703POPI   C1A11187   7.385   9.262   7.011  0.0276 -0.0160  0.3324
  703POPI   D2A11188   7.348   9.252   7.500  0.3174 -0.2482  0.0388
  703POPI   C3A11189   7.593   9.183   7.835  0.1152  0.0971 -0.0153
  703POPI   C4A11190   7.894   8.956   8.045 -0.0080  0.0166  0.1342
  703POPI   C1B11191   7.642   9.615   7.233 -0.0039 -0.0514  0.0953
  703POPI   C2B11192   7.733   9.597   7.652 -0.1237  0.1927 -0.2713
  703POPI   C3B11193   7.760   9.736   7.970 -0.1563  0.0726 -0.2152
  703POPI   C4B11194   7.753  10.085   8.302  0.1726 -0.1594  0.0780
  704POPI    C111195   5.154  10.466   6.123 -0.1591  0.0280 -0.1031
  704POPI    C211196   5.305  10.110   6.223  0.0205  0.1799  0.1814
  704POPI    C311197   5.427  10.292   5.889  0.0600  0.0548  0.1272
  704POPI   PO411198   5.281  10.618   6.432 -0.0469 -0.2127  0.2151
  704POPI   GL111199   5.477  10.979   6.621  0.1073 -0.3611 -0.0485
  704POPI   GL211200   5.658  10.730   6.758 -0.0689 -0.0905 -0.1157
  704POPI   C1A11201   5.273  11.133   6.890  0.2906 -0.0722 -0.1793
  704POPI   D2A11202   5.373  11.417   7.205  0.0693  0.1032 -0.1506
  704POPI   C3A11203   5.584  11.438   7.496  0.0407  0.1943  0.1584
  704POPI   C4A11204   5.867  11.423   7.892 -0.0575 -0.1122  0.1275
  704POPI   C1B11205   5.506  10.451   7.106 -0.0573  0.1316  0.1231
  704POPI   C2B11206   5.465  10.416   7.535 -0.1107 -0.0214 -0.0771
  704POPI   C3B11207   5.236  10.260   7.854  0.3348  0.0653  0.2295
  704POPI   C4B11208   5.134  10.218   8.222  0.1460  0.1903  0.0485
  705POPI    C111209  14.644   3.066   5.666  0.1052 -0.2142 -0.0052
  705POPI    C211210  14.256   3.146   5.611  0.0939 -0.1403  0.1753
  705POPI    C311211  14.494   3.083   5.295  0.0139  0.1864  0.0462
  705POPI   PO411212  14.669   2.837   5.846  0.0364 -0.2106 -0.2685
  705POPI   GL111213  14.755   2.873   6.330 -0.0402  0.0817  0.1417
  705POPI   GL211214  14.917   2.931   6.590 -0.0379 -0.0459  0.0373
  705POPI   C1A11215  14.489   2.620   6.611 -0.0990  0.2721  0.0420
  705POPI   D2A11216  14.091   2.449   6.842 -0.0732 -0.2941  0.0884
  705POPI   C3A11217  14.081   2.458   7.376 -0.3438 -0.3823  0.1096
  705POPI   C4A11218  14.460   2.712   7.600 -0.0116  0.2514  0.0571
  705POPI   C1B11219  14.834   2.877   7.026  0.0463 -0.0407 -0.1242
  705POPI   C2B11220  15.079   3.008   7.433  0.1142  0.1839 -0.1711
  705POPI   C3B11221  15.322   3.114   7.691  0.0740 -0.2453  0.2573
  705POPI   C4B11222  15.562   3.173   8.009 -0.2357  0.0905  0.1359
  706POPI    C111223  16.550  15.067   6.002  0.1704 -0.0396 -0.0807
  706POPI    C211224  16.425  15.259   5.673 -0.0369 -0.0052  0.0165
  706POPI    C311225  16.196  14.975   5.839  0.0673 -0.0238  0.1302
  706POPI   PO411226  16.628  15.289   6.192  0.1424  0.1002  0.3175
  706POPI   GL111227  16.371  15.520   6.489 -0.2171  0.0406 -0.2054
  706POPI   GL211228  16.534  15.352   6.653 -0.0810  0.0983 -0.2644
  706POPI   C1A11229  16.168  15.757   6.913  0.3423  0.0331  0.2590
  706POPI   D2A11230  15.936  15.875   7.298  0.3812  0.4304  0.2580
  706POPI   C3A11231  16.004  15.806   7.790 -0.1933  0.1208  0.0185
  706POPI   C4A11232  15.933  15.944   8.255  0.4109  0.1586  0.0850
  706POPI   C1B11233  16.724  15.687   6.956  0.0347  0.1111 -0.0605
  706POPI   C2B11234  16.595  16.056   7.274  0.0893 -0.1424  0.1783
  706POPI   C3B11235  16.287  16.096   7.538  0.0674 -0.0329  0.3808
  706POPI   C4B11236  15.987  16.304   7.810  0.3171  0.0289  0.0281
  707POPI    C111237   6.006  12.018   6.311  0.0835  0.1045  0.0257
  707POPI    C211238   6.284  12.000   6.023 -0.0560 -0.2886 -0.0907
  707POPI    C311239   6.309  11.759   6.342 -0.0756 -0.0782  0.0722
  707POPI   PO411240   5.963  12.268   6.381 -0.0713 -0.1485  0.0840
  707POPI   GL111241   5.824  12.569   6.651 -0.0355 -0.1040 -0.0759
  707POPI   GL211242   5.599  12.354   6.697 -0.1449 -0.0645  0.1664
  707POPI   C1A11243   5.637  12.888   6.860  0.0353  0.0257  0.0424
  707POPI   D2A11244   5.413  13.309   6.730  0.0383 -0.0409  0.2146
  707POPI   C3A11245   5.596  13.723   6.999  0.2100  0.0911 -0.0722
  707POPI   C4A11246   5.639  13.794   7.386 -0.1146  0.0657 -0.0596
  707POPI   C1B11247   5.550  12.265   7.065 -0.0036 -0.0306  0.0351
  707POPI   C2B11248   5.484  12.487   7.378  0.1568 -0.1764 -0.2254
  707POPI   C3B11249   5.334  12.856   7.383  0.2121 -0.1189  0.0662
  707POPI   C4B11250   5.332  13.210   7.253  0.2500  0.1534 -0.0426
  708POPI    C111251   9.283  15.421   5.760 -0.1621  0.0036 -0.1111
  708POPI    C211252   9.013  15.140   5.668 -0.0278 -0.0948 -0.2083
  708POPI    C311253   9.355  15.165   5.461  0.1098 -0.0745  0.0180
  708POPI   PO411254   9.369  15.420   6.018  0.0222 -0.1829  0.1797
  708POPI   GL111255   9.362  15.436   6.502 -0.0733 -0.0073  0.2622
  708POPI   GL211256   9.201  15.151   6.455 -0.1974 -0.2864  0.0743
  708POPI   C1A11257   9.485  15.124   6.839 -0.0538  0.0398 -0.0215
  708POPI   D2A11258   9.284  14.871   7.174  0.0387 -0.1955 -0.3019
  708POPI   C3A11259   9.067  15.165   7.391 -0.0248 -0.1108  0.3889
  708POPI   C4A11260   9.079  15.252   7.760 -0.0134  0.2043  0.1126
  708POPI   C1B11261   8.990  14.976   6.822 -0.0422  0.0149 -0.0845
  708POPI   C2B11262   8.704  15.071   7.076 -0.1217 -0.2780 -0.1859
  708POPI   C3B11263   8.359  15.285   7.232 -0.1167  0.1852  0.1320
  708POPI   C4B11264   8.160  15.553   7.383 -0.2068 -0.0511 -0.2824
  709POPI    C111265  14.160  14.705   6.183 -0.0744 -0.1034  0.1539
  709POPI    C211266  13.922  14.805   5.877  0.0134  0.1650  0.1711
  709POPI    C311267  14.236  14.565   5.816 -0.0956  0.0407  0.0938
  709POPI   PO411268  14.179  14.925   6.308  0.0814  0.0745  0.0775
  709POPI   GL111269  14.213  15.063   6.745 -0.1659  0.1435  0.1165
  709POPI   GL211270  13.907  15.080   6.749 -0.1064  0.4060 -0.1290
  709POPI   C1A11271  14.333  15.046   7.208 -0.4335  0.2040 -0.2334
  709POPI   D2A11272  14.189  15.008   7.637  0.0488  0.1689  0.1058
  709POPI   C3A11273  14.302  15.209   8.003  0.1290  0.0891  0.3450
  709POPI   C4A11274  14.468  15.549   8.208 -0.2993 -0.2231  0.1071
  709POPI   C1B11275  13.863  15.115   7.258  0.1920 -0.0044 -0.0653
  709POPI   C2B11276  13.690  14.964   7.758  0.1500  0.0588 -0.0918
  709POPI   C3B11277  13.582  14.774   8.147  0.0052 -0.4799 -0.0640
  709POPI   C4B11278  13.296  14.999   8.418 -0.0114  0.2164  0.2897
  710POPI    C111279  11.666   5.689   6.204  0.1052  0.1453 -0.1006
  710POPI    C211280  11.382   5.709   5.922  0.2497  0.1414 -0.2476
  710POPI    C311281  11.754   5.595   5.825  0.3365  0.2785 -0.0819
  710POPI   PO411282  11.479   5.791   6.436 -0.0208  0.0251  0.1013
  710POPI   GL111283  11.564   5.956   6.716 -0.1597 -0.1926 -0.0118
  710POPI   GL211284  11.658   5.823   6.983 -0.0910  0.1817 -0.1166
  710POPI   C1A11285  11.252   6.162   7.004  0.0439 -0.4935 -0.2449
  710POPI   D2A11286  11.029   6.248   7.419  0.0154 -0.1499 -0.1109
  710POPI   C3A11287  11.283   6.470   7.758 -0.0077  0.1098 -0.1286
  710POPI   C4A11288  11.569   6.395   8.021  0.0148 -0.0573  0.0003
  710POPI   C1B11289  11.842   5.795   7.279 -0.1208 -0.2900 -0.3527
  710POPI   C2B11290  12.024   5.772   7.635 -0.2081  0.0533  0.1325
  710POPI   C3B11291  11.982   5.467   8.055 -0.2487 -0.0706 -0.2797
  710POPI   C4B11292  12.002   5.502   8.470  0.1577  0.0926  0.0318
  711POPI    C111293   3.996   3.528   5.649 -0.0592 -0.0898 -0.1485
  711POPI    C211294   4.314   3.757   5.566 -0.0755  0.0676  0.2036
  711POPI    C311295   4.340   3.359   5.535  0.0473  0.0971 -0.1099
  711POPI   PO411296   3.928   3.584   6.021  0.1003  0.1849  0.0700
  711POPI   GL111297   4.094   3.524   6.371 -0.0970 -0.2787  0.0526
  711POPI   GL211298   3.801   3.778   6.499 -0.1718 -0.0648  0.1076
  711POPI   C1A11299   4.183   3.428   6.765  0.2693  0.0637 -0.1132
  711POPI   D2A11300   3.854   3.285   6.980 -0.2462 -0.0414 -0.0592
  711POPI   C3A11301   3.681   3.304   7.372  0.1314  0.6024 -0.3539
  711POPI   C4A11302   3.663   3.593   7.780  0.1014 -0.2032  0.0504
  711POPI   C1B11303   3.850   3.870   6.919  0.4115 -0.0764 -0.0784
  711POPI   C2B11304   4.017   4.251   7.242  0.3905 -0.4403 -0.0065
  711POPI   C3B11305   4.107   4.477   7.675  0.4566 -0.0979  0.2931
  711POPI   C4B11306   4.101   4.458   8.125  0.1152 -0.0513 -0.0445
  712POPI    C111307   7.534  13.827   5.952  0.0883  0.1004  0.2668
  712POPI    C211308   7.195  13.632   5.872  0.0235  0.2162  0.2571
  712POPI    C311309   7.546  13.473   5.766 -0.0369  0.1730  0.1184
  712POPI   PO411310   7.436  14.151   6.022  0.0439  0.3067  0.0301
  712POPI   GL111311   7.597  14.432   6.420 -0.0373 -0.0316 -0.2385
  712POPI   GL211312   7.277  14.267   6.588 -0.1201 -0.0296 -0.1402
  712POPI   C1A11313   7.894  14.294   6.847  0.0433 -0.1032 -0.1164
  712POPI   D2A11314   7.876  14.413   7.255  0.0855  0.2105  0.2414
  712POPI   C3A11315   7.758  14.683   7.598 -0.0574  0.1469 -0.0041
  712POPI   C4A11316   8.048  14.799   7.916  0.4376  0.0931  0.0631
  712POPI   C1B11317   7.441  14.076   6.861 -0.1382  0.5152  0.0850
  712POPI   C2B11318   7.624  14.025   7.272 -0.2093  0.0342 -0.1644
  712POPI   C3B11319   7.663  14.072   7.695 -0.0700 -0.0924 -0.0084
  712POPI   C4B11320   7.861  14.309   7.939 -0.2097  0.0895 -0.0786
  713POPI    C111321   2.670  10.351   5.630  0.0005 -0.0942  0.1420
  713POPI    C211322   2.873  10.011   5.575 -0.0955 -0.1635  0.2138
  713POPI    C311323   2.602  10.128   5.305  0.0867 -0.0366  0.0842
  713POPI   PO411324   2.810  10.442   5.816  0.0081 -0.3025  0.0720
  713POPI   GL111325   2.693  10.471   6.359  0.0634 -0.1132 -0.2383
  713POPI   GL211326   2.769  10.800   6.274  0.0346  0.0776  0.1405
  713POPI   C1A11327   2.885  10.512   6.746 -0.1726 -0.3121  0.0183
  713POPI   D2A11328   2.818  10.545   7.183  0.0754  0.3937 -0.2009
  713POPI   C3A11329   3.071  10.660   7.526  0.0332 -0.1549  0.0884
  713POPI   C4A11330   3.272  10.632   7.956 -0.0736 -0.0029 -0.0494
  713POPI   C1B11331   2.836  10.985   6.655  0.1825  0.0166  0.1961
  713POPI   C2B11332   2.742  10.995   7.052  0.0658  0.2794 -0.0408
  713POPI   C3B11333   2.671  10.945   7.435  0.0511 -0.0614 -0.0338
  713POPI   C4B11334   2.520  11.220   7.826  0.2008 -0.1420 -0.4651
  714POPI    C111335  17.141  11.794   5.754 -0.1307  0.0407 -0.1158
  714POPI    C211336  17.411  11.531   5.888 -0.1684  0.0283 -0.0639
  714POPI    C311337  17.352  11.575   5.495 -0.1843 -0.0633 -0.0719
  714POPI   PO411338  17.181  12.005   5.880  0.0401  0.0455 -0.2777
  714POPI   GL111339  17.058  12.071   6.264 -0.0234 -0.0460  0.0828
  714POPI   GL211340  17.086  11.707   6.269  0.0833  0.1874 -0.0491
  714POPI   C1A11341  17.203  12.164   6.706 -0.2616 -0.1836  0.0642
  714POPI   D2A11342  17.379  12.247   7.061  0.0993  0.0352 -0.0005
  714POPI   C3A11343  17.113  12.401   7.421  0.0881  0.0129  0.0982
  714POPI   C4A11344  16.839  12.535   7.711 -0.0023 -0.0195 -0.0488
  714POPI   C1B11345  16.971  11.687   6.696  0.0392 -0.1105  0.2451
  714POPI   C2B11346  17.095  11.685   7.101  0.0910  0.1029 -0.1812
  714POPI   C3B11347  16.820  11.563   7.346  0.0913 -0.1949  0.0911
  714POPI   C4B11348  16.770  11.507   7.826  0.0556  0.1641 -0.2127
  715POPI    C111349   2.419   4.084   5.759  0.0118 -0.0222 -0.1359
  715POPI    C211350   2.044   4.173   5.868  0.1082 -0.0219  0.2053
  715POPI    C311351   2.236   4.405   5.604 -0.1097  0.0117  0.0742
  715POPI   PO411352   2.465   3.914   6.037 -0.1065 -0.2309  0.1684
  715POPI   GL111353   2.194   3.994   6.388 -0.2513  0.0487  0.0013
  715POPI   GL211354   2.318   4.234   6.405 -0.1019  0.1076 -0.0391
  715POPI   C1A11355   2.024   4.005   6.767 -0.2369 -0.2355 -0.0537
  715POPI   D2A11356   2.095   4.191   7.142 -0.1204 -0.0527 -0.0603
  715POPI   C3A11357   2.470   4.339   7.278 -0.2555  0.2404 -0.5526
  715POPI   C4A11358   2.918   4.439   7.275  0.1047  0.2735  0.1109
  715POPI   C1B11359   2.507   4.207   6.797  0.0593 -0.1981 -0.0343
  715POPI   C2B11360   2.810   3.998   7.031  0.0694 -0.1181 -0.0669
  715POPI   C3B11361   2.811   3.963   7.525 -0.3124 -0.0300  0.1991
  715POPI   C4B11362   2.755   3.953   7.907  0.2667 -0.0281 -0.0448
  716POPI    C111363   9.641  14.289   5.741  0.0348 -0.0739  0.1040
  716POPI    C211364   9.908  14.424   5.475 -0.1463 -0.0422 -0.0632
  716POPI    C311365   9.584  14.642   5.563 -0.2189 -0.1704 -0.0096
  716POPI   PO411366   9.798  14.059   5.925 -0.1075  0.1191 -0.2453
  716POPI   GL111367   9.734  13.695   6.230  0.0134 -0.1696 -0.1402
  716POPI   GL211368   9.876  13.374   6.092  0.1432  0.1803 -0.0659
  716POPI   C1A11369   9.815  13.681   6.591  0.2259 -0.1754  0.0588
  716POPI   D2A11370   9.774  13.852   7.023 -0.1926 -0.3459 -0.1186
  716POPI   C3A11371  10.031  13.563   7.295 -0.2895 -0.0885  0.0973
  716POPI   C4A11372  10.043  13.607   7.764  0.0126  0.3385 -0.0144
  716POPI   C1B11373   9.925  13.184   6.484  0.0906 -0.0337  0.2588
  716POPI   C2B11374   9.865  13.306   6.915 -0.0206 -0.0241  0.3046
  716POPI   C3B11375   9.704  13.101   7.247 -0.3374 -0.2092 -0.0573
  716POPI   C4B11376   9.811  13.160   7.687  0.0471  0.0266 -0.1506
  717POPI    C111377   7.902  10.553   6.243  0.0163 -0.0755 -0.2334
  717POPI    C211378   7.604  10.678   6.007  0.0478  0.1357 -0.1632
  717POPI    C311379   7.816  10.354   5.906 -0.2064 -0.0190 -0.2116
  717POPI   PO411380   7.977  10.812   6.343 -0.2636 -0.1385  0.0952
  717POPI   GL111381   8.087  10.896   6.680 -0.0029 -0.0976  0.0038
  717POPI   GL211382   8.339  11.150   6.649 -0.0910  0.1910  0.1595
  717POPI   C1A11383   8.156  10.808   7.096 -0.0160 -0.2454 -0.2299
  717POPI   D2A11384   8.034  10.645   7.508 -0.0620 -0.0633  0.1204
  717POPI   C3A11385   8.257  10.702   7.887  0.0847 -0.1787 -0.1868
  717POPI   C4A11386   8.353  11.051   8.223  0.1059  0.2336 -0.3453
  717POPI   C1B11387   8.484  11.183   7.041  0.2171  0.1031  0.1165
  717POPI   C2B11388   8.760  11.329   7.239 -0.0335 -0.0868 -0.1809
  717POPI   C3B11389   8.960  11.588   7.512 -0.2589  0.1943  0.3350
  717POPI   C4B11390   9.223  11.672   7.765 -0.2313 -0.2436  0.1666
  718POPI    C111391  15.286  11.237   5.824  0.1146  0.2203 -0.0675
  718POPI    C211392  15.277  11.520   5.541  0.1299  0.2074 -0.0809
  718POPI    C311393  15.624  11.346   5.640  0.1254  0.2154 -0.0507
  718POPI   PO411394  15.263  11.410   6.092 -0.0967 -0.0997 -0.0991
  718POPI   GL111395  14.993  11.479   6.433  0.3600  0.0384  0.2622
  718POPI   GL211396  14.646  11.400   6.564  0.3292  0.0224 -0.2512
  718POPI   C1A11397  14.999  11.608   6.866 -0.2173 -0.2404 -0.1932
  718POPI   D2A11398  14.790  11.573   7.291 -0.3319 -0.2117 -0.1047
  718POPI   C3A11399  15.102  11.582   7.574 -0.0637 -0.0424 -0.1262
  718POPI   C4A11400  15.277  11.275   7.864 -0.0191  0.0267  0.2128
  718POPI   C1B11401  14.631  10.944   6.653  0.2406  0.1893  0.3294
  718POPI   C2B11402  14.432  10.899   7.100 -0.0513 -0.0342 -0.2304
  718POPI   C3B11403  14.545  10.877   7.555 -0.1551  0.1817 -0.0192
  718POPI   C4B11404  14.643  10.739   7.959 -0.0761 -0.4641 -0.0423
  719POPI    C111405  12.570   6.707   6.282 -0.0935  0.4230 -0.3002
  719POPI    C211406  12.966   6.695   6.231 -0.0754  0.0533 -0.1090
  719POPI    C311407  12.723   6.605   5.927 -0.0070 -0.0272 -0.1402
  719POPI   PO411408  12.531   6.932   6.357  0.0522 -0.0170  0.1212
  719POPI   GL111409  12.772   7.270   6.526 -0.0882  0.2839  0.1784
  719POPI   GL211410  13.113   7.170   6.405 -0.1574 -0.0126  0.0474
  719POPI   C1A11411  13.047   7.328   6.874  0.0430 -0.0811  0.1157
  719POPI   D2A11412  13.482   7.283   6.905 -0.0705  0.1695 -0.2374
  719POPI   C3A11413  13.599   6.933   7.214 -0.3040 -0.2847  0.0489
  719POPI   C4A11414  13.746   6.777   7.717  0.0500  0.1253 -0.1095
  719POPI   C1B11415  13.256   6.844   6.728  0.2600  0.1892  0.0021
  719POPI   C2B11416  13.581   6.707   6.799 -0.1200  0.1429 -0.1408
  719POPI   C3B11417  13.970   6.650   7.079  0.0005 -0.5875 -0.2316
  719POPI   C4B11418  14.320   6.792   7.451  0.0667 -0.0629  0.2431
  720POPI    C111419  10.635  13.747   5.783 -0.0855 -0.0381 -0.2771
  720POPI    C211420  10.872  13.539   5.537  0.1307  0.0253 -0.1259
  720POPI    C311421  10.475  13.532   5.486  0.1553 -0.1805 -0.3064
  720POPI   PO411422  10.706  13.727   6.087  0.0272 -0.1060  0.1976
  720POPI   GL111423  10.474  13.703   6.456 -0.2154 -0.1932  0.0477
  720POPI   GL211424  10.353  13.410   6.315  0.0703 -0.1893  0.0167
  720POPI   C1A11425  10.348  13.570   6.894  0.2708  0.1484  0.2153
  720POPI   D2A11426  10.564  13.524   7.320 -0.1913 -0.1306 -0.0150
  720POPI   C3A11427  10.552  13.430   7.822  0.0030 -0.2026 -0.0697
  720POPI   C4A11428  10.776  13.680   8.072  0.1152  0.2422 -0.1234
  720POPI   C1B11429  10.343  13.099   6.717 -0.0698 -0.0164 -0.1210
  720POPI   C2B11430  10.286  13.084   7.147 -0.2675  0.2340 -0.3404
  720POPI   C3B11431  10.321  13.144   7.528  0.1374 -0.3608  0.0583
  720POPI   C4B11432  10.625  12.945   7.894  0.0357  0.0211  0.2457
  721POPI    C111433   1.370   5.347   5.424  0.2130  0.0263 -0.0012
  721POPI    C211434   1.181   5.697   5.466 -0.1373 -0.1786  0.1705
  721POPI    C311435   1.145   5.491   5.126  0.2913  0.0755 -0.0371
  721POPI   PO411436   1.449   5.361   5.737 -0.1913  0.0988  0.0365
  721POPI   GL111437   1.406   5.179   6.201 -0.1469  0.0526 -0.2255
  721POPI   GL211438   1.623   5.315   6.467 -0.1500  0.0517  0.1463
  721POPI   C1A11439   1.114   4.910   6.329  0.0339  0.0786 -0.1601
  721POPI   D2A11440   1.005   4.599   6.471  0.0600 -0.2908  0.2590
  721POPI   C3A11441   1.186   4.351   6.800  0.0169  0.1271  0.1833
  721POPI   C4A11442   1.142   4.076   7.123 -0.1235 -0.3229 -0.3118
  721POPI   C1B11443   1.555   5.473   6.871 -0.1078 -0.0462  0.1439
  721POPI   C2B11444   1.683   5.421   7.260  0.0126 -0.0726 -0.0297
  721POPI   C3B11445   1.890   5.089   7.607 -0.3134 -0.2445 -0.0001
  721POPI   C4B11446   2.146   4.858   7.867  0.0739  0.1980 -0.0959
  722POPI    C111447  14.525   5.978   5.684  0.0762 -0.0571 -0.4281
  722POPI    C211448  14.893   5.902   5.548  0.1859 -0.2123 -0.0576
  722POPI    C311449  14.614   5.616   5.540  0.1979 -0.2278  0.0559
  722POPI   PO411450  14.642   6.130   5.954 -0.3051  0.0193 -0.2000
  722POPI   GL111451  15.051   6.156   6.222  0.1725  0.2423  0.2316
  722POPI   GL211452  14.932   6.493   6.218 -0.2216 -0.0260 -0.1284
  722POPI   C1A11453  15.316   6.002   6.593 -0.2502  0.1403 -0.3480
  722POPI   D2A11454  15.410   6.087   7.013 -0.2544 -0.1794 -0.0601
  722POPI   C3A11455  15.620   5.890   7.318 -0.0367 -0.0012 -0.0341
  722POPI   C4A11456  16.075   5.779   7.242  0.2989 -0.0263  0.2226
  722POPI   C1B11457  14.963   6.426   6.630  0.4407  0.0054 -0.2846
  722POPI   C2B11458  15.049   6.429   7.067 -0.1766  0.0285  0.0535
  722POPI   C3B11459  15.111   6.363   7.463 -0.3361  0.2392  0.3926
  722POPI   C4B11460  15.106   5.942   7.642 -0.2633  0.2660 -0.2479
  723POPI    C111461  10.515  10.429   5.864  0.0211  0.1202 -0.1194
  723POPI    C211462  10.206  10.678   5.916  0.0758  0.1918 -0.1350
  723POPI    C311463  10.142  10.300   5.799 -0.0263  0.1224  0.1375
  723POPI   PO411464  10.728  10.486   5.918  0.0842 -0.0770  0.1152
  723POPI   GL111465  11.048  10.726   6.320 -0.1920  0.0041 -0.1728
  723POPI   GL211466  10.941  10.391   6.393 -0.0978 -0.2070 -0.0411
  723POPI   C1A11467  10.949  10.725   6.751 -0.0693  0.0335  0.0350
  723POPI   D2A11468  10.763  10.863   7.134  0.1276 -0.0182 -0.2205
  723POPI   C3A11469  10.743  10.708   7.521  0.0189  0.3506  0.0169
  723POPI   C4A11470  11.081  10.535   7.705 -0.0649 -0.0278  0.2080
  723POPI   C1B11471  10.795  10.245   6.822  0.1854 -0.3092  0.0404
  723POPI   C2B11472  10.680  10.088   7.338 -0.1236  0.1156  0.0544
  723POPI   C3B11473  10.808  10.155   7.785  0.0680 -0.0217  0.0057
  723POPI   C4B11474  10.575  10.452   8.080  0.0884  0.0393  0.3822
  724POPI    C111475   4.846   7.702   5.910  0.0865 -0.0812 -0.0537
  724POPI    C211476   4.945   7.984   5.643 -0.1514  0.1553  0.1029
  724POPI    C311477   4.942   7.598   5.535  0.0768  0.2195 -0.1420
  724POPI   PO411478   4.760   7.896   6.184  0.0098 -0.1519  0.1360
  724POPI   GL111479   4.715   7.866   6.584 -0.0755  0.0289  0.1313
  724POPI   GL211480   5.009   7.969   6.636 -0.1083  0.0961  0.0659
  724POPI   C1A11481   4.320   7.825   6.942 -0.1162  0.1848  0.1368
  724POPI   D2A11482   4.151   7.910   7.263  0.0103  0.0078 -0.3401
  724POPI   C3A11483   4.384   8.017   7.626  0.0081  0.2787  0.1966
  724POPI   C4A11484   4.426   8.100   8.054  0.0807 -0.3017  0.1488
  724POPI   C1B11485   4.795   8.106   7.002 -0.1225  0.0521 -0.0003
  724POPI   C2B11486   4.603   8.349   7.295  0.2612  0.2779 -0.0209
  724POPI   C3B11487   4.529   8.530   7.770  0.2215  0.2134 -0.0703
  724POPI   C4B11488   4.511   8.639   8.191 -0.0524  0.2116 -0.0145
  725POPI    C111489  17.883   0.040   5.786 -0.0371  0.0226  0.0869
  725POPI    C211490  17.977  -0.348   5.751  0.2667  0.0940  0.0910
  725POPI    C311491  17.683  -0.193   5.529  0.1226 -0.1447  0.1123
  725POPI   PO411492  17.927   0.168   5.986 -0.1427 -0.1039 -0.3306
  725POPI   GL111493  18.217   0.439   6.146  0.3020 -0.0100 -0.3001
  725POPI   GL211494  17.921   0.456   6.366 -0.1855 -0.0261 -0.1076
  725POPI   C1A11495  18.372   0.314   6.598  0.1132  0.1204 -0.0094
  725POPI   D2A11496  18.619   0.624   6.830  0.2295  0.0939  0.0512
  725POPI   C3A11497  18.653   0.688   7.248 -0.0183 -0.0731 -0.0580
  725POPI   C4A11498  18.407   0.759   7.651 -0.3902 -0.0744 -0.1752
  725POPI   C1B11499  18.114   0.689   6.816  0.2773 -0.1378  0.0384
  725POPI   C2B11500  18.255   0.938   7.173  0.1258  0.0027 -0.0202
  725POPI   C3B11501  18.090   1.193   7.477 -0.1501  0.1329 -0.1234
  725POPI   C4B11502  18.057   1.521   7.815 -0.0121  0.3291 -0.0683
  726POPI    C111503  17.260  14.806   5.918  0.0223  0.0706 -0.1806
  726POPI    C211504  16.874  14.705   5.879  0.0245 -0.1735  0.3452
  726POPI    C311505  16.995  15.074   5.783 -0.2969 -0.1576 -0.0226
  726POPI   PO411506  17.331  14.634   6.217 -0.1240  0.0084  0.2415
  726POPI   GL111507  17.408  14.883   6.625  0.0051  0.0030  0.0498
  726POPI   GL211508  17.148  14.779   6.750  0.4008 -0.1670  0.2008
  726POPI   C1A11509  17.273  15.277   6.850 -0.0736  0.2288  0.2269
  726POPI   D2A11510  17.259  15.699   6.998  0.0047  0.3192 -0.0474
  726POPI   C3A11511  17.520  15.878   6.746 -0.0347 -0.1115  0.0733
  726POPI   C4A11512  17.503  16.247   6.483 -0.2673  0.1699  0.0860
  726POPI   C1B11513  16.994  14.786   7.155  0.2347 -0.1621 -0.0461
  726POPI   C2B11514  16.836  14.754   7.579 -0.0056 -0.1515  0.1956
  726POPI   C3B11515  16.983  14.837   8.019  0.1297 -0.0954 -0.2052
  726POPI   C4B11516  17.163  14.894   8.377 -0.1044 -0.2178 -0.2013
  727POPI    C111517  11.565   2.053   5.773  0.0246  0.2635 -0.0803
  727POPI    C211518  11.405   1.962   5.418  0.0265 -0.1566  0.0208
  727POPI    C311519  11.180   2.133   5.701 -0.0663 -0.1371 -0.0642
  727POPI   PO411520  11.699   1.807   5.913  0.1094 -0.0152  0.1080
  727POPI   GL111521  11.742   1.856   6.268 -0.1546  0.2009  0.0803
  727POPI   GL211522  11.867   2.035   6.494  0.1160  0.0638 -0.0243
  727POPI   C1A11523  11.488   1.777   6.717 -0.2063  0.1853 -0.0351
  727POPI   D2A11524  11.400   1.920   7.115  0.0360  0.0282 -0.1340
  727POPI   C3A11525  11.058   1.753   7.515  0.2585 -0.0152  0.0641
  727POPI   C4A11526  10.845   1.699   7.920  0.1919  0.1700  0.1417
  727POPI   C1B11527  11.845   2.101   6.907  0.2495  0.2110 -0.0699
  727POPI   C2B11528  12.019   2.172   7.307  0.3289  0.0308  0.4436
  727POPI   C3B11529  12.288   2.287   7.709 -0.1491 -0.1044  0.0960
  727POPI   C4B11530  12.238   2.251   8.166 -0.3371  0.2574 -0.1801
  728POPI    C111531  12.353   5.003   6.014  0.1894 -0.1030  0.0017
  728POPI    C211532  12.029   5.052   5.785 -0.0402 -0.2991  0.2773
  728POPI    C311533  12.333   4.825   5.657 -0.0076 -0.1122  0.0163
  728POPI   PO411534  12.223   4.970   6.298  0.2390 -0.0485  0.2052
  728POPI   GL111535  11.963   4.684   6.411  0.2956  0.1226 -0.5544
  728POPI   GL211536  12.037   4.929   6.745  0.0602  0.1715  0.0456
  728POPI   C1A11537  12.010   4.464   6.826 -0.1483 -0.0765  0.3523
  728POPI   D2A11538  11.887   4.138   7.091  0.0415  0.0869  0.0214
  728POPI   C3A11539  12.139   3.995   7.435  0.1583 -0.3329  0.0650
  728POPI   C4A11540  12.182   3.644   7.763 -0.1322 -0.1510 -0.0116
  728POPI   C1B11541  12.064   4.848   7.173  0.2126 -0.0591 -0.1023
  728POPI   C2B11542  11.923   4.485   7.433 -0.2642 -0.1605 -0.1593
  728POPI   C3B11543  12.002   4.282   7.880 -0.0181  0.0094  0.2738
  728POPI   C4B11544  12.167   3.980   8.137  0.0576 -0.2592  0.4497
  729POPI    C111545  15.991   1.521   5.705 -0.0299 -0.1921 -0.1867
  729POPI    C211546  15.932   1.136   5.613  0.1834 -0.2451 -0.1067
  729POPI    C311547  16.304   1.282   5.635  0.1054 -0.0464 -0.0862
  729POPI   PO411548  15.873   1.620   5.879 -0.0836  0.1512 -0.1044
  729POPI   GL111549  15.673   1.582   6.286  0.0485 -0.1286  0.0492
  729POPI   GL211550  15.825   1.558   6.570  0.1538  0.3444 -0.1522
  729POPI   C1A11551  15.522   1.957   6.595  0.0391 -0.2902 -0.2051
  729POPI   D2A11552  15.593   2.343   6.709 -0.0695 -0.0333  0.0148
  729POPI   C3A11553  15.823   2.512   7.015 -0.1452  0.0728 -0.0299
  729POPI   C4A11554  15.978   2.485   7.480  0.0840 -0.0054  0.0736
  729POPI   C1B11555  16.015   1.424   6.990  0.1473  0.1141 -0.0067
  729POPI   C2B11556  15.924   1.559   7.440 -0.0324 -0.3181 -0.0696
  729POPI   C3B11557  15.896   1.625   7.891 -0.0852  0.0997 -0.2210
  729POPI   C4B11558  15.849   2.001   8.178  0.0636 -0.2468  0.0528
  730POPI    C111559   8.320   2.367   5.650  0.0321 -0.1154 -0.0445
  730POPI    C211560   8.699   2.457   5.739 -0.0299  0.0905  0.0157
  730POPI    C311561   8.551   2.549   5.379  0.0734 -0.2913 -0.1294
  730POPI   PO411562   8.189   2.420   5.946  0.1449 -0.1496  0.0716
  730POPI   GL111563   8.377   2.505   6.328  0.0828  0.0833  0.1163
  730POPI   GL211564   8.305   2.144   6.323 -0.3001  0.2376  0.0036
  730POPI   C1A11565   8.288   2.404   6.782 -0.1213  0.2103  0.0349
  730POPI   D2A11566   8.360   2.435   7.204  0.1357  0.0969  0.1923
  730POPI   C3A11567   8.137   2.713   7.541 -0.1736  0.0705  0.0463
  730POPI   C4A11568   7.978   2.896   7.961  0.0726 -0.1028 -0.1992
  730POPI   C1B11569   8.249   1.924   6.652  0.0647  0.1359 -0.0735
  730POPI   C2B11570   8.236   1.969   7.099  0.0205 -0.0360  0.1085
  730POPI   C3B11571   8.144   2.078   7.474  0.0286  0.1238 -0.1098
  730POPI   C4B11572   8.163   2.336   7.902  0.0770  0.0550  0.0182
  731POPI    C111573  11.283   6.189   6.078 -0.0548  0.0564 -0.0592
  731POPI    C211574  11.053   6.510   6.012 -0.0051  0.1300  0.1199
  731POPI    C311575  11.370   6.440   5.779 -0.0801  0.1497  0.0111
  731POPI   PO411576  11.212   6.149   6.309 -0.1125 -0.0069 -0.0412
  731POPI   GL111577  10.934   6.228   6.638 -0.2216  0.0872  0.0923
  731POPI   GL211578  10.969   6.545   6.513  0.0934  0.0467 -0.1823
  731POPI   C1A11579  10.683   6.078   6.984 -0.0294 -0.0185  0.2163
  731POPI   D2A11580  10.640   5.961   7.375 -0.3359  0.4828  0.3855
  731POPI   C3A11581  10.282   5.955   7.578 -0.1004 -0.0503  0.0905
  731POPI   C4A11582   9.819   5.980   7.740 -0.1092  0.2215  0.0194
  731POPI   C1B11583  10.886   6.592   6.934  0.1018 -0.0243  0.1324
  731POPI   C2B11584  10.934   6.761   7.407 -0.4054  0.0321 -0.3404
  731POPI   C3B11585  10.861   7.182   7.631 -0.0765  0.0514 -0.0330
  731POPI   C4B11586  11.030   7.448   7.976  0.0486 -0.0805  0.3708
  732POPI    C111587  14.384  14.040   6.120 -0.0140 -0.0831 -0.2799
  732POPI    C211588  14.681  13.816   6.268 -0.0039  0.0619 -0.0761
  732POPI    C311589  14.547  13.751   5.896 -0.0033 -0.2832 -0.0190
  732POPI   PO411590  14.531  14.332   6.156 -0.2429  0.1842 -0.0175
  732POPI   GL111591  14.366  14.440   6.589 -0.0596 -0.0194  0.2326
  732POPI   GL211592  14.575  14.713   6.561 -0.0426 -0.4160 -0.0651
  732POPI   C1A11593  14.334  14.229   6.979 -0.0980 -0.0889  0.3382
  732POPI   D2A11594  14.369  14.130   7.471  0.0883  0.0271  0.2610
  732POPI   C3A11595  14.626  14.136   7.860 -0.0987  0.0313  0.3969
  732POPI   C4A11596  14.513  13.968   8.322  0.0912  0.3499 -0.2896
  732POPI   C1B11597  14.538  14.676   6.986 -0.0761 -0.2360 -0.0698
  732POPI   C2B11598  14.524  14.574   7.381  0.1517 -0.6596  0.0611
  732POPI   C3B11599  14.315  14.558   7.826 -0.0633  0.0521  0.0076
  732POPI   C4B11600  14.134  14.219   8.068  0.0103 -0.1162  0.0997
  733POPI    C111601  16.917  15.987   5.620 -0.0364  0.0260  0.0311
  733POPI    C211602  17.169  16.274   5.499  0.0277 -0.0221  0.0493
  733POPI    C311603  17.074  15.974   5.252 -0.1771  0.1083 -0.0323
  733POPI   PO411604  16.966  16.019   5.892  0.0872 -0.4052 -0.3237
  733POPI   GL111605  16.962  15.962   6.331 -0.3921 -0.3070  0.0778
  733POPI   GL211606  16.634  16.012   6.549 -0.0124 -0.1142  0.0419
  733POPI   C1A11607  17.026  16.118   6.778 -0.0562 -0.2571 -0.0906
  733POPI   D2A11608  16.915  16.385   7.010  0.3223 -0.0201  0.1610
  733POPI   C3A11609  17.105  16.094   7.345 -0.1991 -0.3646 -0.2288
  733POPI   C4A11610  17.139  15.656   7.525 -0.0127  0.1444 -0.1434
  733POPI   C1B11611  16.320  16.252   6.844  0.0666  0.0289  0.3490
  733POPI   C2B11612  16.383  16.517   7.262  0.0911 -0.0152  0.0962
  733POPI   C3B11613  16.188  16.710   7.629 -0.1872  0.1550 -0.0448
  733POPI   C4B11614  16.250  16.729   8.078  0.2500 -0.0836  0.0474
  734POPI    C111615   6.065  14.473   5.943  0.1504 -0.0471  0.1542
  734POPI    C211616   6.059  14.782   5.689  0.2282 -0.0132  0.1931
  734POPI    C311617   6.216  14.432   5.575 -0.0910 -0.1172  0.0611
  734POPI   PO411618   5.772  14.472   6.065  0.1747 -0.0862  0.2170
  734POPI   GL111619   5.793  14.575   6.516  0.0372 -0.1431 -0.0933
  734POPI   GL211620   5.402  14.448   6.441 -0.3211 -0.1731 -0.1590
  734POPI   C1A11621   5.894  14.687   7.018 -0.0243  0.1096  0.1110
  734POPI   D2A11622   5.911  14.922   7.317 -0.0983  0.1708  0.0188
  734POPI   C3A11623   6.123  15.277   7.521  0.0396 -0.2574  0.0623
  734POPI   C4A11624   6.321  15.614   7.778 -0.0265  0.1739 -0.2496
  734POPI   C1B11625   5.371  14.592   6.804  0.3798  0.1479 -0.5225
  734POPI   C2B11626   5.058  14.950   7.114 -0.1169  0.0859 -0.1377
  734POPI   C3B11627   4.909  15.085   7.444 -0.0224 -0.0094 -0.0520
  734POPI   C4B11628   4.673  15.045   7.776 -0.0918 -0.1887  0.0717
  735POPI    C111629  17.758   7.759   5.718  0.1699  0.0288  0.2410
  735POPI    C211630  17.885   7.411   5.566 -0.2193  0.0814 -0.2281
  735POPI    C311631  18.100   7.744   5.512  0.2253 -0.0968  0.3400
  735POPI   PO411632  17.590   7.653   5.869  0.0819 -0.1783 -0.0993
  735POPI   GL111633  17.420   7.608   6.235 -0.2372  0.1540  0.0884
  735POPI   GL211634  17.143   7.826   6.383 -0.2324  0.0849 -0.0515
  735POPI   C1A11635  17.631   7.753   6.615 -0.0232  0.1896  0.0388
  735POPI   D2A11636  17.654   7.688   7.020 -0.0229 -0.3107 -0.1183
  735POPI   C3A11637  17.299   7.611   7.178 -0.0042  0.2070  0.0852
  735POPI   C4A11638  17.225   7.422   7.556  0.1426 -0.1488 -0.0025
  735POPI   C1B11639  17.347   8.142   6.751  0.1583 -0.1071 -0.0783
  735POPI   C2B11640  17.317   8.105   7.142  0.0487 -0.2807  0.1933
  735POPI   C3B11641  17.525   7.920   7.475  0.1209 -0.4505  0.0132
  735POPI   C4B11642  17.987   8.205   7.656 -0.0396  0.0891  0.1681
  736POPI    C111643   7.198  15.125   6.078  0.0192 -0.4603 -0.0392
  736POPI    C211644   7.119  15.290   5.723  0.0480 -0.1051  0.1158
  736POPI    C311645   6.969  14.931   5.813 -0.1720 -0.0850 -0.1561
  736POPI   PO411646   7.519  15.155   6.032  0.2521  0.2165 -0.0515
  736POPI   GL111647   7.684  15.521   6.204  0.1144 -0.4735  0.1515
  736POPI   GL211648   7.661  15.375   6.468  0.0158 -0.1227 -0.2755
  736POPI   C1A11649   7.463  15.811   6.435  0.0943 -0.0921  0.2379
  736POPI   D2A11650   7.384  16.004   6.831 -0.2262  0.1904 -0.0732
  736POPI   C3A11651   7.392  16.028   7.252  0.1417 -0.1653 -0.2348
  736POPI   C4A11652   7.254  16.037   7.716 -0.1210  0.1586  0.0792
  736POPI   C1B11653   7.620  15.202   6.806 -0.3377 -0.0136 -0.1091
  736POPI   C2B11654   7.497  15.183   7.154 -0.0702  0.1141 -0.0649
  736POPI   C3B11655   7.469  15.050   7.606 -0.2877 -0.0380  0.0844
  736POPI   C4B11656   7.544  14.983   7.988 -0.0773  0.0129 -0.0493
  737POPI    C111657  15.242  10.697   5.705 -0.2319 -0.0413  0.1952
  737POPI    C211658  14.902  10.907   5.684 -0.2619 -0.1096 -0.0356
  737POPI    C311659  14.953  10.585   5.452 -0.0627 -0.1346  0.0402
  737POPI   PO411660  15.172  10.684   6.055 -0.0681  0.0220  0.2467
  737POPI   GL111661  15.240  10.918   6.390  0.0565  0.1011  0.0280
  737POPI   GL211662  15.520  11.127   6.366  0.1282  0.0732 -0.0540
  737POPI   C1A11663  15.161  11.170   6.767 -0.1591  0.4693  0.4003
  737POPI   D2A11664  14.931  11.127   7.010 -0.1843  0.0128  0.0396
  737POPI   C3A11665  14.970  11.123   7.429 -0.0498  0.4361 -0.1924
  737POPI   C4A11666  14.708  11.275   7.785 -0.2368  0.3431  0.0146
  737POPI   C1B11667  15.717  11.204   6.714  0.1436 -0.0523 -0.0053
  737POPI   C2B11668  15.840  11.281   7.100 -0.0819 -0.4348 -0.0107
  737POPI   C3B11669  16.061  11.041   7.431 -0.0308  0.3509  0.1987
  737POPI   C4B11670  16.161  10.822   7.742  0.1050 -0.1063  0.1489
  738POPI    C111671  11.641  12.898   5.842  0.0915 -0.0563 -0.0068
  738POPI    C211672  11.640  13.181   5.559  0.1382  0.0768  0.1249
  738POPI    C311673  11.677  12.796   5.457 -0.0967  0.1036 -0.0684
  738POPI   PO411674  11.501  13.144   6.036  0.1776 -0.0463 -0.1807
  738POPI   GL111675  11.150  13.209   6.369  0.0667  0.2198  0.1327
  738POPI   GL211676  11.010  13.547   6.398  0.1525 -0.1389  0.0832
  738POPI   C1A11677  11.340  13.229   6.731  0.2738 -0.1923  0.1407
  738POPI   D2A11678  11.433  13.158   7.128 -0.1868  0.0631 -0.1120
  738POPI   C3A11679  11.777  13.344   7.335 -0.1951  0.1840 -0.2071
  738POPI   C4A11680  12.129  13.314   7.630 -0.2893 -0.2206 -0.0906
  738POPI   C1B11681  11.239  13.774   6.708 -0.0972  0.0986  0.1113
  738POPI   C2B11682  11.401  13.666   7.107  0.0923  0.1130  0.0718
  738POPI   C3B11683  11.430  13.636   7.530 -0.1939 -0.0885 -0.1285
  738POPI   C4B11684  11.323  13.807   7.902  0.0938  0.2955  0.2244
  739POPI    C111685  13.806   3.042   5.842 -0.0076 -0.0620 -0.0177
  739POPI    C211686  13.450   3.068   5.663  0.0325  0.1294 -0.0718
  739POPI    C311687  13.742   2.853   5.495 -0.0793 -0.0893  0.0103
  739POPI   PO411688  13.794   3.191   6.062 -0.0900  0.1107  0.1791
  739POPI   GL111689  13.906   3.408   6.393 -0.1120  0.1995 -0.2903
  739POPI   GL211690  13.797   3.732   6.261  0.4237 -0.2990  0.1836
  739POPI   C1A11691  13.946   3.176   6.871 -0.0987 -0.2701  0.0174
  739POPI   D2A11692  13.880   3.157   7.360  0.1446 -0.0899  0.0598
  739POPI   C3A11693  13.900   2.825   7.658  0.1826  0.0650  0.0234
  739POPI   C4A11694  14.307   2.712   8.081  0.2138  0.3299  0.4106
  739POPI   C1B11695  13.757   3.818   6.694  0.1833  0.0650 -0.3772
  739POPI   C2B11696  13.749   3.553   7.099  0.0185  0.0501  0.0322
  739POPI   C3B11697  13.678   3.618   7.448 -0.1743  0.1622 -0.3972
  739POPI   C4B11698  14.080   3.593   7.656 -0.2287 -0.1332 -0.1474
  740POPI    C111699  13.161  12.371   5.889  0.0754 -0.0527 -0.0146
  740POPI    C211700  13.130  12.747   5.756 -0.1182 -0.0713 -0.0251
  740POPI    C311701  12.891  12.463   5.609  0.0501 -0.2063 -0.0414
  740POPI   PO411702  13.067  12.402   6.158 -0.0024 -0.0111 -0.2598
  740POPI   GL111703  13.079  12.595   6.554 -0.0690 -0.1160 -0.1270
  740POPI   GL211704  12.908  12.824   6.370  0.1256  0.1277 -0.2592
  740POPI   C1A11705  13.013  12.829   6.915  0.4276 -0.0776  0.0880
  740POPI   D2A11706  12.932  12.844   7.415  0.0467  0.1710  0.0409
  740POPI   C3A11707  12.532  13.016   7.680 -0.0640 -0.4054 -0.1032
  740POPI   C4A11708  12.321  12.815   7.933  0.2212  0.1749  0.0555
  740POPI   C1B11709  12.570  12.721   6.625  0.0934  0.0040  0.1430
  740POPI   C2B11710  12.585  12.567   7.049 -0.1855 -0.0400  0.1696
  740POPI   C3B11711  12.504  12.518   7.513 -0.1057  0.0823  0.2041
  740POPI   C4B11712  12.761  12.596   7.888  0.2303  0.3776 -0.2508
  741POPI    C111713  14.568   6.596   5.749 -0.0686  0.0144  0.0058
  741POPI    C211714  14.355   6.785   5.468 -0.1726 -0.0951  0.0099
  741POPI    C311715  14.241   6.803   5.851  0.1643  0.3441  0.0974
  741POPI   PO411716  14.863   6.683   5.758  0.2444 -0.0745 -0.0042
  741POPI   GL111717  14.947   7.004   6.096  0.2798 -0.0627  0.0556
  741POPI   GL211718  14.723   7.100   6.151  0.2915  0.3242 -0.0762
  741POPI   C1A11719  15.170   7.215   6.373 -0.1937  0.1480 -0.1918
  741POPI   D2A11720  15.239   7.098   6.814  0.2416 -0.1291 -0.1213
  741POPI   C3A11721  15.256   6.873   7.063 -0.3522  0.0929 -0.1924
  741POPI   C4A11722  15.496   6.936   7.562 -0.0058 -0.2198 -0.3604
  741POPI   C1B11723  14.795   6.904   6.573  0.1861 -0.2080  0.1176
  741POPI   C2B11724  14.498   6.520   6.719 -0.1986  0.0227 -0.4818
  741POPI   C3B11725  14.441   6.441   7.132  0.2592  0.1764 -0.0135
  741POPI   C4B11726  14.642   6.421   7.479  0.2267 -0.0761  0.3083
  742POPI    C111727   7.088   5.541   6.298  0.1393  0.0290 -0.3475
  742POPI    C211728   7.113   5.142   6.279  0.3652  0.0366 -0.2418
  742POPI    C311729   6.876   5.340   6.024 -0.0916 -0.1964 -0.0108
  742POPI   PO411730   7.333   5.657   6.292 -0.2087  0.1188 -0.1171
  742POPI   GL111731   7.502   5.688   6.744 -0.0264  0.0281 -0.0988
  742POPI   GL211732   7.313   5.978   6.685  0.0941  0.1236  0.0625
  742POPI   C1A11733   7.384   5.727   7.178  0.0316  0.0046  0.0537
  742POPI   D2A11734   7.187   5.601   7.497  0.1586  0.2226 -0.0198
  742POPI   C3A11735   7.120   5.566   7.914 -0.1108 -0.0616  0.1596
  742POPI   C4A11736   7.094   5.228   8.103  0.2353  0.0964  0.0471
  742POPI   C1B11737   7.073   6.137   7.078 -0.1406 -0.1825  0.3039
  742POPI   C2B11738   6.838   5.970   7.392  0.5110 -0.1268  0.0629
  742POPI   C3B11739   6.819   5.912   7.755  0.0883  0.0312  0.3007
  742POPI   C4B11740   6.726   5.676   8.145 -0.0064  0.1229 -0.1492
  743POPI    C111741  11.895   2.526   5.641 -0.0177 -0.1026 -0.0747
  743POPI    C211742  11.791   2.863   5.451  0.2210  0.0124 -0.0060
  743POPI    C311743  11.864   2.529   5.242 -0.0727 -0.0146 -0.0700
  743POPI   PO411744  12.117   2.565   5.748 -0.1203 -0.1038 -0.0169
  743POPI   GL111745  12.175   2.764   6.119 -0.0739 -0.0178  0.0516
  743POPI   GL211746  12.350   2.519   6.241 -0.0990 -0.0593  0.1031
  743POPI   C1A11747  12.191   2.926   6.552  0.0006  0.3986 -0.3025
  743POPI   D2A11748  12.511   2.953   6.789 -0.2089 -0.0198  0.1277
  743POPI   C3A11749  13.010   3.032   6.784 -0.0071  0.0750  0.0478
  743POPI   C4A11750  13.215   2.751   7.015  0.6094 -0.2275 -0.3525
  743POPI   C1B11751  12.194   2.394   6.631  0.1429 -0.1031  0.3281
  743POPI   C2B11752  12.204   2.562   7.031 -0.1650  0.0098 -0.0993
  743POPI   C3B11753  12.011   2.642   7.409 -0.0319  0.1375  0.0336
  743POPI   C4B11754  11.781   2.399   7.824 -0.1795 -0.0215 -0.2055
  744POPS   CNO11755   6.067   3.670   6.122 -0.0219 -0.1120  0.0512
  744POPS   PO411756   5.750   3.872   5.945  0.0319 -0.1366  0.2990
  744POPS   GL111757   5.764   3.922   6.440 -0.0421 -0.0809  0.1314
  744POPS   GL211758   5.749   4.214   6.587 -0.2147 -0.0870 -0.1322
  744POPS   C1A11759   5.971   3.901   6.871 -0.1350 -0.1282 -0.1132
  744POPS   D2A11760   6.132   3.871   7.271 -0.0812  0.1090  0.0437
  744POPS   C3A11761   6.480   3.856   7.413  0.0904 -0.0835 -0.1656
  744POPS   C4A11762   6.703   3.504   7.517 -0.3145  0.2548 -0.0317
  744POPS   C1B11763   5.839   4.369   6.964 -0.2181 -0.0803  0.1338
  744POPS   C2B11764   5.919   4.302   7.381 -0.0205  0.1307  0.3044
  744POPS   C3B11765   5.725   4.206   7.860 -0.0052 -0.0469  0.4191
  744POPS   C4B11766   5.703   3.832   8.187  0.0579 -0.1029  0.3667
  745POPS   CNO11767   0.326  14.851   6.015 -0.0186  0.0344  0.0127
  745POPS   PO411768   0.641  14.966   6.279 -0.0909  0.0793 -0.1191
  745POPS   GL111769   0.872  15.152   6.553 -0.2198 -0.0945 -0.0083
  745POPS   GL211770   1.113  15.327   6.433  0.2807 -0.0498 -0.0134
  745POPS   C1A11771   0.806  15.402   6.923  0.0893 -0.3514  0.1922
  745POPS   D2A11772   0.878  15.586   7.301 -0.0363  0.0188 -0.1762
  745POPS   C3A11773   1.188  15.462   7.646 -0.0470  0.2385 -0.2150
  745POPS   C4A11774   1.474  15.551   8.007  0.2247  0.0589  0.1868
  745POPS   C1B11775   1.293  15.528   6.799 -0.0297  0.2270 -0.3486
  745POPS   C2B11776   1.337  15.740   7.262 -0.2757 -0.3358  0.1807
  745POPS   C3B11777   1.458  15.951   7.710 -0.1057 -0.2679  0.3195
  745POPS   C4B11778   1.597  16.145   8.055 -0.2195  0.2722 -0.0678
  746POPS   CNO11779  15.479   8.931   5.770  0.2224 -0.0879 -0.1617
  746POPS   PO411780  15.312   8.556   5.755  0.1489 -0.2341 -0.0658
  746POPS   GL111781  15.207   8.485   6.126 -0.0462 -0.1423 -0.2119
  746POPS   GL211782  15.445   8.644   6.264 -0.0575  0.1397  0.0853
  746POPS   C1A11783  15.215   8.166   6.429 -0.2183  0.0486 -0.0556
  746POPS   D2A11784  15.333   7.800   6.218 -0.1091 -0.0108  0.0332
  746POPS   C3A11785  15.582   7.532   6.364  0.0428  0.1234 -0.0589
  746POPS   C4A11786  15.953   7.560   6.647  0.0537 -0.2225  0.1599
  746POPS   C1B11787  15.402   8.616   6.674  0.0531  0.1337  0.0608
  746POPS   C2B11788  15.502   8.601   7.170 -0.0145 -0.2178 -0.4000
  746POPS   C3B11789  15.435   8.630   7.684 -0.1794  0.2224 -0.1533
  746POPS   C4B11790  15.500   8.573   8.117 -0.1908 -0.0440  0.1769
  747POPS   CNO11791  10.608   9.417   5.822  0.2240  0.1119 -0.3711
  747POPS   PO411792  10.717   9.014   5.661 -0.2506 -0.1154  0.2089
  747POPS   GL111793  10.597   8.932   6.052 -0.1035  0.0217 -0.0570
  747POPS   GL211794  10.570   8.557   6.156  0.2220  0.1191 -0.0704
  747POPS   C1A11795  10.486   8.876   6.499  0.0551  0.1966 -0.1275
  747POPS   D2A11796  10.482   8.742   6.851 -0.0732  0.0140  0.2049
  747POPS   C3A11797  10.218   8.844   7.215  0.1602  0.1303 -0.1295
  747POPS   C4A11798  10.114   8.891   7.647  0.2116 -0.0378 -0.0835
  747POPS   C1B11799  10.456   8.375   6.542  0.1200  0.0108  0.1856
  747POPS   C2B11800  10.482   8.251   6.920  0.0816  0.1715  0.1949
  747POPS   C3B11801  10.285   8.337   7.284 -0.3227  0.1632  0.2008
  747POPS   C4B11802  10.327   8.408   7.633  0.0440  0.5605  0.1346
  748POPS   CNO11803   7.101  16.257   6.031  0.3738 -0.0627  0.1268
  748POPS   PO411804   7.378  16.592   6.074 -0.2692 -0.0705 -0.1284
  748POPS   GL111805   7.304  16.871   6.462 -0.0593  0.0682 -0.0319
  748POPS   GL211806   7.638  16.916   6.485  0.0048 -0.0524 -0.1578
  748POPS   C1A11807   7.194  17.066   6.812 -0.1312  0.0065  0.1111
  748POPS   D2A11808   7.328  17.250   7.213  0.1976 -0.0412 -0.1604
  748POPS   C3A11809   7.132  17.319   7.659 -0.2194  0.0540 -0.0379
  748POPS   C4A11810   6.875  17.327   7.947 -0.1481  0.1072  0.2036
  748POPS   C1B11811   7.670  16.966   6.921  0.0132 -0.2610  0.2438
  748POPS   C2B11812   7.708  16.850   7.322 -0.0014 -0.1623  0.0489
  748POPS   C3B11813   7.830  16.772   7.689 -0.0623  0.2033 -0.0206
  748POPS   C4B11814   7.983  16.699   8.086  0.0440 -0.0945 -0.1647
  749POPS   CNO11815  16.595  17.304   6.193 -0.1406  0.0173  0.3093
  749POPS   PO411816  16.759  16.852   6.060 -0.5131  0.2444 -0.0198
  749POPS   GL111817  16.888  16.815   6.414 -0.0553 -0.1135 -0.3047
  749POPS   GL211818  16.924  16.520   6.490 -0.0425 -0.2094  0.2477
  749POPS   C1A11819  17.011  16.880   6.873 -0.2831  0.2101 -0.0928
  749POPS   D2A11820  17.178  16.777   7.274  0.0971 -0.0925  0.0600
  749POPS   C3A11821  16.920  16.626   7.461 -0.0383  0.0544  0.1231
  749POPS   C4A11822  16.543  16.455   7.804 -0.2355  0.1362 -0.2148
  749POPS   C1B11823  16.571  16.717   6.809  0.0514 -0.0330  0.0215
  749POPS   C2B11824  16.697  16.955   7.221  0.3125  0.3969 -0.0673
  749POPS   C3B11825  16.565  17.095   7.556  0.0213  0.0660  0.0853
  749POPS   C4B11826  16.377  17.274   7.836 -0.3794  0.1937 -0.1966
  750POPS   CNO11827  14.315   8.346   6.176 -0.3214 -0.1778  0.0586
  750POPS   PO411828  14.567   8.595   5.913  0.0057 -0.0378 -0.0978
  750POPS   GL111829  14.735   8.552   6.361 -0.2139  0.1005  0.2543
  750POPS   GL211830  14.982   8.741   6.467 -0.2321 -0.1432  0.2142
  750POPS   C1A11831  14.883   8.362   6.760 -0.1198 -0.2586  0.0364
  750POPS   D2A11832  15.013   8.686   7.019 -0.0453  0.0688 -0.0808
  750POPS   C3A11833  15.006   8.790   7.446 -0.1259  0.2936  0.0472
  750POPS   C4A11834  14.820   8.917   7.936  0.4072  0.1189  0.0104
  750POPS   C1B11835  14.632   8.917   6.744  0.0816 -0.0339 -0.0287
  750POPS   C2B11836  14.690   9.091   7.169 -0.0774 -0.0573  0.0471
  750POPS   C3B11837  14.518   9.172   7.531 -0.1278  0.4261 -0.0498
  750POPS   C4B11838  14.109   9.027   7.656  0.3133  0.1051 -0.2221
  751POPS   CNO11839   5.873  11.627   5.976  0.0479  0.0462  0.0349
  751POPS   PO411840   5.574  11.774   6.204 -0.1109  0.1932  0.0222
  751POPS   GL111841   5.807  11.605   6.524 -0.0765 -0.2570 -0.0270
  751POPS   GL211842   5.928  11.898   6.771 -0.0876  0.1397 -0.2370
  751POPS   C1A11843   5.761  11.355   6.886  0.1560  0.1968 -0.1058
  751POPS   D2A11844   5.658  10.982   7.160  0.2100  0.0130  0.0006
  751POPS   C3A11845   5.235  10.932   7.355 -0.1528 -0.1396 -0.2409
  751POPS   C4A11846   5.172  10.786   7.751  0.1955 -0.2405  0.1211
  751POPS   C1B11847   5.749  11.821   7.160 -0.0632  0.1786  0.0551
  751POPS   C2B11848   5.600  12.013   7.563 -0.1443  0.1863  0.2454
  751POPS   C3B11849   5.474  12.285   7.907  0.0689  0.2756 -0.3382
  751POPS   C4B11850   5.209  12.470   8.228 -0.1110 -0.2075 -0.0720
  752POPS   CNO11851  14.473  12.523   6.205 -0.0555 -0.1409  0.1333
  752POPS   PO411852  14.216  12.859   6.206 -0.3224 -0.0033  0.1081
  752POPS   GL111853  14.217  13.040   6.553 -0.1935 -0.1257 -0.2012
  752POPS   GL211854  14.264  13.320   6.622 -0.1589  0.1676  0.2536
  752POPS   C1A11855  14.486  12.946   6.976  0.1839 -0.2323  0.0018
  752POPS   D2A11856  14.821  13.221   7.080  0.0483 -0.4968 -0.2121
  752POPS   C3A11857  14.911  13.277   7.560 -0.1384 -0.2327  0.0121
  752POPS   C4A11858  15.150  13.370   7.914 -0.0209  0.0771  0.0232
  752POPS   C1B11859  14.197  13.379   7.027  0.3138 -0.1775 -0.1695
  752POPS   C2B11860  14.117  13.848   7.237  0.1855 -0.0841  0.4934
  752POPS   C3B11861  13.837  14.012   7.524 -0.1324  0.0911 -0.0925
  752POPS   C4B11862  13.628  13.804   7.830 -0.6467  0.2220 -0.2028
  753POPS   CNO11863   2.958  17.774   5.343 -0.2640  0.1736 -0.2646
  753POPS   PO411864   2.880  17.522   5.648  0.0621 -0.2640  0.1199
  753POPS   GL111865   2.741  17.265   5.881  0.2118 -0.0116  0.0992
  753POPS   GL211866   2.462  17.342   5.997 -0.2717  0.1715 -0.0585
  753POPS   C1A11867   2.839  17.135   6.248  0.1242 -0.2895  0.0582
  753POPS   D2A11868   3.195  16.885   6.479  0.1575 -0.1836  0.1098
  753POPS   C3A11869   3.230  16.747   6.936  0.2011  0.1168 -0.1271
  753POPS   C4A11870   3.498  16.531   7.185  0.0710 -0.0127  0.2597
  753POPS   C1B11871   2.392  17.614   6.299  0.2389 -0.0934  0.3148
  753POPS   C2B11872   2.233  17.503   6.773  0.2124  0.0131 -0.2676
  753POPS   C3B11873   2.115  17.298   7.140 -0.0895  0.0309  0.2291
  753POPS   C4B11874   2.399  17.043   7.415  0.1553 -0.1365 -0.0383
  754POPS   CNO11875  16.026  14.372   6.414  0.0408 -0.1607  0.1271
  754POPS   PO411876  15.934  14.716   6.314  0.1457  0.0936 -0.0962
  754POPS   GL111877  15.856  14.791   6.667 -0.0255  0.0076 -0.1628
  754POPS   GL211878  15.555  14.853   6.866 -0.0396  0.0245  0.3741
  754POPS   C1A11879  15.972  14.622   7.077  0.2621  0.3049  0.1285
  754POPS   D2A11880  15.835  14.489   7.523 -0.1394 -0.0856 -0.0266
  754POPS   C3A11881  15.631  14.624   7.930 -0.1860  0.1293  0.1580
  754POPS   C4A11882  15.482  14.534   8.422 -0.0890 -0.1179 -0.2294
  754POPS   C1B11883  15.484  14.647   7.156  0.0781 -0.1234  0.2122
  754POPS   C2B11884  15.238  14.783   7.593  0.1200 -0.3113 -0.3443
  754POPS   C3B11885  14.869  14.691   7.699 -0.1551  0.1410  0.0621
  754POPS   C4B11886  14.731  14.576   8.142  0.0293  0.1779  0.0977
  755POPS   CNO11887   0.790  11.878   5.501  0.0407  0.1139  0.2427
  755POPS   PO411888   0.665  11.696   5.893  0.1281  0.3481  0.0456
  755POPS   GL111889   0.863  11.773   6.218  0.2550 -0.1799 -0.2862
  755POPS   GL211890   0.884  12.093   6.461  0.1129  0.1280 -0.0690
  755POPS   C1A11891   1.165  11.687   6.529  0.0136 -0.0653 -0.0181
  755POPS   D2A11892   1.422  11.883   6.857 -0.1279 -0.2636 -0.2706
  755POPS   C3A11893   1.344  11.754   7.304  0.2931 -0.0758 -0.1679
  755POPS   C4A11894   1.543  11.713   7.747  0.0881 -0.1108  0.0701
  755POPS   C1B11895   0.821  11.917   6.876  0.0565  0.0328  0.0146
  755POPS   C2B11896   0.840  11.858   7.335 -0.1286 -0.1991 -0.0389
  755POPS   C3B11897   1.051  11.909   7.665  0.1426  0.1460  0.0778
  755POPS   C4B11898   1.224  11.739   8.129 -0.2332 -0.0836  0.1021
  756POPS   CNO11899  16.480  17.733   5.861  0.0235 -0.0600 -0.0689
  756POPS   PO411900  17.001  17.704   5.843 -0.0433 -0.4495  0.1650
  756POPS   GL111901  17.065  17.710   6.215 -0.1043 -0.1168 -0.0371
  756POPS   GL211902  17.227  17.741   6.402 -0.0312 -0.0765  0.1239
  756POPS   C1A11903  16.811  17.760   6.609 -0.1696 -0.2594 -0.0768
  756POPS   D2A11904  16.724  17.813   7.074  0.2398  0.2463 -0.0148
  756POPS   C3A11905  16.819  17.419   7.275 -0.0797 -0.0612  0.4064
  756POPS   C4A11906  17.009  17.168   7.598 -0.0060  0.1017  0.0641
  756POPS   C1B11907  17.294  17.836   6.819  0.1011  0.1086  0.3152
  756POPS   C2B11908  17.206  17.830   7.224  0.0860  0.2353 -0.1012
  756POPS   C3B11909  17.379  17.723   7.549  0.0554  0.1282 -0.1200
  756POPS   C4B11910  17.297  17.578   7.864 -0.0338 -0.1338  0.2133
  757POPS   CNO11911   8.116   5.733   5.478 -0.1387  0.2203 -0.1132
  757POPS   PO411912   8.048   5.453   5.837 -0.1798 -0.1774  0.0264
  757POPS   GL111913   8.026   5.192   6.179  0.1133 -0.2258 -0.0796
  757POPS   GL211914   8.135   4.878   6.127  0.1996  0.0609  0.1363
  757POPS   C1A11915   8.020   4.922   6.654  0.1268  0.0493 -0.1431
  757POPS   D2A11916   7.911   5.041   7.042  0.2145  0.1526 -0.1333
  757POPS   C3A11917   8.038   4.602   7.231 -0.2503 -0.0797 -0.0157
  757POPS   C4A11918   7.977   4.182   7.410  0.2473 -0.0281  0.0379
  757POPS   C1B11919   7.777   4.541   6.112 -0.3268 -0.0130 -0.3928
  757POPS   C2B11920   7.319   4.570   6.149 -0.1617  0.0918  0.1565
  757POPS   C3B11921   7.036   4.593   6.450  0.0186  0.0508 -0.1256
  757POPS   C4B11922   6.690   4.413   6.720 -0.0459  0.0489  0.0431
  758POPS   CNO11923  10.835  11.580   5.337  0.3268 -0.0954 -0.4160
  758POPS   PO411924  10.908  11.472   5.777 -0.1183 -0.1509 -0.2070
  758POPS   GL111925  10.849  11.402   6.176  0.0491  0.0470 -0.1259
  758POPS   GL211926  11.057  11.238   6.206  0.0950  0.3711 -0.0615
  758POPS   C1A11927  10.975  11.450   6.649 -0.0259 -0.1805  0.0174
  758POPS   D2A11928  11.107  11.236   7.049 -0.3535  0.1938  0.0705
  758POPS   C3A11929  11.011  11.365   7.526 -0.4026  0.0027 -0.1812
  758POPS   C4A11930  10.765  11.622   7.876 -0.1816  0.0592  0.0684
  758POPS   C1B11931  11.322  11.105   6.489  0.3796 -0.1118 -0.0680
  758POPS   C2B11932  11.421  10.859   6.879  0.0367 -0.0535  0.2914
  758POPS   C3B11933  11.228  10.911   7.344  0.1387  0.1593  0.0706
  758POPS   C4B11934  11.250  10.994   7.761 -0.1221  0.1500 -0.2178
  759POPS   CNO11935  16.452  10.180   5.533  0.3860 -0.1104 -0.2623
  759POPS   PO411936  16.717   9.882   5.840 -0.2843  0.2540 -0.4246
  759POPS   GL111937  16.711   9.933   6.319 -0.0548  0.1894  0.0671
  759POPS   GL211938  16.533   9.620   6.433  0.0453  0.2030 -0.0668
  759POPS   C1A11939  16.827  10.067   6.748  0.1624  0.0222  0.3145
  759POPS   D2A11940  16.945   9.996   7.184  0.0863  0.2766 -0.3316
  759POPS   C3A11941  17.334   9.892   7.495  0.0551  0.0097 -0.2811
  759POPS   C4A11942  17.381  10.037   7.869 -0.0051  0.1241 -0.0915
  759POPS   C1B11943  16.753   9.548   6.788  0.0387 -0.0755  0.1495
  759POPS   C2B11944  16.874   9.407   7.216 -0.0309 -0.0935  0.0699
  759POPS   C3B11945  16.816   9.656   7.623 -0.1208 -0.1021 -0.0414
  759POPS   C4B11946  16.950   9.718   8.011  0.0417  0.1459 -0.1357
  760POPS   CNO11947  12.056  15.747   5.616  0.0214  0.0516  0.0117
  760POPS   PO411948  11.866  15.707   5.950  0.0918  0.0533  0.0745
  760POPS   GL111949  12.198  15.733   6.288  0.1145 -0.1633  0.3446
  760POPS   GL211950  12.256  15.485   6.515  0.0675 -0.0276  0.1138
  760POPS   C1A11951  12.438  15.904   6.697 -0.0856  0.0801 -0.0867
  760POPS   D2A11952  12.567  15.870   7.055  0.0688  0.1795  0.0681
  760POPS   C3A11953  12.350  15.872   7.409 -0.0597 -0.2754 -0.0107
  760POPS   C4A11954  12.210  15.875   7.813  0.0442  0.4054 -0.1139
  760POPS   C1B11955  12.126  15.573   6.923 -0.0838 -0.2740  0.1697
  760POPS   C2B11956  11.905  15.717   7.282 -0.2322 -0.0189 -0.2278
  760POPS   C3B11957  11.732  15.599   7.679 -0.2133  0.0761  0.0773
  760POPS   C4B11958  11.788  15.707   8.077  0.1537 -0.1387 -0.0382
  761POPS   CNO11959   0.238  16.329   5.716 -0.0834  0.2670 -0.0641
  761POPS   PO411960   0.261  16.771   6.020  0.0371 -0.0392 -0.2358
  761POPS   GL111961  -0.079  16.555   6.273 -0.1577  0.0956  0.3832
  761POPS   GL211962  -0.015  16.191   6.140  0.0971  0.2481 -0.1920
  761POPS   C1A11963  -0.074  16.566   6.691  0.0270 -0.0055  0.1100
  761POPS   D2A11964  -0.164  16.714   7.137  0.0978 -0.0633  0.0722
  761POPS   C3A11965   0.172  16.894   7.472  0.0844 -0.0642 -0.1096
  761POPS   C4A11966   0.311  16.846   7.875 -0.0212  0.2107 -0.3967
  761POPS   C1B11967   0.007  16.040   6.627 -0.0479 -0.3305  0.2586
  761POPS   C2B11968  -0.004  15.945   7.080  0.0617  0.0782 -0.3930
  761POPS   C3B11969  -0.402  15.908   7.344 -0.2267 -0.1224  0.1562
  761POPS   C4B11970  -0.570  15.973   7.776 -0.1014  0.1014  0.0042
  762POPS   CNO11971   1.846  13.620   6.328 -0.1164 -0.1980  0.0475
  762POPS   PO411972   1.403  13.750   6.345 -0.1174 -0.4402 -0.1062
  762POPS   GL111973   1.233  13.975   6.686  0.1766  0.1301 -0.0378
  762POPS   GL211974   1.365  14.268   6.748  0.1642 -0.0834  0.2512
  762POPS   C1A11975   1.180  13.700   7.020 -0.0451  0.0499 -0.4721
  762POPS   D2A11976   1.031  13.689   7.360 -0.4031  0.0055 -0.0786
  762POPS   C3A11977   1.207  13.509   7.661  0.1449  0.1359 -0.2453
  762POPS   C4A11978   1.369  13.536   8.034  0.3141 -0.0238 -0.0003
  762POPS   C1B11979   1.245  14.652   7.033 -0.0390 -0.1636  0.1123
  762POPS   C2B11980   1.053  14.815   7.346 -0.0979 -0.0471 -0.0640
  762POPS   C3B11981   0.945  14.874   7.762 -0.3848  0.0270 -0.3917
  762POPS   C4B11982   0.891  14.757   8.148  0.0383 -0.1736  0.0620
  763POPS   CNO11983  16.716  10.700   5.515 -0.1793  0.0357  0.3609
  763POPS   PO411984  16.847  10.779   5.956 -0.4906  0.3585 -0.2206
  763POPS   GL111985  17.110  10.874   6.353 -0.0481  0.0130  0.1646
  763POPS   GL211986  17.297  11.159   6.267  0.1614  0.0330 -0.1332
  763POPS   C1A11987  17.277  10.743   6.705  0.0375  0.1516 -0.1933
  763POPS   D2A11988  17.366  10.727   7.074 -0.1180  0.2138  0.1082
  763POPS   C3A11989  17.519  10.906   7.416 -0.1617 -0.3743  0.0361
  763POPS   C4A11990  17.574  10.942   7.787 -0.0538  0.2764  0.0143
  763POPS   C1B11991  17.296  11.262   6.705  0.1922  0.1842 -0.0476
  763POPS   C2B11992  17.402  11.258   7.036  0.1453  0.3405  0.0328
  763POPS   C3B11993  17.378  11.433   7.462 -0.1836  0.3390  0.3233
  763POPS   C4B11994  17.275  11.605   7.843 -0.0847 -0.1022  0.2258
  764POPS   CNO11995   5.368   1.537   5.764  0.3583  0.0204  0.0461
  764POPS   PO411996   5.654   1.208   5.674  0.1877 -0.0457  0.0515
  764POPS   GL111997   5.674   1.066   6.064 -0.3708 -0.0504  0.3058
  764POPS   GL211998   5.986   0.976   6.157 -0.0111 -0.1197 -0.4020
  764POPS   C1A11999   5.429   1.138   6.483 -0.1506  0.0686 -0.0185
  764POPS   D2A12000   5.019   1.088   6.659 -0.0517 -0.0387 -0.1761
  764POPS   C3A12001   4.985   1.009   7.082 -0.0388 -0.1189 -0.2674
  764POPS   C4A12002   4.955   0.667   7.305  0.0542  0.1291 -0.1239
  764POPS   C1B12003   6.176   0.921   6.601  0.1418 -0.1004 -0.0345
  764POPS   C2B12004   6.166   0.864   6.937 -0.1906  0.0378 -0.0099
  764POPS   C3B12005   5.905   0.859   7.306  0.0594 -0.1039  0.1540
  764POPS   C4B12006   5.848   0.967   7.694 -0.0614  0.2991 -0.1694
  765POPS   CNO12007   5.749   6.810   6.354  0.0176 -0.0831  0.0026
  765POPS   PO412008   5.339   6.918   6.336  0.1726 -0.1481 -0.0813
  765POPS   GL112009   5.159   7.121   6.696  0.0135  0.0907 -0.0688
  765POPS   GL212010   5.047   7.418   6.744 -0.0892 -0.1069 -0.0692
  765POPS   C1A12011   5.033   7.071   7.145 -0.2952 -0.0528 -0.0312
  765POPS   D2A12012   4.995   6.746   7.338 -0.1176 -0.0510  0.1748
  765POPS   C3A12013   4.954   6.628   7.718 -0.0776 -0.0121 -0.0186
  765POPS   C4A12014   4.778   6.637   8.154  0.0472  0.0368 -0.1199
  765POPS   C1B12015   4.843   7.550   7.119 -0.0989  0.0499  0.3308
  765POPS   C2B12016   4.508   7.622   7.380 -0.2395  0.3183 -0.1274
  765POPS   C3B12017   4.311   7.540   7.691  0.1375 -0.1691 -0.1111
  765POPS   C4B12018   3.986   7.802   7.849  0.2884 -0.3086  0.0952
  766POPS   CNO12019   7.887  14.975   5.757  0.2181 -0.0477  0.2451
  766POPS   PO412020   8.043  15.410   5.884 -0.0855  0.0636 -0.2004
  766POPS   GL112021   8.115  15.299   6.336 -0.1407 -0.2483  0.3322
  766POPS   GL212022   8.432  15.127   6.313  0.0801 -0.0233 -0.0850
  766POPS   C1A12023   8.059  15.378   6.783 -0.0670 -0.0559  0.1264
  766POPS   D2A12024   7.793  15.662   6.996 -0.1298 -0.0121  0.0227
  766POPS   C3A12025   7.613  15.592   7.420 -0.0152 -0.1846 -0.0815
  766POPS   C4A12026   7.371  15.533   7.762 -0.1127 -0.3754 -0.2288
  766POPS   C1B12027   8.541  15.406   6.644  0.1340 -0.0104  0.1823
  766POPS   C2B12028   8.548  15.706   6.994  0.2094 -0.2682 -0.2270
  766POPS   C3B12029   8.819  15.978   7.219  0.1132  0.1512  0.1467
  766POPS   C4B12030   8.947  15.921   7.540  0.0998  0.1144  0.2121
  767POPS   CNO12031  15.801  15.925   5.936 -0.0320  0.1511  0.0230
  767POPS   PO412032  16.150  15.944   6.172  0.0878 -0.1949  0.3284
  767POPS   GL112033  15.988  16.103   6.492 -0.0679  0.2858  0.2409
  767POPS   GL212034  16.154  16.432   6.398  0.0637  0.0407  0.1408
  767POPS   C1A12035  15.828  16.162   6.883  0.0990 -0.1796  0.1652
  767POPS   D2A12036  15.951  16.378   7.283 -0.2477  0.0439 -0.2735
  767POPS   C3A12037  15.682  16.597   7.523  0.2097  0.0283 -0.0915
  767POPS   C4A12038  15.355  16.473   7.737 -0.1855  0.0953 -0.2321
  767POPS   C1B12039  16.024  16.618   6.734 -0.0244  0.1448 -0.1263
  767POPS   C2B12040  15.624  16.642   6.903 -0.1443  0.4309 -0.0049
  767POPS   C3B12041  15.494  16.887   7.158  0.0344  0.1655  0.0211
  767POPS   C4B12042  15.433  17.064   7.428 -0.1119 -0.0294 -0.0374
  768POPS   CNO12043  12.515   9.782   5.530 -0.0463 -0.1535  0.0199
  768POPS   PO412044  12.771   9.605   5.923 -0.3106  0.0381 -0.2150
  768POPS   GL112045  12.899   9.786   6.268 -0.0116 -0.0928  0.3855
  768POPS   GL212046  12.735  10.056   6.298  0.1885  0.0320 -0.1484
  768POPS   C1A12047  13.117   9.927   6.656 -0.0731 -0.1341 -0.1213
  768POPS   D2A12048  13.210  10.061   7.027 -0.0865  0.0075  0.1274
  768POPS   C3A12049  13.325   9.709   7.360 -0.0078 -0.0120 -0.1506
  768POPS   C4A12050  13.120   9.712   7.808 -0.1996  0.3934  0.0925
  768POPS   C1B12051  12.705  10.237   6.713 -0.0310  0.0631  0.0806
  768POPS   C2B12052  12.692  10.250   7.105 -0.2784  0.1912 -0.0400
  768POPS   C3B12053  12.830  10.030   7.425 -0.1524 -0.0290 -0.0972
  768POPS   C4B12054  13.200  10.172   7.523 -0.0566 -0.1097  0.2887
  769POPS   CNO12055   1.332   8.376   5.107  0.3544  0.2676  0.1522
  769POPS   PO412056   1.353   8.745   5.462 -0.0819 -0.0569  0.4314
  769POPS   GL112057   1.420   8.731   5.955  0.0324 -0.1393  0.1044
  769POPS   GL212058   1.366   8.995   6.201  0.1638  0.1979  0.0854
  769POPS   C1A12059   1.234   8.487   6.329 -0.2726 -0.0381  0.1551
  769POPS   D2A12060   1.083   8.166   6.252 -0.0354  0.1523  0.2811
  769POPS   C3A12061   1.115   7.793   6.476  0.1634  0.1368  0.0208
  769POPS   C4A12062   0.988   7.740   6.908  0.0086 -0.1613  0.2049
  769POPS   C1B12063   1.118   8.991   6.585  0.0967  0.1276  0.2841
  769POPS   C2B12064   1.083   8.832   7.009  0.5055  0.3475 -0.1538
  769POPS   C3B12065   0.927   8.921   7.426 -0.2144 -0.4072  0.0692
  769POPS   C4B12066   0.672   9.010   7.827 -0.1747 -0.3902  0.0134
  770POPS   CNO12067  12.137  12.863   5.767 -0.1433 -0.1727  0.2545
  770POPS   PO412068  12.255  12.405   5.945 -0.0582 -0.1019 -0.2529
  770POPS   GL112069  12.021  12.320   6.375  0.1986  0.1578 -0.0474
  770POPS   GL212070  12.082  12.079   6.613  0.1283 -0.0998 -0.1550
  770POPS   C1A12071  11.625  12.402   6.453  0.0098  0.0266  0.0601
  770POPS   D2A12072  11.369  12.438   6.784 -0.3089  0.0797  0.2478
  770POPS   C3A12073  11.183  12.769   6.961  0.0038  0.0440  0.2531
  770POPS   C4A12074  11.026  12.928   7.441  0.4166  0.0687  0.1584
  770POPS   C1B12075  11.727  12.078   6.817  0.2443  0.0755 -0.1145
  770POPS   C2B12076  11.490  12.155   7.215  0.0038 -0.1773  0.0167
  770POPS   C3B12077  11.551  12.366   7.625 -0.1632 -0.1960 -0.0396
  770POPS   C4B12078  11.740  12.294   8.010 -0.1325  0.5650 -0.0260
  771POPS   CNO12079  15.161  13.650   6.174 -0.0412  0.2107  0.1986
  771POPS   PO412080  15.153  14.104   6.305 -0.0924  0.1847  0.2014
  771POPS   GL112081  15.339  13.881   6.639 -0.1674 -0.0702 -0.1836
  771POPS   GL212082  15.237  13.712   6.823  0.2998 -0.0316  0.1712
  771POPS   C1A12083  15.551  14.105   6.952 -0.0257  0.0145 -0.2235
  771POPS   D2A12084  15.512  13.988   7.407 -0.0205  0.0663 -0.0231
  771POPS   C3A12085  15.731  14.096   7.754  0.0651  0.0916 -0.0215
  771POPS   C4A12086  16.014  14.295   7.976 -0.0729  0.2043 -0.3822
  771POPS   C1B12087  15.089  13.671   7.195  0.0939 -0.1798  0.0232
  771POPS   C2B12088  14.953  13.789   7.583 -0.1247  0.0259 -0.0439
  771POPS   C3B12089  14.623  13.636   7.878 -0.2296 -0.3192 -0.4211
  771POPS   C4B12090  14.231  13.771   7.835  0.1529 -0.0306  0.1764
  772POPS   CNO12091  12.760   3.630   5.534  0.1569 -0.1159  0.1774
  772POPS   PO412092  12.996   3.661   5.937 -0.0931 -0.1405 -0.0901
  772POPS   GL112093  13.322   3.579   6.327  0.2115  0.0207  0.4920
  772POPS   GL212094  13.181   3.933   6.472 -0.3070  0.0087 -0.0377
  772POPS   C1A12095  13.457   3.354   6.683  0.0616  0.1720  0.2156
  772POPS   D2A12096  13.410   3.222   7.087 -0.2988  0.0218 -0.2258
  772POPS   C3A12097  13.112   3.083   7.417 -0.1578  0.0793 -0.0523
  772POPS   C4A12098  12.725   2.968   7.363 -0.1092 -0.1661 -0.0322
  772POPS   C1B12099  13.324   3.974   6.865  0.3045  0.1776 -0.3486
  772POPS   C2B12100  13.274   4.015   7.428  0.0812  0.1997  0.0489
  772POPS   C3B12101  13.373   3.968   7.853  0.2235 -0.2109  0.0824
  772POPS   C4B12102  13.229   3.787   8.198  0.0638  0.2174 -0.0420
  773POPS   CNO12103   2.623  12.598   5.545  0.0410  0.3617 -0.0108
  773POPS   PO412104   2.264  12.476   5.749  0.3877 -0.1254 -0.1218
  773POPS   GL112105   2.276  12.479   6.288 -0.0948  0.1886  0.1080
  773POPS   GL212106   2.326  12.203   6.579 -0.1764 -0.3355  0.0889
  773POPS   C1A12107   2.213  12.670   6.700 -0.2387  0.0008 -0.2661
  773POPS   D2A12108   1.966  12.734   7.157 -0.0083 -0.0270 -0.2715
  773POPS   C3A12109   2.147  12.704   7.462 -0.0344  0.1114 -0.3346
  773POPS   C4A12110   2.126  12.949   7.869 -0.0235  0.3042  0.0247
  773POPS   C1B12111   2.399  12.313   7.064 -0.0327 -0.4110  0.0685
  773POPS   C2B12112   2.560  11.997   7.532  0.0881 -0.1628  0.2144
  773POPS   C3B12113   2.349  11.749   7.896  0.2197  0.0328  0.0273
  773POPS   C4B12114   2.242  11.407   8.182 -0.1575  0.0558  0.0116
  774POPS   CNO12115   1.156   4.561   6.015 -0.1609  0.2132 -0.0340
  774POPS   PO412116   1.579   4.343   5.951  0.0161  0.1626  0.1310
  774POPS   GL112117   1.817   4.336   6.414 -0.2994 -0.1641 -0.2652
  774POPS   GL212118   1.639   4.257   6.653  0.0746  0.0165 -0.0576
  774POPS   C1A12119   2.070   4.528   6.764 -0.1899  0.1053 -0.1521
  774POPS   D2A12120   1.977   4.626   7.246  0.1665  0.0195  0.0112
  774POPS   C3A12121   2.060   4.403   7.650  0.2860 -0.1172 -0.2243
  774POPS   C4A12122   2.232   4.088   7.804  0.0428  0.0435  0.1667
  774POPS   C1B12123   1.614   4.349   7.082  0.1004 -0.1930 -0.0820
  774POPS   C2B12124   1.550   4.547   7.463 -0.2043 -0.3105 -0.0146
  774POPS   C3B12125   1.623   4.614   7.884  0.1406 -0.1545 -0.1028
  774POPS   C4B12126   1.901   4.622   8.325  0.0211 -0.0848 -0.2110
  775POPS   CNO12127   2.978   5.845   5.570 -0.1297  0.2849  0.3032
  775POPS   PO412128   3.099   6.294   5.574  0.1523  0.0868 -0.1131
  775POPS   GL112129   3.157   6.258   6.097 -0.0264 -0.4863 -0.0363
  775POPS   GL212130   3.446   6.264   6.243 -0.1443 -0.2618 -0.0089
  775POPS   C1A12131   2.921   5.973   6.345  0.2180  0.1155 -0.1389
  775POPS   D2A12132   2.689   5.705   6.612 -0.1126  0.0682 -0.1711
  775POPS   C3A12133   2.289   6.028   6.751 -0.1595  0.2753 -0.0648
  775POPS   C4A12134   2.079   6.262   7.101  0.0296  0.1131 -0.0546
  775POPS   C1B12135   3.204   6.319   6.584  0.0964 -0.0640 -0.0735
  775POPS   C2B12136   3.307   6.195   7.065  0.1365  0.0643 -0.1512
  775POPS   C3B12137   3.452   6.090   7.404  0.0140  0.1089  0.0102
  775POPS   C4B12138   3.603   6.085   7.839  0.1522  0.1411  0.0601
  776POPS   CNO12139  11.425   5.210   5.712  0.0468  0.0670  0.0140
  776POPS   PO412140  11.602   4.833   5.851  0.0136  0.0199  0.1591
  776POPS   GL112141  11.575   4.463   6.188  0.3449 -0.1040 -0.3270
  776POPS   GL212142  11.258   4.301   6.084 -0.2753 -0.2137  0.2858
  776POPS   C1A12143  11.622   4.289   6.584  0.0861 -0.3080 -0.3296
  776POPS   D2A12144  11.381   4.241   7.016  0.1777  0.1250  0.0795
  776POPS   C3A12145  11.473   4.169   7.415 -0.1194 -0.4270 -0.1240
  776POPS   C4A12146  11.690   3.842   7.717  0.3374  0.0972  0.0531
  776POPS   C1B12147  11.167   4.244   6.530  0.1467  0.0550 -0.0258
  776POPS   C2B12148  11.092   3.909   6.804  0.0106  0.0345 -0.1937
  776POPS   C3B12149  11.203   3.573   7.077 -0.3450  0.0426 -0.1504
  776POPS   C4B12150  11.375   3.432   7.437  0.1619  0.1559  0.1430
  777POPS   CNO12151  12.615   0.243   6.208 -0.0195 -0.3023  0.0223
  777POPS   PO412152  12.300  -0.065   6.314 -0.1836  0.0115 -0.0020
  777POPS   GL112153  12.434   0.233   6.735 -0.3800  0.0571  0.0233
  777POPS   GL212154  12.078   0.279   6.879 -0.1388 -0.2736  0.2269
  777POPS   C1A12155  12.770   0.360   6.917 -0.0236 -0.4425  0.1595
  777POPS   D2A12156  12.916   0.498   7.269 -0.3344  0.2327 -0.1688
  777POPS   C3A12157  12.733   0.614   7.600  0.1244  0.0852 -0.0170
  777POPS   C4A12158  12.590   0.769   7.848  0.1144 -0.2093 -0.1761
  777POPS   C1B12159  12.379   0.388   7.245  0.0311 -0.0283 -0.1390
  777POPS   C2B12160  12.259   0.421   7.654 -0.1346  0.6266 -0.1996
  777POPS   C3B12161  11.945   0.233   7.968  0.0787 -0.2057 -0.0423
  777POPS   C4B12162  11.707  -0.028   8.272  0.0132 -0.0915  0.2432
  778POPS   CNO12163  13.926  16.822   5.341  0.0539 -0.2794 -0.0884
  778POPS   PO412164  14.173  17.007   5.705 -0.3754 -0.0393  0.2264
  778POPS   GL112165  13.938  16.966   6.134 -0.2564  0.1103 -0.0458
  778POPS   GL212166  13.523  16.919   6.109  0.3994 -0.4713 -0.3507
  778POPS   C1A12167  13.975  16.848   6.566  0.1847 -0.1004  0.2033
  778POPS   D2A12168  14.081  16.912   7.070  0.0572  0.1972  0.0085
  778POPS   C3A12169  14.008  17.357   7.155  0.0836  0.1501 -0.0676
  778POPS   C4A12170  14.123  17.566   7.484 -0.1699 -0.3069  0.0698
  778POPS   C1B12171  13.408  17.040   6.586 -0.0636  0.0507  0.2109
  778POPS   C2B12172  13.535  16.848   6.928  0.0234 -0.1459 -0.2301
  778POPS   C3B12173  13.556  17.010   7.343 -0.0585 -0.0481  0.2344
  778POPS   C4B12174  13.634  16.857   7.779  0.1267  0.0418 -0.0754
  779POPS   CNO12175  15.587   0.135   5.780  0.0637  0.0772  0.2432
  779POPS   PO412176  15.197   0.156   5.950  0.2337 -0.0860 -0.0230
  779POPS   GL112177  15.142   0.175   6.392 -0.1512  0.0485  0.0095
  779POPS   GL212178  14.896   0.094   6.574  0.2824  0.1692  0.1209
  779POPS   C1A12179  15.360   0.305   6.814 -0.1026 -0.1322  0.2183
  779POPS   D2A12180  15.501   0.502   7.171 -0.3496 -0.0707 -0.0757
  779POPS   C3A12181  15.922   0.475   7.184 -0.2351  0.2071  0.2327
  779POPS   C4A12182  16.273   0.098   7.277  0.2210 -0.1495  0.1134
  779POPS   C1B12183  14.828   0.278   6.981  0.1166  0.1514  0.1184
  779POPS   C2B12184  15.100   0.236   7.322  0.1712 -0.0601 -0.0340
  779POPS   C3B12185  15.388   0.331   7.675  0.2276 -0.2026  0.2167
  779POPS   C4B12186  15.609   0.437   8.089 -0.0231 -0.1595 -0.0832
  780POPS   CNO12187  16.376  12.951   5.878  0.1760  0.1132 -0.1723
  780POPS   PO412188  16.098  13.072   6.090  0.3104  0.0073  0.2094
  780POPS   GL112189  15.959  13.188   6.546 -0.1573 -0.1182  0.0134
  780POPS   GL212190  15.951  12.906   6.673  0.0608  0.0443  0.3676
  780POPS   C1A12191  15.931  13.448   6.907 -0.2437  0.3345  0.0366
  780POPS   D2A12192  15.602  13.556   7.175  0.0527  0.0314  0.0803
  780POPS   C3A12193  15.421  13.484   7.522 -0.3247 -0.1334 -0.4006
  780POPS   C4A12194  15.382  13.737   7.828 -0.0183  0.1574  0.6692
  780POPS   C1B12195  15.958  12.539   7.068  0.2388 -0.0123 -0.3238
  780POPS   C2B12196  16.198  12.165   7.067 -0.0611 -0.1756 -0.2141
  780POPS   C3B12197  16.487  11.915   7.324  0.1443 -0.3669  0.0248
  780POPS   C4B12198  16.529  12.095   7.790  0.1770 -0.1381  0.3460
  781POPS   CNO12199   3.635  17.165   5.625 -0.3949 -0.0356  0.1446
  781POPS   PO412200   3.650  16.822   5.844 -0.1122 -0.0099 -0.0059
  781POPS   GL112201   3.795  17.115   6.189 -0.1285  0.0678  0.0377
  781POPS   GL212202   4.080  17.198   6.098  0.0406 -0.0505  0.1729
  781POPS   C1A12203   3.706  17.046   6.590  0.3095 -0.0763 -0.1228
  781POPS   D2A12204   3.556  17.102   6.973 -0.0220  0.0825  0.0917
  781POPS   C3A12205   3.390  17.029   7.391 -0.1682 -0.1552 -0.3581
  781POPS   C4A12206   3.266  16.799   7.693  0.1977 -0.1874 -0.0090
  781POPS   C1B12207   4.213  17.097   6.485  0.2933  0.2525  0.1680
  781POPS   C2B12208   4.066  17.103   6.919 -0.0650  0.0351  0.1712
  781POPS   C3B12209   3.951  17.195   7.316 -0.0295  0.1389 -0.0169
  781POPS   C4B12210   3.862  17.022   7.670 -0.1208  0.2308 -0.0440
  782POPS   CNO12211  11.891  10.998   5.758  0.2259 -0.0916  0.1596
  782POPS   PO412212  12.235  10.998   5.928 -0.0475  0.0846 -0.1788
  782POPS   GL112213  11.963  10.895   6.296 -0.2844 -0.0322 -0.2315
  782POPS   GL212214  11.780  11.058   6.491  0.0758  0.1409  0.0327
  782POPS   C1A12215  11.845  10.592   6.619 -0.1369 -0.0283  0.1333
  782POPS   D2A12216  11.837  10.379   6.919 -0.1358  0.0937  0.0083
  782POPS   C3A12217  11.587  10.525   7.212 -0.0726  0.0715 -0.0974
  782POPS   C4A12218  11.542  10.533   7.562 -0.2603  0.1071  0.0711
  782POPS   C1B12219  11.991  10.978   6.930  0.0384 -0.1961 -0.0075
  782POPS   C2B12220  11.820  10.907   7.287 -0.1886  0.1855 -0.0211
  782POPS   C3B12221  11.746  11.004   7.720  0.1397 -0.2287 -0.1236
  782POPS   C4B12222  11.595  10.802   8.046  0.0105 -0.1341 -0.0038
  783POPS   CNO12223   3.867   5.907   6.073  0.0020  0.0585  0.1102
  783POPS   PO412224   3.846   6.323   5.968  0.0893 -0.0228  0.2299
  783POPS   GL112225   3.973   6.259   6.373 -0.0800 -0.2068 -0.5002
  783POPS   GL212226   3.990   6.499   6.544  0.1557 -0.0871 -0.0365
  783POPS   C1A12227   3.673   6.125   6.677 -0.3995  0.1959  0.2971
  783POPS   D2A12228   3.265   5.841   6.660 -0.3210 -0.0975  0.0901
  783POPS   C3A12229   2.898   5.921   6.958  0.0153 -0.2369  0.1145
  783POPS   C4A12230   2.942   6.038   7.348 -0.0068  0.0487  0.1937
  783POPS   C1B12231   3.752   6.526   6.993  0.0702 -0.1275  0.0257
  783POPS   C2B12232   3.554   6.610   7.449 -0.0537  0.3037 -0.3906
  783POPS   C3B12233   3.481   6.554   7.829  0.0820 -0.1077 -0.1533
  783POPS   C4B12234   3.246   6.604   8.161 -0.1038  0.0669  0.2755
  784POPS   CNO12235  12.732  14.071   5.944 -0.3208 -0.0204 -0.0425
  784POPS   PO412236  12.746  14.409   6.114  0.1854  0.3369 -0.1478
  784POPS   GL112237  12.539  14.508   6.475 -0.1069 -0.3319  0.0999
  784POPS   GL212238  12.218  14.514   6.553 -0.1066  0.1184 -0.0788
  784POPS   C1A12239  12.604  14.465   6.868 -0.1929  0.1435  0.1265
  784POPS   D2A12240  12.623  14.431   7.244 -0.0878  0.0686  0.1143
  784POPS   C3A12241  12.344  14.342   7.590  0.1697  0.0031  0.0740
  784POPS   C4A12242  12.115  14.237   7.955  0.0081 -0.1778 -0.3244
  784POPS   C1B12243  12.081  14.481   6.936  0.0680  0.4160  0.2100
  784POPS   C2B12244  11.976  14.571   7.315  0.0136  0.0430 -0.0675
  784POPS   C3B12245  12.049  14.667   7.722  0.0930  0.0036  0.0625
  784POPS   C4B12246  11.964  14.899   8.039  0.1301 -0.0586  0.2092
  785POPS   CNO12247   4.739  10.407   5.779  0.3102  0.0345  0.0723
  785POPS   PO412248   4.697  10.193   6.093 -0.0132  0.0728  0.1092
  785POPS   GL112249   4.774  10.306   6.476 -0.1069  0.2882 -0.2256
  785POPS   GL212250   5.037  10.190   6.659  0.1305 -0.1054 -0.0442
  785POPS   C1A12251   4.680  10.584   6.754 -0.0372  0.2628  0.3115
  785POPS   D2A12252   4.719  10.896   7.106 -0.1431 -0.2105  0.4695
  785POPS   C3A12253   4.693  10.934   7.513  0.5399 -0.0690  0.0422
  785POPS   C4A12254   4.756  11.008   7.898  0.1195  0.0478 -0.0761
  785POPS   C1B12255   5.286  10.035   6.995 -0.0353 -0.1389 -0.2794
  785POPS   C2B12256   5.176   9.972   7.433  0.3126 -0.0540  0.0564
  785POPS   C3B12257   5.288   9.735   7.677 -0.0907  0.1559 -0.4067
  785POPS   C4B12258   5.362   9.746   8.164  0.1057 -0.1905  0.1348
  786POPS   CNO12259  13.729  15.576   5.612  0.0509 -0.1360 -0.0309
  786POPS   PO412260  13.531  15.597   5.997  0.1438  0.1011 -0.0660
  786POPS   GL112261  13.672  15.525   6.389  0.0767  0.1950 -0.0358
  786POPS   GL212262  13.947  15.743   6.536  0.0148  0.0285 -0.2378
  786POPS   C1A12263  13.572  15.420   6.718  0.1345 -0.1675 -0.1481
  786POPS   D2A12264  13.592  15.562   7.171  0.2456 -0.0360  0.0704
  786POPS   C3A12265  13.479  15.870   7.479 -0.0448 -0.0347 -0.4067
  786POPS   C4A12266  13.639  15.804   7.961  0.0636  0.0881  0.0330
  786POPS   C1B12267  14.052  15.525   6.883  0.0134 -0.0049 -0.3783
  786POPS   C2B12268  14.253  15.518   7.271  0.1874 -0.0169 -0.2657
  786POPS   C3B12269  14.359  15.600   7.698 -0.0698 -0.0568  0.0757
  786POPS   C4B12270  14.474  15.941   7.889  0.1603  0.2170 -0.1521
  787POPS   CNO12271  13.109   0.578   6.388  0.4162  0.0281  0.1444
  787POPS   PO412272  13.145   0.106   6.265  0.2312 -0.2031  0.1200
  787POPS   GL112273  13.192   0.163   6.731  0.0152 -0.0108  0.0941
  787POPS   GL212274  13.401  -0.008   6.793 -0.0782 -0.0451 -0.2222
  787POPS   C1A12275  13.402   0.302   7.181 -0.3561 -0.1093  0.1716
  787POPS   D2A12276  13.321   0.340   7.616 -0.4812 -0.1708  0.0476
  787POPS   C3A12277  13.358  -0.070   7.735 -0.4379  0.0308  0.1997
  787POPS   C4A12278  13.092  -0.314   8.014  0.1378  0.0563  0.2434
  787POPS   C1B12279  13.220  -0.164   7.212  0.1456  0.1037 -0.0163
  787POPS   C2B12280  13.086  -0.499   7.478 -0.0578  0.1352  0.0006
  787POPS   C3B12281  13.161  -0.855   7.711  0.0411  0.1749  0.0642
  787POPS   C4B12282  13.307  -0.987   8.135 -0.0269 -0.0475  0.1693
  788POPS   CNO12283   2.627   0.936   5.897  0.0530  0.0372  0.2484
  788POPS   PO412284   3.000   1.129   5.870 -0.1243 -0.0388 -0.0068
  788POPS   GL112285   3.020   1.412   6.323  0.2442  0.1538  0.2320
  788POPS   GL212286   3.252   1.495   6.257  0.0454 -0.2814  0.0453
  788POPS   C1A12287   2.988   1.453   6.784  0.1277 -0.0318  0.1428
  788POPS   D2A12288   2.610   1.416   7.142  0.0271  0.1983 -0.0827
  788POPS   C3A12289   2.276   1.744   7.129  0.0385  0.0146  0.0794
  788POPS   C4A12290   2.162   2.195   7.123  0.3230  0.0698  0.1244
  788POPS   C1B12291   3.260   1.824   6.599  0.2051 -0.3760 -0.4265
  788POPS   C2B12292   3.086   1.869   7.054 -0.2464  0.0486  0.0164
  788POPS   C3B12293   2.789   1.846   7.320 -0.0526 -0.1658  0.2607
  788POPS   C4B12294   2.560   2.060   7.592  0.0309 -0.3104 -0.0605
  789POPS   CNO12295   0.538   5.604   5.880  0.0510 -0.0265 -0.1605
  789POPS   PO412296   0.486   5.159   5.800 -0.1010  0.1669  0.1581
  789POPS   GL112297   0.755   5.246   6.185  0.0327  0.1168 -0.0260
  789POPS   GL212298   0.602   5.464   6.315 -0.2544  0.3768 -0.0924
  789POPS   C1A12299   1.048   5.333   6.547  0.0127  0.2467  0.4202
  789POPS   D2A12300   1.038   5.252   7.006  0.1776 -0.2428  0.2664
  789POPS   C3A12301   1.201   5.506   7.297  0.0128 -0.2128  0.1938
  789POPS   C4A12302   1.423   5.600   7.634  0.1537 -0.1513 -0.2520
  789POPS   C1B12303   0.547   5.378   6.712  0.0102 -0.1590  0.1159
  789POPS   C2B12304   0.588   5.399   7.098  0.2698 -0.1241 -0.0945
  789POPS   C3B12305   0.609   5.510   7.475  0.0792 -0.0059  0.2175
  789POPS   C4B12306   0.892   5.607   7.774  0.1144 -0.0837 -0.0749
  790POPS   CNO12307   5.981   8.477   5.998 -0.0488  0.2235 -0.1013
  790POPS   PO412308   5.676   8.295   6.228  0.1628 -0.2289 -0.1165
  790POPS   GL112309   5.805   8.482   6.679 -0.0556  0.0493 -0.1501
  790POPS   GL212310   6.190   8.520   6.605 -0.1466 -0.1654  0.2159
  790POPS   C1A12311   5.874   8.722   7.060  0.1266  0.0031 -0.0499
  790POPS   D2A12312   5.853   8.851   7.498  0.0944  0.0563  0.2623
  790POPS   C3A12313   5.980   9.236   7.666 -0.0213 -0.1432  0.0370
  790POPS   C4A12314   5.980   9.589   7.910  0.2128 -0.0656 -0.1172
  790POPS   C1B12315   6.193   8.390   7.042  0.2920 -0.1124 -0.0897
  790POPS   C2B12316   6.148   8.462   7.508  0.1669  0.2151  0.0967
  790POPS   C3B12317   6.098   8.439   7.936  0.3621  0.7020 -0.0746
  790POPS   C4B12318   6.128   8.640   8.393  0.1032 -0.2836 -0.1555
  791POPS   CNO12319  16.743   6.275   5.998 -0.0458 -0.2909 -0.2828
  791POPS   PO412320  16.496   5.989   5.912  0.3463  0.0512  0.0736
  791POPS   GL112321  16.616   5.786   6.353 -0.3965  0.0422  0.0796
  791POPS   GL212322  16.771   6.023   6.427  0.0057 -0.0296 -0.0730
  791POPS   C1A12323  16.749   5.475   6.718 -0.0141  0.0814 -0.0411
  791POPS   D2A12324  16.763   5.165   7.002 -0.2535 -0.1789 -0.1170
  791POPS   C3A12325  16.762   5.152   7.463  0.3019  0.3365 -0.0435
  791POPS   C4A12326  16.664   5.278   7.934  0.0198  0.3034 -0.0629
  791POPS   C1B12327  16.793   6.008   6.849 -0.1599 -0.0192 -0.2051
  791POPS   C2B12328  16.845   6.035   7.302 -0.1511  0.2676 -0.2023
  791POPS   C3B12329  16.990   6.073   7.702  0.0402 -0.2772 -0.0092
  791POPS   C4B12330  17.323   5.998   7.972 -0.0146  0.0174 -0.0391
  792POPS   CNO12331  16.136  15.452   6.068 -0.0956  0.4400 -0.1302
  792POPS   PO412332  15.813  15.196   6.314  0.1336  0.1457 -0.1268
  792POPS   GL112333  15.955  15.318   6.777  0.1155 -0.0349 -0.1370
  792POPS   GL212334  16.203  15.112   6.932 -0.1124  0.1192 -0.0440
  792POPS   C1A12335  15.706  15.272   7.141 -0.1963  0.2984  0.1552
  792POPS   D2A12336  15.746  14.972   7.485 -0.0677  0.0837 -0.0027
  792POPS   C3A12337  15.613  15.121   7.863 -0.2680 -0.3210 -0.1263
  792POPS   C4A12338  15.927  15.402   8.091 -0.1909  0.2316 -0.1286
  792POPS   C1B12339  16.373  15.429   7.209  0.0121 -0.4250  0.0011
  792POPS   C2B12340  16.534  15.624   7.539  0.0963  0.0404 -0.1505
  792POPS   C3B12341  16.409  15.573   7.996 -0.2471 -0.0149  0.0384
  792POPS   C4B12342  16.305  15.278   8.446 -0.0507 -0.1784  0.0210
  793POPS   CNO12343   2.149  11.074   5.542 -0.0794  0.3329 -0.0573
  793POPS   PO412344   2.212  11.212   5.967  0.0424  0.3511 -0.1724
  793POPS   GL112345   2.191  10.868   6.212  0.2674  0.1772  0.0541
  793POPS   GL212346   1.879  10.868   6.423 -0.1999  0.0842  0.1820
  793POPS   C1A12347   2.345  10.807   6.598  0.0398 -0.1241 -0.0030
  793POPS   D2A12348   2.389  10.650   6.958 -0.0963  0.0088  0.2737
  793POPS   C3A12349   2.114  10.654   7.347  0.0196  0.0410 -0.3511
  793POPS   C4A12350   1.833  10.856   7.519 -0.0167  0.1473 -0.0287
  793POPS   C1B12351   1.883  10.921   6.793 -0.2201  0.0311 -0.0047
  793POPS   C2B12352   1.685  11.125   7.119 -0.1064 -0.0096 -0.2618
  793POPS   C3B12353   1.529  11.233   7.588  0.3067 -0.3191  0.0595
  793POPS   C4B12354   1.139  11.445   7.669  0.0143 -0.0720  0.0628
  794POPS   CNO12355   2.200   1.408   5.245  0.4658  0.0318 -0.2718
  794POPS   PO412356   1.904   1.482   5.623 -0.3250 -0.1476  0.0626
  794POPS   GL112357   1.722   1.585   6.036  0.0910  0.1892 -0.3266
  794POPS   GL212358   1.396   1.436   6.135 -0.1374  0.0682  0.2066
  794POPS   C1A12359   1.823   1.621   6.518  0.1120  0.0704  0.1070
  794POPS   D2A12360   1.912   1.363   6.914  0.1019 -0.1197  0.1278
  794POPS   C3A12361   2.314   1.122   6.904  0.2839  0.0805  0.0439
  794POPS   C4A12362   2.642   1.139   6.607 -0.0862 -0.0254 -0.4525
  794POPS   C1B12363   1.381   1.389   6.593  0.2724  0.0449 -0.2362
  794POPS   C2B12364   1.271   1.430   7.008  0.0706  0.0138  0.1959
  794POPS   C3B12365   1.229   1.470   7.432  0.1729 -0.1530 -0.2458
  794POPS   C4B12366   1.079   1.639   7.849  0.0571 -0.1265 -0.1170
  795POPS   CNO12367   1.954  15.309   5.783  0.0232 -0.2422 -0.0344
  795POPS   PO412368   2.073  15.728   5.821 -0.1532 -0.0957 -0.1855
  795POPS   GL112369   2.263  16.025   6.073  0.0069  0.3385  0.0156
  795POPS   GL212370   2.508  15.828   6.297 -0.1778 -0.0467  0.1259
  795POPS   C1A12371   2.327  16.311   6.372 -0.1648  0.1164 -0.2129
  795POPS   D2A12372   2.180  16.689   6.535 -0.1298 -0.0845 -0.0485
  795POPS   C3A12373   2.156  16.679   6.976  0.0883 -0.1229 -0.0889
  795POPS   C4A12374   2.155  16.471   7.354  0.3569  0.0877 -0.0655
  795POPS   C1B12375   2.732  16.061   6.569  0.1840 -0.1620 -0.2101
  795POPS   C2B12376   2.948  16.123   7.015  0.0344 -0.0552  0.4442
  795POPS   C3B12377   3.047  16.055   7.358  0.0705  0.2435 -0.3524
  795POPS   C4B12378   3.172  16.296   7.498  0.1047  0.0932 -0.0393
  796POPS   CNO12379  15.036   3.428   5.438 -0.0270  0.2640 -0.1057
  796POPS   PO412380  15.338   3.519   5.813 -0.0836 -0.0276 -0.2217
  796POPS   GL112381  15.561   3.558   6.259 -0.2755  0.1112  0.1510
  796POPS   GL212382  15.631   3.790   6.374  0.0216 -0.1275 -0.0529
  796POPS   C1A12383  15.863   3.261   6.583  0.0154 -0.1983 -0.1266
  796POPS   D2A12384  16.252   3.112   6.576  0.2585 -0.0110 -0.0570
  796POPS   C3A12385  16.525   3.037   6.811 -0.2095 -0.2441  0.0248
  796POPS   C4A12386  16.618   3.108   7.254 -0.0579 -0.0663  0.1968
  796POPS   C1B12387  15.650   3.714   6.811 -0.0916 -0.2855  0.3502
  796POPS   C2B12388  15.800   3.609   7.225 -0.0420  0.2642 -0.1252
  796POPS   C3B12389  15.802   3.397   7.594 -0.2473  0.1945  0.3159
  796POPS   C4B12390  16.007   3.480   8.032  0.2389 -0.1698 -0.2457
  797POPS   CNO12391   4.429   2.742   6.085  0.0776 -0.0399 -0.0039
  797POPS   PO412392   4.646   3.131   5.860 -0.0052  0.1402  0.0003
  797POPS   GL112393   4.680   3.168   6.317 -0.0774 -0.0174  0.1002
  797POPS   GL212394   4.398   3.168   6.381  0.0377  0.1309 -0.3951
  797POPS   C1A12395   4.710   3.211   6.842  0.2715 -0.1990 -0.0001
  797POPS   D2A12396   5.035   3.507   6.994  0.0442 -0.2823 -0.0932
  797POPS   C3A12397   5.096   3.713   7.412 -0.2650  0.2350 -0.1083
  797POPS   C4A12398   5.203   3.675   7.868  0.1718  0.1311 -0.0726
  797POPS   C1B12399   4.563   2.810   6.655  0.0252  0.1350  0.0652
  797POPS   C2B12400   4.511   2.441   6.887  0.0621 -0.1101  0.0727
  797POPS   C3B12401   4.617   2.189   7.242  0.4358  0.4363  0.2083
  797POPS   C4B12402   4.921   1.943   7.543  0.1424  0.4937 -0.1900
  798POPS   CNO12403   2.124  10.781   5.142  0.2356  0.3243 -0.2471
  798POPS   PO412404   2.242  10.476   5.379  0.3112  0.0165  0.0321
  798POPS   GL112405   2.231  10.154   5.788  0.2564 -0.1261 -0.1118
  798POPS   GL212406   2.289  10.387   6.097 -0.1158  0.0547  0.2211
  798POPS   C1A12407   2.329   9.933   6.213 -0.0289  0.0022  0.1708
  798POPS   D2A12408   2.178   9.662   6.589 -0.2509  0.0399 -0.5135
  798POPS   C3A12409   2.161   9.700   7.007 -0.3019 -0.0841  0.0728
  798POPS   C4A12410   1.963   9.676   7.376  0.1685  0.1323  0.0002
  798POPS   C1B12411   2.219  10.345   6.578  0.0186  0.0237 -0.1133
  798POPS   C2B12412   1.952  10.240   7.017  0.1414 -0.2031 -0.1190
  798POPS   C3B12413   1.772  10.170   7.377  0.2086  0.3542  0.0892
  798POPS   C4B12414   1.919  10.122   7.805 -0.2722  0.1289 -0.1271
  799POPS   CNO12415  11.412  10.055   5.448 -0.0024  0.0129  0.0015
  799POPS   PO412416  11.141   9.829   5.661 -0.1629  0.0177  0.0185
  799POPS   GL112417  11.299   9.764   6.045 -0.0048  0.3310  0.0682
  799POPS   GL212418  11.362   9.488   6.176 -0.0149  0.1506 -0.1914
  799POPS   C1A12419  11.131   9.847   6.480  0.0072  0.3154  0.1580
  799POPS   D2A12420  11.166   9.791   7.004 -0.2697 -0.1894 -0.1765
  799POPS   C3A12421  11.582  10.021   7.175  0.1347  0.1901  0.1538
  799POPS   C4A12422  11.835  10.117   7.385  0.1351  0.0516 -0.2151
  799POPS   C1B12423  11.304   9.385   6.610 -0.0604 -0.2689 -0.0659
  799POPS   C2B12424  11.333   9.314   7.068  0.1269 -0.1196  0.1709
  799POPS   C3B12425  11.234   9.562   7.438 -0.0814 -0.1025  0.1598
  799POPS   C4B12426  11.280   9.425   7.865  0.2896  0.1120  0.1386
  800POPS   CNO12427   8.558   2.002   5.910 -0.1695  0.3884  0.2065
  800POPS   PO412428   8.338   1.578   5.936  0.2737 -0.0063  0.2204
  800POPS   GL112429   8.397   1.536   6.396  0.0249 -0.0978  0.1050
  800POPS   GL212430   8.671   1.731   6.408 -0.1461  0.2907 -0.1352
  800POPS   C1A12431   8.192   1.463   6.886  0.0929 -0.0446  0.2316
  800POPS   D2A12432   7.833   1.656   7.140 -0.0973  0.0739  0.3605
  800POPS   C3A12433   7.565   1.456   7.405  0.4042 -0.2948 -0.1052
  800POPS   C4A12434   7.476   1.117   7.579  0.0192  0.2242  0.1278
  800POPS   C1B12435   8.641   1.648   6.873  0.1006  0.1335  0.3380
  800POPS   C2B12436   8.654   1.843   7.291 -0.1361  0.0009  0.0214
  800POPS   C3B12437   8.550   1.926   7.698 -0.2025 -0.1607 -0.3093
  800POPS   C4B12438   8.578   2.200   8.075  0.1904  0.3277 -0.1225
  801POPS   CNO12439  16.354  11.248   6.063 -0.2594 -0.4017  0.0707
  801POPS   PO412440  15.913  11.438   6.002 -0.1940 -0.0675 -0.0764
  801POPS   GL112441  15.865  11.531   6.356  0.0064  0.1389  0.0215
  801POPS   GL212442  15.594  11.743   6.422 -0.0489 -0.1078  0.1044
  801POPS   C1A12443  16.014  11.685   6.817  0.0668 -0.1836 -0.0125
  801POPS   D2A12444  16.013  11.754   7.266  0.0526  0.2744  0.1077
  801POPS   C3A12445  16.188  11.647   7.690 -0.0680  0.0982 -0.0411
  801POPS   C4A12446  16.387  11.637   8.105 -0.0164 -0.0703  0.2710
  801POPS   C1B12447  15.460  11.617   6.739 -0.0832  0.2171  0.0671
  801POPS   C2B12448  15.404  11.514   7.175  0.2381 -0.2589 -0.0976
  801POPS   C3B12449  15.670  11.465   7.602 -0.0961 -0.0037 -0.2115
  801POPS   C4B12450  15.824  11.213   7.979 -0.0112  0.0695 -0.0180
  802POPS   CNO12451  10.392   2.078   6.078  0.2769  0.2749  0.1030
  802POPS   PO412452  10.469   2.571   6.003  0.2756 -0.0697  0.1174
  802POPS   GL112453  10.522   2.592   6.459 -0.2512 -0.1143  0.0324
  802POPS   GL212454  10.442   2.357   6.620 -0.1795 -0.1575  0.1741
  802POPS   C1A12455  10.726   2.766   6.826 -0.0484 -0.0362  0.0482
  802POPS   D2A12456  10.688   2.631   7.280  0.1077 -0.1396  0.3605
  802POPS   C3A12457  10.370   2.383   7.458 -0.2581 -0.1677  0.1090
  802POPS   C4A12458   9.968   2.377   7.281 -0.2284 -0.2745 -0.1189
  802POPS   C1B12459  10.301   2.556   6.931 -0.0279 -0.2695 -0.2559
  802POPS   C2B12460  10.087   2.882   7.231  0.1195 -0.0496 -0.2226
  802POPS   C3B12461   9.915   3.144   7.525 -0.3241  0.0770 -0.1361
  802POPS   C4B12462   9.490   3.185   7.818 -0.0654 -0.2093  0.2196
  803POPS   CNO12463   4.554   6.905   5.853  0.2503 -0.0526  0.0616
  803POPS   PO412464   4.284   7.071   6.251  0.2804 -0.0929  0.1327
  803POPS   GL112465   3.879   7.079   6.563  0.0380 -0.1140 -0.1716
  803POPS   GL212466   3.727   7.403   6.569 -0.0730 -0.1043  0.2235
  803POPS   C1A12467   3.734   7.036   6.937  0.0097  0.2902 -0.1001
  803POPS   D2A12468   3.416   7.051   7.303 -0.2307  0.0102  0.0761
  803POPS   C3A12469   3.643   7.109   7.686 -0.1901  0.1304 -0.0980
  803POPS   C4A12470   3.899   7.363   7.961 -0.0013  0.2909 -0.0380
  803POPS   C1B12471   4.064   7.406   6.965  0.2125 -0.3087 -0.1277
  803POPS   C2B12472   4.061   7.318   7.361 -0.2267  0.0385  0.1522
  803POPS   C3B12473   3.848   7.495   7.436  0.0734  0.2598 -0.2418
  803POPS   C4B12474   3.468   7.595   7.293 -0.2099  0.0213  0.1340
  804POPS   CNO12475   5.542  17.217   5.735 -0.1658 -0.0523 -0.2625
  804POPS   PO412476   5.966  16.943   5.778  0.1828 -0.1411 -0.2210
  804POPS   GL112477   5.969  16.716   6.155  0.1457 -0.0034  0.0188
  804POPS   GL212478   5.778  16.785   6.360 -0.0173  0.2451 -0.1152
  804POPS   C1A12479   6.315  16.624   6.362 -0.0031  0.0606  0.1628
  804POPS   D2A12480   6.475  16.416   6.764 -0.1536  0.1373  0.0097
  804POPS   C3A12481   6.335  16.008   6.825  0.2251  0.0241  0.0836
  804POPS   C4A12482   6.030  15.599   6.614 -0.0316  0.2687 -0.1358
  804POPS   C1B12483   6.090  16.981   6.589 -0.1826  0.3133 -0.1830
  804POPS   C2B12484   6.432  16.886   6.893  0.0801 -0.2617 -0.2040
  804POPS   C3B12485   6.518  16.656   7.241  0.0504 -0.0168  0.1392
  804POPS   C4B12486   6.466  16.519   7.613  0.1182  0.0023  0.2032
  805POPS   CNO12487   4.652  16.978   5.521  0.0961 -0.0977  0.4292
  805POPS   PO412488   4.647  17.270   5.879 -0.0278 -0.1094  0.2238
  805POPS   GL112489   4.753  16.941   6.102 -0.0332 -0.1575  0.0900
  805POPS   GL212490   4.977  16.912   6.108 -0.2709  0.2275  0.0022
  805POPS   C1A12491   4.715  16.801   6.546 -0.1496  0.0708  0.3228
  805POPS   D2A12492   4.476  16.840   7.010 -0.0746  0.0155  0.0875
  805POPS   C3A12493   4.719  16.541   7.255 -0.0931 -0.0921 -0.1148
  805POPS   C4A12494   5.101  16.294   7.359  0.0399 -0.2556 -0.1493
  805POPS   C1B12495   5.249  16.913   6.485 -0.0351 -0.1604  0.2381
  805POPS   C2B12496   5.488  16.714   6.785  0.1622  0.1714  0.1506
  805POPS   C3B12497   5.443  16.671   7.149  0.0952 -0.0322  0.1693
  805POPS   C4B12498   5.568  16.776   7.540 -0.2042  0.1461  0.0623
  806POPS   CNO12499  14.804  16.376   5.821 -0.0266 -0.2102  0.0944
  806POPS   PO412500  14.917  15.981   5.909 -0.2423  0.1926  0.0696
  806POPS   GL112501  14.787  16.078   6.282  0.1230 -0.2203 -0.2413
  806POPS   GL212502  14.640  16.410   6.304  0.1997  0.2145  0.0238
  806POPS   C1A12503  14.713  16.225   6.722  0.2304  0.5708 -0.1584
  806POPS   D2A12504  14.961  16.293   7.104  0.0621 -0.1097 -0.1683
  806POPS   C3A12505  15.417  16.227   7.203  0.1305 -0.4498  0.1333
  806POPS   C4A12506  15.580  16.068   7.600  0.0229 -0.0337  0.1842
  806POPS   C1B12507  14.865  16.680   6.552  0.2579 -0.0743  0.0322
  806POPS   C2B12508  15.057  16.767   6.956 -0.4012  0.2642  0.0167
  806POPS   C3B12509  15.016  16.736   7.393 -0.3566 -0.0851 -0.0716
  806POPS   C4B12510  14.968  17.032   7.689 -0.0012  0.3091 -0.0412
  807POPS   CNO12511   1.484  14.657   6.514 -0.0477  0.1320  0.1684
  807POPS   PO412512   1.448  14.886   6.184 -0.1615 -0.0811  0.2207
  807POPS   GL112513   1.678  15.145   6.404 -0.0361  0.0579  0.3128
  807POPS   GL212514   1.902  14.918   6.576  0.3252  0.3785 -0.0695
  807POPS   C1A12515   1.717  15.388   6.683 -0.2829 -0.0049 -0.2681
  807POPS   D2A12516   1.943  15.653   7.068  0.3215 -0.2127 -0.1022
  807POPS   C3A12517   2.378  15.733   7.114 -0.1505 -0.0451  0.1599
  807POPS   C4A12518   2.686  15.701   7.469 -0.2061  0.2176 -0.0454
  807POPS   C1B12519   1.797  14.939   6.954  0.1037 -0.0850 -0.1885
  807POPS   C2B12520   1.605  14.787   7.338  0.0865  0.0330  0.1724
  807POPS   C3B12521   1.423  14.996   7.581  0.0693 -0.1241 -0.0109
  807POPS   C4B12522   1.280  15.088   8.072  0.1254  0.2075 -0.1869
  808POPS   CNO12523   5.293  16.336   5.618  0.1013 -0.0078 -0.2224
  808POPS   PO412524   4.940  16.441   5.864  0.1935 -0.1944  0.0038
  808POPS   GL112525   4.685  16.271   6.166 -0.0944  0.1532  0.0234
  808POPS   GL212526   4.614  15.979   6.174 -0.1284 -0.2044 -0.1478
  808POPS   C1A12527   4.613  16.271   6.625 -0.1389 -0.4371  0.0768
  808POPS   D2A12528   4.359  16.322   6.970  0.1781  0.0858 -0.1201
  808POPS   C3A12529   4.401  16.062   7.328 -0.1849  0.2008  0.2273
  808POPS   C4A12530   4.345  15.809   7.774 -0.1314  0.0140  0.4283
  808POPS   C1B12531   4.334  15.894   6.577  0.0421  0.4189 -0.0719
  808POPS   C2B12532   4.297  15.751   6.942  0.2389  0.0686 -0.1164
  808POPS   C3B12533   4.004  15.792   7.201 -0.1373  0.3042  0.0947
  808POPS   C4B12534   3.878  15.618   7.574 -0.0092  0.0884 -0.0006
  809POPS   CNO12535   8.880  15.394   6.197  0.0973  0.1983 -0.0934
  809POPS   PO412536   8.894  14.923   6.116 -0.0291  0.2713  0.1225
  809POPS   GL112537   9.141  14.674   6.413  0.2092 -0.0655  0.0386
  809POPS   GL212538   9.070  14.368   6.438  0.1440 -0.0718 -0.2744
  809POPS   C1A12539   9.439  14.628   6.763  0.2018  0.3379  0.1090
  809POPS   D2A12540   9.750  14.803   7.083  0.2258  0.1082 -0.0133
  809POPS   C3A12541   9.870  14.752   7.459 -0.1109  0.0598 -0.3083
  809POPS   C4A12542  10.157  14.536   7.694  0.1418 -0.1368 -0.0588
  809POPS   C1B12543   8.964  14.516   6.853 -0.0974  0.0982 -0.1191
  809POPS   C2B12544   8.840  14.651   7.225  0.3728 -0.1179 -0.1403
  809POPS   C3B12545   8.987  14.726   7.700 -0.0425  0.1851 -0.0552
  809POPS   C4B12546   8.802  14.947   8.110 -0.2600 -0.1268  0.1888
  810POPS   CNO12547  12.647  11.088   6.153  0.1175  0.4874  0.2437
  810POPS   PO412548  12.971  11.376   6.154 -0.1384  0.4175  0.1330
  810POPS   GL112549  12.785  11.588   6.543 -0.1073  0.2643 -0.3098
  810POPS   GL212550  12.472  11.752   6.519  0.1074 -0.2231  0.1635
  810POPS   C1A12551  12.728  11.646   6.937 -0.0443 -0.0218  0.1024
  810POPS   D2A12552  12.716  11.659   7.325  0.0094  0.4327 -0.4239
  810POPS   C3A12553  12.529  11.408   7.627  0.3235 -0.0152 -0.1430
  810POPS   C4A12554  12.241  10.994   7.493  0.2029  0.2036 -0.1276
  810POPS   C1B12555  12.479  12.084   6.872 -0.3178  0.0967 -0.0705
  810POPS   C2B12556  12.446  12.031   7.236  0.2271 -0.0292 -0.2456
  810POPS   C3B12557  12.342  11.903   7.648 -0.0465  0.2360  0.0092
  810POPS   C4B12558  12.111  11.881   8.143 -0.0785 -0.0302  0.1683
  811POPS   CNO12559   9.801  15.963   5.457  0.0664 -0.1018  0.1494
  811POPS   PO412560   9.617  15.925   5.808 -0.0504 -0.0257  0.0695
  811POPS   GL112561   9.690  15.887   6.183  0.0396  0.1823  0.2304
  811POPS   GL212562   9.517  16.060   6.491  0.0744  0.0655  0.1412
  811POPS   C1A12563   9.803  15.604   6.595 -0.0961 -0.0057 -0.0028
  811POPS   D2A12564   9.808  15.523   7.040 -0.2135 -0.0389  0.2333
  811POPS   C3A12565   9.748  15.265   7.255 -0.0672 -0.0446  0.1980
  811POPS   C4A12566   9.521  15.146   7.554  0.3084 -0.0199  0.0622
  811POPS   C1B12567   9.443  15.863   6.841 -0.0472  0.1515 -0.0472
  811POPS   C2B12568   9.398  15.714   7.339  0.3498 -0.3148 -0.0563
  811POPS   C3B12569   9.363  15.780   7.793  0.0144 -0.0790  0.1456
  811POPS   C4B12570   9.278  15.818   8.210  0.0042 -0.0516  0.1865
  812POPS   CNO12571  16.212   4.635   5.445  0.0584 -0.2473 -0.0664
  812POPS   PO412572  16.561   4.291   5.706 -0.1326  0.2842 -0.0529
  812POPS   GL112573  16.417   4.081   6.148 -0.2831  0.0355 -0.0210
  812POPS   GL212574  16.566   4.205   6.459 -0.1557  0.0055  0.0918
  812POPS   C1A12575  16.017   4.178   6.346  0.0877  0.0268 -0.2429
  812POPS   D2A12576  15.682   4.215   6.611 -0.2195 -0.0564  0.3654
  812POPS   C3A12577  15.841   4.164   6.967 -0.2370 -0.0886 -0.2994
  812POPS   C4A12578  16.033   4.032   7.335  0.1640  0.1139 -0.3495
  812POPS   C1B12579  16.335   4.345   6.835 -0.1145  0.0143 -0.0080
  812POPS   C2B12580  16.209   4.476   7.149 -0.2340  0.1611 -0.0965
  812POPS   C3B12581  16.358   4.444   7.576  0.2430 -0.1006 -0.1136
  812POPS   C4B12582  16.367   4.123   7.837  0.3471 -0.0063  0.0113
  813POPS   CNO12583  10.063  16.549   5.832  0.0271  0.0597  0.1109
  813POPS   PO412584  10.379  16.509   6.023 -0.4682  0.1544  0.1682
  813POPS   GL112585  10.420  16.570   6.448 -0.0614 -0.0563 -0.1516
  813POPS   GL212586  10.629  16.633   6.447 -0.3071  0.0490  0.1621
  813POPS   C1A12587  10.448  16.261   6.709 -0.0194  0.0475  0.0746
  813POPS   D2A12588  10.670  16.122   7.057  0.0358  0.0759  0.2310
  813POPS   C3A12589  10.564  16.184   7.494 -0.0875  0.0732 -0.2146
  813POPS   C4A12590  10.134  16.180   7.602  0.0707 -0.0712 -0.0739
  813POPS   C1B12591  10.772  16.678   6.883 -0.0881 -0.0099 -0.2316
  813POPS   C2B12592  10.923  16.832   7.284  0.1041  0.0250  0.0008
  813POPS   C3B12593  10.950  16.795   7.719  0.1516 -0.0067 -0.3291
  813POPS   C4B12594  11.037  16.922   8.164 -0.0347  0.0033 -0.1432
  814YOPS   CNO12595  16.617  11.650   5.926 -0.2271  0.0744 -0.0251
  814YOPS   PO412596  16.612  12.033   5.700 -0.0295 -0.2141 -0.0802
  814YOPS   GL112597  16.594  12.037   6.271 -0.2111 -0.1212  0.0359
  814YOPS   GL212598  16.346  11.637   6.387 -0.1128 -0.0703  0.3638
  814YOPS   C1A12599  16.515  12.014   6.770 -0.1183  0.1872 -0.2051
  814YOPS   D2A12600  16.506  11.581   6.937  0.0969  0.1453 -0.3069
  814YOPS   C3A12601  16.339  11.410   7.194 -0.1192 -0.0617  0.0537
  814YOPS   C4A12602  16.477  11.216   7.584 -0.0282 -0.1169  0.0988
  814YOPS   C1B12603  16.197  11.233   6.645 -0.3458  0.1545 -0.3449
  814YOPS   C2B12604  16.385  10.982   6.968 -0.0489  0.0475  0.2881
  814YOPS   D3B12605  16.493  10.732   7.315 -0.1821 -0.3722 -0.1893
  814YOPS   C4B12606  16.734  10.763   7.650  0.1132  0.1330 -0.0597
  815YOPS   CNO12607  10.803  13.262   5.956 -0.0908 -0.2860  0.1156
  815YOPS   PO412608  10.720  12.823   5.955 -0.4341 -0.1779  0.0647
  815YOPS   GL112609  10.738  12.903   6.355  0.1075  0.2925 -0.1188
  815YOPS   GL212610  10.817  12.700   6.648 -0.1975  0.1321  0.2049
  815YOPS   C1A12611  10.791  13.260   6.757 -0.0451 -0.0668 -0.0783
  815YOPS   D2A12612  11.009  13.358   7.215  0.1629  0.0411 -0.2492
  815YOPS   C3A12613  11.030  13.425   7.660  0.0645 -0.1796 -0.0192
  815YOPS   C4A12614  11.088  13.140   8.003  0.3745 -0.3105  0.1631
  815YOPS   C1B12615  10.650  12.689   7.081 -0.1477 -0.1453  0.0134
  815YOPS   C2B12616  10.576  12.588   7.550 -0.0563  0.1211 -0.1307
  815YOPS   D3B12617  10.519  12.446   7.961  0.0841 -0.0032  0.4587
  815YOPS   C4B12618  10.326  12.710   8.211 -0.0614 -0.0867 -0.0624
  816YOPS   CNO12619  10.239   9.292   5.475  0.0236  0.2759  0.1607
  816YOPS   PO412620   9.828   9.314   5.649 -0.2762  0.0320 -0.1726
  816YOPS   GL112621   9.665   9.333   6.060  0.1743 -0.1947  0.0646
  816YOPS   GL212622   9.546   9.523   6.284 -0.0019 -0.0136 -0.1273
  816YOPS   C1A12623   9.689   9.068   6.476 -0.0139  0.0845  0.0323
  816YOPS   D2A12624   9.433   8.555   6.610 -0.1737  0.3508 -0.1519
  816YOPS   C3A12625   9.402   8.117   6.393  0.0900  0.5792  0.1216
  816YOPS   C4A12626   9.072   7.964   6.686  0.3606 -0.2108  0.0937
  816YOPS   C1B12627   9.863   9.524   6.541  0.1053 -0.2187 -0.0987
  816YOPS   C2B12628   9.737   9.454   6.985  0.1560  0.1795 -0.1002
  816YOPS   D3B12629   9.889   9.466   7.489  0.5239  0.3315 -0.0838
  816YOPS   C4B12630   9.907   9.883   7.742 -0.2519  0.3416  0.2824
  817YOPS   CNO12631   2.001  12.051   5.749 -0.0646 -0.0192  0.0556
  817YOPS   PO412632   1.650  12.000   5.631  0.1196  0.1816 -0.4807
  817YOPS   GL112633   1.610  11.826   6.059 -0.1615  0.0261 -0.0475
  817YOPS   GL212634   1.508  11.498   6.095  0.1737 -0.0250 -0.2434
  817YOPS   C1A12635   1.757  11.817   6.462 -0.0418  0.2335  0.0326
  817YOPS   D2A12636   1.821  11.526   6.844 -0.2374 -0.5135  0.1570
  817YOPS   C3A12637   1.794  11.622   7.232 -0.0844 -0.2927 -0.4525
  817YOPS   C4A12638   1.988  11.827   7.596  0.1224  0.2958  0.4857
  817YOPS   C1B12639   1.477  11.257   6.550 -0.0604 -0.0859  0.4483
  817YOPS   C2B12640   1.310  11.353   6.897  0.3190  0.2558 -0.1255
  817YOPS   D3B12641   1.124  11.110   7.203  0.0582  0.0963  0.1592
  817YOPS   C4B12642   1.077  10.678   7.261  0.3581 -0.0335 -0.1475
  818YOPS   CNO12643  13.007   1.752   5.560  0.2499  0.0000 -0.1861
  818YOPS   PO412644  13.023   2.112   5.961  0.0225 -0.0802  0.1726
  818YOPS   GL112645  12.785   2.122   6.286 -0.1026  0.2111  0.0638
  818YOPS   GL212646  12.477   2.005   6.446  0.0537  0.0535  0.1459
  818YOPS   C1A12647  12.694   2.458   6.582  0.0648 -0.1584 -0.1333
  818YOPS   D2A12648  12.745   2.530   6.949  0.2365 -0.0983  0.1273
  818YOPS   C3A12649  12.525   2.572   7.417  0.0935  0.3361 -0.0594
  818YOPS   C4A12650  12.380   2.825   7.694  0.0142  0.0143  0.2221
  818YOPS   C1B12651  12.357   2.026   6.870 -0.1997 -0.1246 -0.0029
  818YOPS   C2B12652  12.471   2.137   7.139 -0.0193  0.0297 -0.3818
  818YOPS   D3B12653  12.766   2.124   7.521 -0.1576 -0.2003  0.1189
  818YOPS   C4B12654  12.737   2.393   7.886  0.1719 -0.0506 -0.0950
  819YOPS   CNO12655   1.704  10.142   5.689 -0.0310  0.2122 -0.2101
  819YOPS   PO412656   1.423  10.483   5.663  0.0136 -0.0029 -0.1532
  819YOPS   GL112657   1.538  10.454   6.047  0.1057 -0.1245 -0.0221
  819YOPS   GL212658   1.782  10.411   6.191 -0.2299  0.1663 -0.0933
  819YOPS   C1A12659   1.343  10.181   6.306  0.3060 -0.0806  0.0637
  819YOPS   D2A12660   1.241   9.883   6.560  0.4784 -0.0765 -0.2785
  819YOPS   C3A12661   1.023   9.871   6.883 -0.1414 -0.1209  0.2453
  819YOPS   C4A12662   0.608   9.921   7.102  0.0212 -0.1400  0.0557
  819YOPS   C1B12663   1.573  10.489   6.586  0.1971  0.0264  0.0630
  819YOPS   C2B12664   1.376  10.271   6.887  0.1781 -0.1148  0.0239
  819YOPS   D3B12665   1.237  10.243   7.318  0.2663  0.3063  0.1983
  819YOPS   C4B12666   1.501  10.475   7.610 -0.1530 -0.3515  0.0771
  820YOPS   CNO12667   3.997   8.781   5.726 -0.1856  0.0049 -0.0934
  820YOPS   PO412668   3.640   8.751   5.866  0.2887 -0.2444  0.0901
  820YOPS   GL112669   3.657   8.658   6.325  0.1183 -0.0471 -0.0741
  820YOPS   GL212670   3.390   8.658   6.379  0.1485 -0.1467 -0.1289
  820YOPS   C1A12671   3.746   8.778   6.711  0.0186 -0.2108  0.2045
  820YOPS   D2A12672   3.688   8.795   7.106 -0.0435 -0.1093  0.1034
  820YOPS   C3A12673   3.656   8.835   7.539 -0.3965 -0.2243  0.1124
  820YOPS   C4A12674   3.711   9.096   7.876 -0.1352 -0.0333  0.0868
  820YOPS   C1B12675   3.230   8.703   6.892  0.3867  0.0451 -0.0313
  820YOPS   C2B12676   3.151   8.773   7.340 -0.0689  0.2831 -0.1775
  820YOPS   D3B12677   2.823   8.707   7.529 -0.3382  0.0241  0.0527
  820YOPS   C4B12678   2.846   8.257   7.645  0.2475  0.0682 -0.0381
  821YOPS   CNO12679   0.558   3.253   5.469  0.1143  0.0159 -0.3080
  821YOPS   PO412680   0.769   2.907   5.750  0.1837  0.2313  0.1758
  821YOPS   GL112681   0.775   2.809   6.234 -0.1007 -0.1375  0.0875
  821YOPS   GL212682   0.835   3.193   6.346 -0.1994  0.0165 -0.1253
  821YOPS   C1A12683   0.817   2.602   6.685 -0.1955 -0.0660  0.0264
  821YOPS   D2A12684   0.751   2.668   7.034 -0.0374  0.2082 -0.0078
  821YOPS   C3A12685   0.456   2.764   7.442  0.0507  0.2983  0.1723
  821YOPS   C4A12686  -0.071   2.673   7.497  0.2307 -0.0439 -0.1305
  821YOPS   C1B12687   0.751   3.130   6.751 -0.3850 -0.1624 -0.0250
  821YOPS   C2B12688   0.654   3.181   7.142  0.1584 -0.0999 -0.1687
  821YOPS   D3B12689   0.674   3.143   7.606 -0.1377  0.0184  0.0731
  821YOPS   C4B12690   0.322   3.008   7.893  0.2049  0.0171 -0.2313
  822YOPS   CNO12691   3.324  13.859   5.654 -0.2210  0.1425 -0.0064
  822YOPS   PO412692   3.172  13.756   5.972  0.1752 -0.1338  0.2474
  822YOPS   GL112693   3.112  13.903   6.443  0.1299 -0.4843 -0.1004
  822YOPS   GL212694   2.909  13.732   6.646  0.0779  0.0167  0.2567
  822YOPS   C1A12695   3.153  14.216   6.709  0.2318 -0.0901  0.1268
  822YOPS   D2A12696   3.268  14.403   7.128  0.3830  0.2288 -0.1634
  822YOPS   C3A12697   3.653  14.519   7.446  0.0111  0.4280 -0.1814
  822YOPS   C4A12698   4.047  14.597   7.228 -0.1282  0.1599 -0.3863
  822YOPS   C1B12699   3.028  13.778   7.069  0.1453 -0.0771  0.1016
  822YOPS   C2B12700   2.991  13.859   7.391 -0.2026 -0.1029  0.1934
  822YOPS   D3B12701   3.008  13.861   7.859 -0.1127  0.0309 -0.0869
  822YOPS   C4B12702   2.633  13.808   8.031 -0.0181  0.3213  0.3052
  823YOPS   CNO12703  14.984  17.568   5.622  0.3560 -0.2020  0.2537
  823YOPS   PO412704  15.134  17.311   5.927  0.0217  0.0953 -0.0194
  823YOPS   GL112705  15.237  17.245   6.374 -0.1676 -0.4102 -0.1801
  823YOPS   GL212706  14.984  17.174   6.556 -0.1432  0.1559 -0.1283
  823YOPS   C1A12707  15.487  17.158   6.714 -0.1131  0.2275 -0.0678
  823YOPS   D2A12708  15.915  17.098   6.770 -0.0339 -0.1947  0.0205
  823YOPS   C3A12709  16.315  17.102   6.955  0.3127  0.1549 -0.1019
  823YOPS   C4A12710  16.654  17.278   6.740  0.0138 -0.2427  0.0183
  823YOPS   C1B12711  15.115  17.311   7.015 -0.2280 -0.1194 -0.3253
  823YOPS   C2B12712  15.150  17.439   7.441  0.4454 -0.0105 -0.1761
  823YOPS   D3B12713  15.211  17.775   7.620 -0.0547 -0.0716 -0.0350
  823YOPS   C4B12714  15.277  17.911   8.077  0.2749 -0.0370  0.0412
  824YOPS   CNO12715   7.048  13.088   6.547 -0.3606 -0.0017  0.2259
  824YOPS   PO412716   6.610  13.222   6.342 -0.1334 -0.1855 -0.0214
  824YOPS   GL112717   6.484  13.138   6.737 -0.0682 -0.0918 -0.1041
  824YOPS   GL212718   6.797  13.089   6.961  0.0784  0.2393 -0.1158
  824YOPS   C1A12719   6.303  13.266   7.172  0.1015  0.1764 -0.1646
  824YOPS   D2A12720   6.372  13.184   7.535 -0.0419  0.3240 -0.0652
  824YOPS   C3A12721   6.185  12.986   7.912  0.4594 -0.1199  0.1592
  824YOPS   C4A12722   6.200  13.140   8.323  0.2452 -0.0450  0.0297
  824YOPS   C1B12723   6.947  12.989   7.363 -0.0163 -0.0358  0.0015
  824YOPS   C2B12724   7.052  12.784   7.680 -0.2055 -0.0877  0.2293
  824YOPS   D3B12725   7.278  12.684   8.047 -0.2940  0.2387 -0.2103
  824YOPS   C4B12726   7.084  12.920   8.423 -0.3517  0.0163  0.1156
  825YOPS   CNO12727   6.702   1.027   5.731  0.2813  0.1858  0.1400
  825YOPS   PO412728   6.988   0.628   5.761 -0.0462  0.0397  0.0810
  825YOPS   GL112729   6.936   0.798   6.166 -0.3630  0.1162 -0.3274
  825YOPS   GL212730   6.996   1.166   6.195 -0.3850 -0.2027  0.0203
  825YOPS   C1A12731   6.772   0.924   6.593 -0.0907 -0.0801  0.0762
  825YOPS   D2A12732   6.663   1.060   6.991  0.0007 -0.1012 -0.0513
  825YOPS   C3A12733   6.719   0.812   7.318 -0.0106 -0.0362  0.1112
  825YOPS   C4A12734   6.361   0.512   7.444 -0.0857  0.1744  0.2054
  825YOPS   C1B12735   7.059   1.313   6.600 -0.0592  0.1904 -0.4652
  825YOPS   C2B12736   6.774   1.530   6.961 -0.1375 -0.0580  0.0912
  825YOPS   D3B12737   6.745   1.398   7.384  0.0704 -0.1012 -0.3073
  825YOPS   C4B12738   7.047   1.332   7.734 -0.2037 -0.2654  0.0406
  826YOPS   CNO12739   0.001  12.485   6.804  0.3802  0.4673 -0.2511
  826YOPS   PO412740  -0.265  12.541   6.449 -0.1146 -0.2208  0.0630
  826YOPS   GL112741  -0.515  12.701   6.662  0.0724 -0.0366 -0.0070
  826YOPS   GL212742  -0.686  13.073   6.592  0.4299  0.0395 -0.1839
  826YOPS   C1A12743  -0.757  12.718   7.060 -0.1030  0.1983 -0.1722
  826YOPS   D2A12744  -1.184  12.700   7.198  0.1255 -0.1887  0.3593
  826YOPS   C3A12745  -1.431  12.470   7.314 -0.1160 -0.0954 -0.5282
  826YOPS   C4A12746  -1.622  12.589   7.702 -0.0675  0.2864  0.3426
  826YOPS   C1B12747  -0.697  13.206   6.995 -0.0950  0.1823  0.1789
  826YOPS   C2B12748  -0.688  13.120   7.428  0.0893 -0.2014  0.1720
  826YOPS   D3B12749  -0.361  13.187   7.821  0.0143 -0.3111  0.0168
  826YOPS   C4B12750  -0.565  13.155   8.292  0.2199 -0.1353 -0.2550
  827YOPS   CNO12751   0.698   0.488   5.264 -0.0939 -0.0275 -0.0506
  827YOPS   PO412752   0.735   0.285   5.713  0.3355  0.2070 -0.0721
  827YOPS   GL112753   0.934   0.216   6.146 -0.0801  0.2426 -0.1046
  827YOPS   GL212754   0.783   0.375   6.302  0.3075 -0.2116  0.1928
  827YOPS   C1A12755   1.208   0.003   6.448  0.1365  0.1149  0.2679
  827YOPS   D2A12756   1.216  -0.173   6.856 -0.0414  0.1050  0.0192
  827YOPS   C3A12757   1.345  -0.069   7.205 -0.0958 -0.2463  0.1305
  827YOPS   C4A12758   1.634  -0.383   7.492  0.1406 -0.1042  0.0972
  827YOPS   C1B12759   1.068   0.502   6.615 -0.2045  0.0802 -0.0228
  827YOPS   C2B12760   1.121   0.533   7.019  0.3032 -0.1548 -0.0980
  827YOPS   D3B12761   1.149   0.336   7.452  0.0128 -0.2809  0.1598
  827YOPS   C4B12762   0.877   0.379   7.810  0.0639 -0.3914 -0.0983
  828YOPS   CNO12763   1.188   9.747   5.044  0.1366  0.5210 -0.0368
  828YOPS   PO412764   1.069   9.661   5.494 -0.1954 -0.1429  0.0523
  828YOPS   GL112765   0.919   9.559   5.906 -0.0993  0.1996  0.0674
  828YOPS   GL212766   0.668   9.862   5.910 -0.1053  0.0393  0.4081
  828YOPS   C1A12767   0.904   9.475   6.348  0.1316 -0.0099  0.1387
  828YOPS   D2A12768   0.871   9.399   6.762 -0.1883 -0.1982  0.2293
  828YOPS   C3A12769   0.929   9.457   7.259 -0.0709  0.1396 -0.0551
  828YOPS   C4A12770   0.957   9.866   7.474 -0.1477 -0.2414 -0.2400
  828YOPS   C1B12771   0.817   9.976   6.235  0.4265 -0.0948  0.0060
  828YOPS   C2B12772   0.594   9.854   6.591 -0.2727 -0.0060 -0.0104
  828YOPS   D3B12773   0.184   9.901   6.810 -0.1615 -0.1435 -0.1074
  828YOPS   C4B12774  -0.150   9.882   7.084  0.1395  0.1095  0.0246
  829YOPS   CNO12775   1.129   7.479   5.372  0.0040  0.0341  0.0836
  829YOPS   PO412776   0.927   7.177   5.706 -0.3008  0.3686 -0.0090
  829YOPS   GL112777   1.026   7.005   6.070 -0.1094  0.1555  0.1064
  829YOPS   GL212778   1.196   7.166   6.342 -0.3636  0.2335  0.1817
  829YOPS   C1A12779   1.100   6.683   6.407 -0.2195 -0.1370  0.0131
  829YOPS   D2A12780   1.227   6.267   6.345 -0.0256  0.0461 -0.0625
  829YOPS   C3A12781   1.463   5.848   6.534 -0.2631 -0.0792  0.1323
  829YOPS   C4A12782   1.272   5.926   6.956 -0.0873 -0.2166 -0.0354
  829YOPS   C1B12783   1.057   7.175   6.675  0.1816  0.1729 -0.1293
  829YOPS   C2B12784   0.999   6.950   7.009 -0.2656 -0.1559  0.2914
  829YOPS   D3B12785   0.830   6.855   7.382 -0.1764  0.2852  0.1520
  829YOPS   C4B12786   0.873   7.220   7.671  0.0090  0.0784 -0.1473
  830YOPS   CNO12787  12.388   8.384   5.870 -0.1304  0.0893  0.0428
  830YOPS   PO412788  12.010   8.457   5.869  0.1358  0.2316 -0.0681
  830YOPS   GL112789  11.919   8.484   6.295 -0.3273  0.0825  0.0613
  830YOPS   GL212790  11.721   8.668   6.460 -0.1728 -0.0852  0.1125
  830YOPS   C1A12791  11.934   8.507   6.888 -0.2038 -0.1905  0.2904
  830YOPS   D2A12792  11.653   8.503   7.097  0.1782 -0.1492  0.2215
  830YOPS   C3A12793  11.330   8.742   7.222 -0.0825 -0.0939 -0.1593
  830YOPS   C4A12794  11.364   9.041   7.470 -0.1164  0.0398 -0.2772
  830YOPS   C1B12795  12.105   8.876   6.572  0.2474 -0.0643  0.4099
  830YOPS   C2B12796  12.531   9.050   6.533  0.0353  0.2603  0.0625
  830YOPS   D3B12797  12.937   9.190   6.685 -0.1128  0.0270 -0.0809
  830YOPS   C4B12798  13.348   8.983   6.676 -0.1039 -0.0958 -0.0614
  831YOPS   CNO12799   3.021  13.422   6.259 -0.0711  0.3070  0.0898
  831YOPS   PO412800   3.427  13.185   6.131  0.1886  0.1474  0.0274
  831YOPS   GL112801   3.474  13.119   6.570  0.2240 -0.3580  0.0069
  831YOPS   GL212802   3.403  13.494   6.608 -0.1932 -0.0465 -0.1003
  831YOPS   C1A12803   3.605  12.859   6.906 -0.1335 -0.1702  0.1845
  831YOPS   D2A12804   3.587  12.771   7.303 -0.0016  0.2442 -0.1717
  831YOPS   C3A12805   3.402  13.062   7.514 -0.0052  0.1790  0.3514
  831YOPS   C4A12806   3.350  13.460   7.314  0.2097 -0.1070 -0.1592
  831YOPS   C1B12807   3.762  13.459   6.755  0.1104  0.0550 -0.2826
  831YOPS   C2B12808   3.828  13.279   7.219 -0.1105  0.2268  0.4311
  831YOPS   D3B12809   3.756  13.387   7.649 -0.2119  0.0246  0.1498
  831YOPS   C4B12810   3.445  13.643   7.840  0.0381  0.0356 -0.2605
  832YOPS   CNO12811  16.313   6.325   6.317 -0.1116 -0.2832 -0.1937
  832YOPS   PO412812  16.632   6.636   6.307 -0.0998  0.0431  0.3114
  832YOPS   GL112813  16.876   6.524   6.638 -0.0865 -0.0154 -0.0979
  832YOPS   GL212814  16.515   6.415   6.752  0.1374  0.1251  0.0153
  832YOPS   C1A12815  16.921   6.496   7.114 -0.1443  0.2764  0.0580
  832YOPS   D2A12816  16.899   6.541   7.496 -0.2607 -0.3448  0.3822
  832YOPS   C3A12817  17.219   6.522   7.828  0.0482  0.1839 -0.0274
  832YOPS   C4A12818  17.056   6.818   8.153 -0.2977  0.1966  0.1779
  832YOPS   C1B12819  16.539   6.843   6.920 -0.2019  0.0118  0.1000
  832YOPS   C2B12820  16.736   6.937   7.214 -0.0572 -0.5670 -0.1181
  832YOPS   D3B12821  16.874   7.023   7.651  0.1248 -0.1741 -0.0711
  832YOPS   C4B12822  16.672   7.283   7.909 -0.1504  0.1975 -0.0421
  833YOPS   CNO12823  12.176   5.890   5.985 -0.3169  0.1526 -0.1720
  833YOPS   PO412824  12.341   6.298   6.118  0.2632 -0.3383 -0.0062
  833YOPS   GL112825  12.347   6.295   6.547 -0.1269 -0.0015 -0.2159
  833YOPS   GL212826  12.493   6.138   6.621  0.1460  0.0911 -0.1728
  833YOPS   C1A12827  12.116   6.106   6.885 -0.1111  0.0808 -0.0953
  833YOPS   D2A12828  12.337   5.788   7.007  0.1535 -0.0454 -0.3144
  833YOPS   C3A12829  12.524   5.799   7.362 -0.3547  0.2988  0.0428
  833YOPS   C4A12830  12.512   5.603   7.751  0.1215 -0.0231 -0.4244
  833YOPS   C1B12831  12.795   6.119   7.049  0.2248  0.0220 -0.1259
  833YOPS   C2B12832  12.849   6.274   7.375  0.0755  0.0499 -0.1591
  833YOPS   D3B12833  12.661   6.092   7.781  0.0949 -0.0570  0.4571
  833YOPS   C4B12834  12.945   6.108   8.235  0.1922  0.0086  0.0062
  834YOPS   CNO12835  17.299   0.834   5.745 -0.2223  0.1452  0.2489
  834YOPS   PO412836  17.106   1.244   5.854 -0.0254 -0.1451  0.0852
  834YOPS   GL112837  17.226   1.332   6.265 -0.1527 -0.0727  0.2146
  834YOPS   GL212838  17.360   1.054   6.321 -0.1268 -0.1773  0.1677
  834YOPS   C1A12839  16.954   1.425   6.654 -0.1373 -0.2366 -0.2151
  834YOPS   D2A12840  16.961   1.641   6.939 -0.1772 -0.0995 -0.1504
  834YOPS   C3A12841  17.054   1.885   7.245 -0.1442  0.0793  0.1781
  834YOPS   C4A12842  16.900   2.314   7.328 -0.0977 -0.0340  0.0319
  834YOPS   C1B12843  17.338   1.147   6.757  0.0208  0.0851 -0.4750
  834YOPS   C2B12844  17.142   1.174   7.106  0.1723  0.1007 -0.2368
  834YOPS   D3B12845  16.924   1.466   7.429 -0.2067  0.0464 -0.2046
  834YOPS   C4B12846  16.824   1.474   7.800  0.2212 -0.4146  0.2872
  835YOPS   CNO12847  15.692   5.486   5.757 -0.0083  0.1713  0.3690
  835YOPS   PO412848  15.898   5.075   5.733  0.3154 -0.0731 -0.1855
  835YOPS   GL112849  16.142   5.142   6.145  0.4673 -0.1097 -0.3733
  835YOPS   GL212850  15.847   5.325   6.204  0.2111  0.2608 -0.0059
  835YOPS   C1A12851  16.249   5.569   6.498 -0.0297  0.2399 -0.0881
  835YOPS   D2A12852  16.282   5.892   6.767  0.0586  0.0121  0.0586
  835YOPS   C3A12853  16.421   6.194   7.144 -0.0688 -0.1098  0.2772
  835YOPS   C4A12854  16.462   6.145   7.587  0.0067  0.0384  0.0600
  835YOPS   C1B12855  15.946   5.178   6.643  0.2432  0.2225  0.1619
  835YOPS   C2B12856  16.303   5.354   6.928  0.1519 -0.1870 -0.0733
  835YOPS   D3B12857  16.544   5.653   7.167 -0.0870 -0.1557 -0.2066
  835YOPS   C4B12858  16.576   5.668   7.604 -0.0586  0.0615  0.2797
  836YOPS   CNO12859  17.032   8.452   5.713  0.3471 -0.1606  0.1431
  836YOPS   PO412860  17.148   8.341   6.147 -0.1202 -0.0196 -0.1217
  836YOPS   GL112861  16.977   8.343   6.438  0.2615  0.1899 -0.0249
  836YOPS   GL212862  16.705   8.584   6.300 -0.0650  0.4048 -0.0421
  836YOPS   C1A12863  16.813   8.497   6.818  0.1620  0.1285  0.0369
  836YOPS   D2A12864  17.069   8.525   7.238 -0.2722 -0.2589  0.2406
  836YOPS   C3A12865  17.414   8.400   7.530  0.1373 -0.2737  0.1051
  836YOPS   C4A12866  17.393   8.181   7.892  0.1660 -0.0400  0.1024
  836YOPS   C1B12867  16.366   8.450   6.576 -0.0562 -0.0074 -0.0411
  836YOPS   C2B12868  16.321   8.661   7.079  0.0080 -0.0560  0.2938
  836YOPS   D3B12869  16.415   8.644   7.552  0.0785 -0.2532 -0.2493
  836YOPS   C4B12870  16.868   8.520   7.725  0.0380  0.0259 -0.0540
  837YOPS   CNO12871   3.483   2.626   5.755  0.0007  0.1189 -0.2533
  837YOPS   PO412872   3.884   2.651   5.775  0.0585 -0.1369  0.1895
  837YOPS   GL112873   3.901   2.709   6.183 -0.0076  0.0339  0.0278
  837YOPS   GL212874   3.577   2.686   6.304 -0.0612 -0.0018  0.1862
  837YOPS   C1A12875   4.070   2.797   6.533  0.1681 -0.0201 -0.1737
  837YOPS   D2A12876   4.218   2.885   6.956  0.0518 -0.1531 -0.0125
  837YOPS   C3A12877   4.604   2.775   7.187  0.2389  0.3433 -0.0976
  837YOPS   C4A12878   4.680   2.876   7.664  0.0760 -0.0327 -0.1620
  837YOPS   C1B12879   3.637   2.866   6.758 -0.1492  0.0652 -0.0990
  837YOPS   C2B12880   3.770   2.817   7.147  0.1867  0.2302 -0.1060
  837YOPS   D3B12881   3.659   2.808   7.569 -0.0405  0.1029 -0.0268
  837YOPS   C4B12882   4.125   2.738   7.726  0.3060  0.1058  0.2415
  838YOPS   CNO12883  10.246  17.561   5.752  0.1383 -0.0473 -0.1728
  838YOPS   PO412884  10.527  17.452   6.015 -0.2435 -0.4921  0.0651
  838YOPS   GL112885  10.492  17.412   6.384 -0.0780 -0.0473  0.1001
  838YOPS   GL212886  10.361  17.151   6.468 -0.0751 -0.0034  0.0235
  838YOPS   C1A12887  10.599  17.576   6.764  0.2859 -0.2137 -0.1215
  838YOPS   D2A12888  10.767  17.661   7.090  0.0371  0.1851  0.1538
  838YOPS   C3A12889  10.778  17.749   7.472 -0.0794  0.2789  0.1381
  838YOPS   C4A12890  10.475  17.542   7.750 -0.1508 -0.0459 -0.0039
  838YOPS   C1B12891  10.444  17.023   6.937  0.0340  0.0594  0.2214
  838YOPS   C2B12892  10.554  17.238   7.260  0.1185 -0.1063  0.1790
  838YOPS   D3B12893  10.852  17.251   7.674 -0.0207  0.1401 -0.2222
  838YOPS   C4B12894  10.894  17.428   8.099  0.0586 -0.1801 -0.0461
  839YOPS   CNO12895  13.468  16.002   5.678  0.2759 -0.1890 -0.2847
  839YOPS   PO412896  13.481  16.367   5.946  0.1512  0.0879  0.2230
  839YOPS   GL112897  13.278  16.105   6.233 -0.1905 -0.2530 -0.2259
  839YOPS   GL212898  13.507  15.984   6.352  0.0766 -0.1936  0.0891
  839YOPS   C1A12899  12.978  16.050   6.602  0.1898  0.1734  0.1473
  839YOPS   D2A12900  13.004  16.087   7.137 -0.0706 -0.0035 -0.0754
  839YOPS   C3A12901  13.086  16.131   7.545  0.1341  0.3013  0.0402
  839YOPS   C4A12902  13.173  16.080   7.981  0.1404 -0.0400  0.0910
  839YOPS   C1B12903  13.492  15.959   6.776  0.3326  0.1107  0.1185
  839YOPS   C2B12904  13.807  15.946   6.983 -0.1818 -0.0578  0.0469
  839YOPS   D3B12905  13.967  15.914   7.341  0.0347 -0.1250  0.3529
  839YOPS   C4B12906  14.038  16.181   7.626  0.4070  0.0519  0.1600
  840YOPS   CNO12907   3.538  11.666   6.292  0.2059  0.0493 -0.1134
  840YOPS   PO412908   3.630  12.020   6.168 -0.0529  0.3055  0.3372
  840YOPS   GL112909   3.703  12.073   6.595 -0.1831 -0.0600 -0.0882
  840YOPS   GL212910   3.937  11.854   6.604 -0.1965 -0.0431 -0.1189
  840YOPS   C1A12911   3.831  12.480   6.744 -0.0074  0.0444 -0.2183
  840YOPS   D2A12912   4.052  12.852   6.520 -0.0529 -0.0526 -0.1156
  840YOPS   C3A12913   4.243  13.233   6.662 -0.0837  0.0006  0.0165
  840YOPS   C4A12914   4.352  13.291   7.094 -0.0810 -0.1110 -0.0768
  840YOPS   C1B12915   3.873  12.009   7.024 -0.2876 -0.0474  0.1249
  840YOPS   C2B12916   3.923  12.404   7.251 -0.4327  0.0190  0.0202
  840YOPS   D3B12917   4.072  12.782   7.124 -0.1393 -0.1787  0.2663
  840YOPS   C4B12918   4.452  12.837   6.905 -0.0635 -0.0895  0.0641
  841YOPS   CNO12919   9.383   5.743   5.956 -0.0678  0.1317 -0.1101
  841YOPS   PO412920   9.024   6.015   5.890 -0.2610  0.1369 -0.0245
  841YOPS   GL112921   9.245   5.999   6.344 -0.0449  0.1470 -0.0997
  841YOPS   GL212922   9.339   5.718   6.438 -0.2298 -0.2289 -0.1980
  841YOPS   C1A12923   9.354   6.103   6.784 -0.1360  0.3051  0.2922
  841YOPS   D2A12924   9.404   6.079   7.197 -0.0182 -0.0634  0.0035
  841YOPS   C3A12925   9.359   5.932   7.645  0.4253  0.0807  0.2971
  841YOPS   C4A12926   9.222   6.284   7.804 -0.1768 -0.0833  0.1248
  841YOPS   C1B12927   9.071   5.641   6.823 -0.1490 -0.2976  0.3880
  841YOPS   C2B12928   9.035   5.622   7.251 -0.0439  0.3799 -0.0715
  841YOPS   D3B12929   9.008   5.530   7.700  0.0473 -0.2160  0.1603
  841YOPS   C4B12930   8.794   5.918   7.837  0.0172 -0.0358 -0.2013
  842YOPS   CNO12931   7.910   3.848   5.364  0.0919  0.3196 -0.2524
  842YOPS   PO412932   7.765   4.278   5.345 -0.1611  0.3362  0.0249
  842YOPS   GL112933   7.822   4.131   5.794  0.0711 -0.0270 -0.0360
  842YOPS   GL212934   8.000   4.063   5.944  0.1434  0.3586  0.3566
  842YOPS   C1A12935   7.518   4.097   6.139 -0.0942 -0.0146 -0.0278
  842YOPS   D2A12936   7.521   4.234   6.501  0.2046 -0.1202 -0.1086
  842YOPS   C3A12937   7.238   4.398   6.860  0.1038 -0.1331 -0.3716
  842YOPS   C4A12938   7.195   4.841   6.902  0.0067  0.3151  0.2817
  842YOPS   C1B12939   8.017   3.859   6.314 -0.1623 -0.1356  0.1268
  842YOPS   C2B12940   8.018   3.495   6.593  0.1140  0.0177 -0.0533
  842YOPS   D3B12941   7.674   3.156   6.651  0.1447 -0.0942 -0.0932
  842YOPS   C4B12942   7.294   3.212   6.448 -0.2511  0.1344  0.0084
  843YOPS   CNO12943   8.253   7.912   6.171 -0.0411  0.0576 -0.2094
  843YOPS   PO412944   7.874   7.820   6.206 -0.3982  0.0923  0.0001
  843YOPS   GL112945   7.855   7.848   6.553 -0.2477  0.2485 -0.0554
  843YOPS   GL212946   7.564   7.871   6.799  0.0690  0.0406  0.0688
  843YOPS   C1A12947   8.082   7.984   6.951  0.4168  0.1752 -0.2303
  843YOPS   D2A12948   8.213   8.119   7.280  0.1436  0.2289 -0.2595
  843YOPS   C3A12949   8.252   8.298   7.594 -0.1167 -0.0860 -0.1624
  843YOPS   C4A12950   8.594   8.462   7.727 -0.0822  0.0990 -0.3348
  843YOPS   C1B12951   7.648   7.939   7.184 -0.0426  0.0746 -0.0801
  843YOPS   C2B12952   7.800   8.036   7.600  0.1046  0.0746  0.1081
  843YOPS   D3B12953   7.995   7.964   7.966 -0.1640 -0.1413 -0.1483
  843YOPS   C4B12954   8.397   8.025   8.005 -0.1282  0.3484  0.0791
  844POPE   NH312955  11.329  11.674   6.059 -0.2061  0.0204  0.1383
  844POPE   PO412956  11.230  12.148   6.052  0.2399 -0.1206 -0.2257
  844POPE   GL112957  11.131  12.104   6.410 -0.1062 -0.0308  0.2365
  844POPE   GL212958  10.896  12.139   6.521 -0.2260  0.0476 -0.0034
  844POPE   C1A12959  11.205  11.949   6.806 -0.0263 -0.3494 -0.1450
  844POPE   D2A12960  11.069  11.905   7.240  0.2341  0.1611  0.3118
  844POPE   C3A12961  11.193  11.898   7.704 -0.3401  0.0626 -0.0056
  844POPE   C4A12962  11.293  12.173   8.102 -0.1350  0.0766  0.0458
  844POPE   C1B12963  10.862  12.280   6.935 -0.1483  0.1531 -0.1412
  844POPE   C2B12964  11.024  12.431   7.294  0.2452 -0.0034  0.4173
  844POPE   C3B12965  11.082  12.455   7.708 -0.1183  0.2045 -0.0491
  844POPE   C4B12966  10.935  12.554   8.151 -0.3900 -0.0818 -0.0274
  845POPE   NH312967   6.310   5.663   5.907 -0.0806  0.2438 -0.3305
  845POPE   PO412968   6.380   5.225   5.898  0.0531  0.0415 -0.3002
  845POPE   GL112969   6.477   5.331   6.313  0.0754 -0.0659  0.2646
  845POPE   GL212970   6.342   5.469   6.454  0.1305  0.1852  0.0370
  845POPE   C1A12971   6.738   5.149   6.646  0.0753 -0.2251  0.0794
  845POPE   D2A12972   6.671   4.830   6.991 -0.0238  0.0753  0.2827
  845POPE   C3A12973   6.852   4.587   7.201  0.1179  0.0245  0.1714
  845POPE   C4A12974   7.249   4.361   7.323 -0.1251  0.0265  0.0062
  845POPE   C1B12975   6.411   5.433   6.883  0.1340 -0.0569  0.2714
  845POPE   C2B12976   6.457   5.176   7.265 -0.3336 -0.3273  0.0324
  845POPE   C3B12977   6.534   4.834   7.593 -0.0070  0.0244  0.2323
  845POPE   C4B12978   6.805   4.647   7.937  0.0431  0.3314 -0.0800
  846POPE   NH312979   4.321   4.962   6.032  0.3443 -0.2337 -0.0331
  846POPE   PO412980   3.928   4.890   6.107  0.2752 -0.0662  0.1196
  846POPE   GL112981   3.730   5.074   6.470  0.1514 -0.0844  0.0169
  846POPE   GL212982   3.876   4.813   6.599 -0.3371 -0.0569 -0.1034
  846POPE   C1A12983   3.436   5.081   6.754 -0.4156  0.0670 -0.1491
  846POPE   D2A12984   3.596   5.087   7.143 -0.0332  0.2283  0.2150
  846POPE   C3A12985   3.431   5.087   7.540  0.0115  0.2457 -0.0472
  846POPE   C4A12986   3.331   4.743   7.886  0.1810  0.0311 -0.1521
  846POPE   C1B12987   3.996   4.734   6.995  0.1520 -0.0353 -0.2975
  846POPE   C2B12988   3.781   4.707   7.353 -0.1593  0.2994  0.3281
  846POPE   C3B12989   3.789   4.801   7.792 -0.1152  0.1999  0.3155
  846POPE   C4B12990   3.651   4.625   8.275  0.2929 -0.0450 -0.0216
  847POPE   NH312991   7.700  11.584   6.064 -0.1223  0.1780 -0.2882
  847POPE   PO412992   7.665  11.150   5.988 -0.0617  0.1684  0.1038
  847POPE   GL112993   7.639  11.138   6.413  0.0543 -0.1822 -0.3462
  847POPE   GL212994   7.540  10.889   6.512  0.0253 -0.0396 -0.1437
  847POPE   C1A12995   7.922  11.399   6.681  0.1717 -0.1703 -0.0237
  847POPE   D2A12996   8.031  11.450   7.123  0.0852 -0.0772 -0.1889
  847POPE   C3A12997   7.910  11.608   7.559  0.1073  0.0134  0.0832
  847POPE   C4A12998   8.004  12.038   7.934  0.0981 -0.1907  0.0321
  847POPE   C1B12999   7.632  11.018   6.884  0.2407  0.3779 -0.3662
  847POPE   C2B13000   7.776  11.094   7.316  0.3222 -0.0719 -0.2009
  847POPE   C3B13001   8.209  11.100   7.478 -0.0273 -0.0254 -0.2067
  847POPE   C4B13002   8.564  11.038   7.710  0.1086  0.1250 -0.1879
  848POPE   NH313003  16.945   0.748   6.058 -0.2074 -0.0437 -0.1945
  848POPE   PO413004  16.583   0.434   5.907 -0.0542  0.2148 -0.0318
  848POPE   GL113005  16.679   0.565   6.422 -0.2064  0.1091 -0.0273
  848POPE   GL213006  16.364   0.731   6.411 -0.2230 -0.1842 -0.2383
  848POPE   C1A13007  16.785   0.358   6.753 -0.0574  0.0703 -0.0001
  848POPE   D2A13008  16.863   0.310   7.234 -0.0130 -0.0638  0.0542
  848POPE   C3A13009  16.786  -0.028   7.555  0.1794  0.1548 -0.0564
  848POPE   C4A13010  16.807  -0.373   7.836  0.0548  0.0432  0.3106
  848POPE   C1B13011  16.687   0.895   6.770  0.1922 -0.1512  0.1543
  848POPE   C2B13012  16.753   0.787   7.169 -0.0132  0.0395  0.0822
  848POPE   C3B13013  16.675   1.054   7.590 -0.2439  0.0844  0.0441
  848POPE   C4B13014  16.429   0.906   7.851  0.0229 -0.0259  0.0225
  849POPE   NH313015  14.678  17.308   6.157 -0.2017  0.1964 -0.0209
  849POPE   PO413016  14.210  17.379   6.051  0.0395 -0.0254 -0.1547
  849POPE   GL113017  14.061  17.530   6.449  0.0595 -0.1856 -0.1460
  849POPE   GL213018  14.098  17.801   6.624  0.1541 -0.3930  0.1622
  849POPE   C1A13019  13.816  17.354   6.689 -0.0512 -0.0805 -0.2050
  849POPE   D2A13020  13.514  17.393   7.099 -0.1808 -0.1879  0.0183
  849POPE   C3A13021  13.640  17.421   7.529  0.1873  0.0505  0.2687
  849POPE   C4A13022  13.532  17.389   7.943  0.2110  0.2640 -0.1575
  849POPE   C1B13023  13.835  17.799   7.001 -0.0050 -0.0454 -0.0821
  849POPE   C2B13024  13.778  17.982   7.401 -0.0493 -0.1028 -0.0180
  849POPE   C3B13025  13.768  18.279   7.824 -0.4246  0.0264  0.1632
  849POPE   C4B13026  13.899  18.506   8.104  0.0468 -0.0943 -0.0916
  850POPE   NH313027   5.199   8.133   6.194  0.0777 -0.3857  0.0031
  850POPE   PO413028   4.982   8.448   5.903 -0.2567 -0.0634  0.4909
  850POPE   GL113029   4.801   8.591   6.331 -0.2030 -0.0986  0.2033
  850POPE   GL213030   4.748   8.331   6.392 -0.0478  0.0238  0.1538
  850POPE   C1A13031   4.524   8.853   6.568 -0.0922  0.1721 -0.1073
  850POPE   D2A13032   4.148   9.050   6.634 -0.1908 -0.1285 -0.0397
  850POPE   C3A13033   4.041   9.084   7.047 -0.0503 -0.0418  0.1759
  850POPE   C4A13034   3.892   9.267   7.406 -0.0622  0.0086 -0.2173
  850POPE   C1B13035   4.705   8.527   6.853  0.0517  0.0302  0.2822
  850POPE   C2B13036   4.446   8.813   7.020  0.1389 -0.2960  0.1418
  850POPE   C3B13037   4.204   8.799   7.386 -0.0123 -0.0480  0.2002
  850POPE   C4B13038   4.146   8.795   7.893  0.1936  0.1914 -0.0592
  851POPE   NH313039   9.293   7.223   5.922  0.2327  0.3301 -0.3170
  851POPE   PO413040   9.026   6.896   5.894 -0.1436  0.2161 -0.1535
  851POPE   GL113041   9.171   6.922   6.361  0.0840  0.1246  0.1178
  851POPE   GL213042   9.410   7.067   6.394 -0.3159  0.0145 -0.2393
  851POPE   C1A13043   8.965   7.005   6.841  0.2558  0.1380 -0.1698
  851POPE   D2A13044   8.886   6.779   7.190  0.0329  0.0427 -0.4775
  851POPE   C3A13045   8.995   7.010   7.521  0.0539  0.3467  0.2138
  851POPE   C4A13046   8.913   7.221   7.904  0.0429  0.0635  0.1320
  851POPE   C1B13047   9.490   7.108   6.715 -0.2692  0.2347  0.1151
  851POPE   C2B13048   9.384   7.062   7.170 -0.0740 -0.1439 -0.1532
  851POPE   C3B13049   9.458   7.254   7.590  0.0598 -0.1733  0.0998
  851POPE   C4B13050   9.619   7.112   8.075  0.0201 -0.0221 -0.1424
  852POPE   NH313051  16.437   4.967   5.727 -0.0732 -0.2509  0.1905
  852POPE   PO413052  16.807   4.734   5.908 -0.0414 -0.0205  0.0538
  852POPE   GL113053  16.622   4.986   6.219 -0.0148  0.0479  0.0284
  852POPE   GL213054  16.447   4.693   6.289 -0.2206  0.1475  0.2203
  852POPE   C1A13055  16.452   5.088   6.551 -0.1671 -0.3174 -0.3028
  852POPE   D2A13056  16.424   4.848   6.841 -0.2873 -0.0315 -0.0853
  852POPE   C3A13057  16.389   4.952   7.244  0.1346 -0.3469 -0.1883
  852POPE   C4A13058  16.247   5.331   7.491  0.1865 -0.1026 -0.1512
  852POPE   C1B13059  15.984   4.746   6.402  0.2855 -0.0090  0.2840
  852POPE   C2B13060  15.796   4.700   6.803  0.0003 -0.0231 -0.2992
  852POPE   C3B13061  15.762   4.565   7.243  0.0978  0.0535 -0.0719
  852POPE   C4B13062  15.717   4.375   7.638  0.0055  0.1890 -0.2064
  853POPE   NH313063  13.355  10.397   5.973  0.0980  0.0788 -0.0581
  853POPE   PO413064  13.590  10.676   5.919  0.0535  0.0144  0.1094
  853POPE   GL113065  13.467  10.772   6.316  0.0954 -0.1544 -0.1099
  853POPE   GL213066  13.234  11.008   6.366 -0.0124  0.0561  0.1902
  853POPE   C1A13067  13.767  10.730   6.649 -0.1888  0.0591  0.0999
  853POPE   D2A13068  14.043  10.509   7.032 -0.1251  0.0361  0.1774
  853POPE   C3A13069  14.189  10.552   7.400  0.2036  0.1694 -0.0494
  853POPE   C4A13070  14.117  10.567   7.757 -0.1114 -0.1146 -0.1551
  853POPE   C1B13071  12.986  11.201   6.780  0.1495  0.0034 -0.2769
  853POPE   C2B13072  12.904  11.184   7.182 -0.1835  0.0435  0.0110
  853POPE   C3B13073  13.023  11.157   7.601  0.1509  0.1985  0.0026
  853POPE   C4B13074  12.917  11.589   7.865 -0.2024 -0.0019  0.0357
  854POPE   NH313075  12.345  14.447   5.830 -0.1107 -0.0427  0.0942
  854POPE   PO413076  12.150  14.889   5.667  0.0914  0.0333  0.3215
  854POPE   GL113077  12.073  14.808   6.111 -0.1871  0.2286  0.3363
  854POPE   GL213078  12.287  15.037   6.262 -0.2432 -0.1422  0.2442
  854POPE   C1A13079  11.947  14.892   6.575  0.3204 -0.0577  0.0423
  854POPE   D2A13080  12.020  15.117   6.843  0.0057 -0.0309  0.0248
  854POPE   C3A13081  11.871  15.050   7.351  0.0094 -0.1462  0.0855
  854POPE   C4A13082  12.061  15.153   7.617 -0.2279 -0.0641 -0.3136
  854POPE   C1B13083  12.447  14.965   6.749  0.1728 -0.0013 -0.0620
  854POPE   C2B13084  12.322  14.841   7.132 -0.1696 -0.1438  0.0337
  854POPE   C3B13085  12.461  14.910   7.513 -0.0321  0.1671  0.0632
  854POPE   C4B13086  12.445  15.003   7.924 -0.0050  0.0845 -0.0512
  855POPE   NH313087   7.035   2.010   5.823  0.0235 -0.0993  0.1544
  855POPE   PO413088   6.845   1.526   5.779 -0.1462 -0.0507 -0.0460
  855POPE   GL113089   7.045   1.654   6.263 -0.2259 -0.0409 -0.1697
  855POPE   GL213090   7.338   1.618   6.226  0.0715  0.0886  0.1584
  855POPE   C1A13091   6.935   1.904   6.638  0.1587 -0.0749  0.1266
  855POPE   D2A13092   6.545   2.096   6.782  0.0821 -0.3532  0.2126
  855POPE   C3A13093   6.247   1.789   6.942 -0.2020 -0.0469  0.0339
  855POPE   C4A13094   5.889   1.758   7.158  0.1132  0.2084  0.2462
  855POPE   C1B13095   7.414   1.730   6.577  0.0935  0.1380 -0.1514
  855POPE   C2B13096   7.330   1.731   6.939  0.1403 -0.2940  0.0129
  855POPE   C3B13097   7.124   1.721   7.368  0.0886  0.1291 -0.2238
  855POPE   C4B13098   6.796   1.895   7.699 -0.0142  0.2586  0.3569
  856POPE   NH313099  13.877  11.734   6.356  0.0752  0.0923 -0.0772
  856POPE   PO413100  14.221  12.069   6.368  0.0138 -0.0544  0.2222
  856POPE   GL113101  14.136  11.995   6.778 -0.1775 -0.0605 -0.0386
  856POPE   GL213102  14.252  11.654   6.705  0.1357  0.3004 -0.2504
  856POPE   C1A13103  14.181  12.218   7.102 -0.0125  0.1202  0.1393
  856POPE   D2A13104  13.907  12.205   7.328  0.0794  0.0950  0.0996
  856POPE   C3A13105  13.687  12.376   7.672 -0.1099 -0.0974 -0.2626
  856POPE   C4A13106  13.552  12.731   7.813 -0.3928 -0.1194 -0.2006
  856POPE   C1B13107  14.362  11.379   7.069  0.3247 -0.0027  0.2833
  856POPE   C2B13108  14.325  11.373   7.499  0.1675 -0.2747 -0.0882
  856POPE   C3B13109  14.252  11.516   7.931  0.1205  0.0029  0.0731
  856POPE   C4B13110  14.368  11.291   8.300 -0.2015  0.1001  0.0859
  857POPE   NH313111   2.899   0.082   5.719  0.2089 -0.0578 -0.0243
  857POPE   PO413112   2.563   0.408   5.808  0.0587 -0.1539 -0.1780
  857POPE   GL113113   2.610   0.379   6.248 -0.1068  0.1092  0.0215
  857POPE   GL213114   2.921   0.211   6.233 -0.1964 -0.1835 -0.1673
  857POPE   C1A13115   2.596   0.302   6.698 -0.0087  0.3125  0.0421
  857POPE   D2A13116   2.622   0.265   7.214  0.0141  0.0687  0.3354
  857POPE   C3A13117   2.745   0.539   7.564 -0.2217 -0.0093 -0.0397
  857POPE   C4A13118   2.455   0.477   7.882  0.1332 -0.1623  0.2624
  857POPE   C1B13119   3.055   0.233   6.660 -0.1624 -0.2244 -0.2683
  857POPE   C2B13120   3.067   0.307   6.998  0.3117 -0.3604  0.1582
  857POPE   C3B13121   3.187   0.361   7.473 -0.3861  0.3385 -0.1659
  857POPE   C4B13122   3.520   0.406   7.691  0.0983  0.0489  0.0202
  858POPE   NH313123   1.107   9.122   5.786  0.0827 -0.0220 -0.1261
  858POPE   PO413124   0.719   9.119   5.717  0.1979 -0.0608 -0.1513
  858POPE   GL113125   0.709   9.015   6.185  0.0813 -0.0087  0.1043
  858POPE   GL213126   0.504   8.764   6.190  0.1296  0.2725  0.0467
  858POPE   C1A13127   0.557   8.989   6.595 -0.0722 -0.0398  0.2643
  858POPE   D2A13128   0.520   8.842   7.087  0.0304 -0.0011  0.0368
  858POPE   C3A13129   0.548   9.168   7.342  0.1136  0.1110 -0.0504
  858POPE   C4A13130   0.508   9.515   7.618 -0.0209  0.5077 -0.0898
  858POPE   C1B13131   0.650   8.484   6.530  0.1626 -0.0159 -0.2078
  858POPE   C2B13132   0.913   8.389   6.862  0.1263  0.0376  0.1351
  858POPE   C3B13133   0.919   8.421   7.304  0.1380 -0.0014 -0.2897
  858POPE   C4B13134   0.806   8.546   7.769 -0.2053  0.2025 -0.0077
  859POPE   NH313135  14.066   4.426   5.747  0.1229  0.1469 -0.1812
  859POPE   PO413136  13.696   4.198   5.754 -0.2788 -0.2943 -0.1645
  859POPE   GL113137  13.894   4.220   6.189 -0.0810 -0.2137 -0.0686
  859POPE   GL213138  13.674   4.235   6.372  0.0903  0.0984  0.3024
  859POPE   C1A13139  14.115   4.113   6.558 -0.0710  0.0010  0.0703
  859POPE   D2A13140  14.312   4.240   6.920 -0.0230 -0.1081  0.1447
  859POPE   C3A13141  14.413   3.885   7.224  0.3824 -0.0108  0.1961
  859POPE   C4A13142  14.597   3.731   7.613  0.2656  0.1958 -0.0562
  859POPE   C1B13143  13.759   4.381   6.739  0.0540 -0.1678 -0.0172
  859POPE   C2B13144  13.757   4.217   7.151 -0.0848  0.2002  0.1068
  859POPE   C3B13145  14.055   4.071   7.512  0.0927  0.2977 -0.0541
  859POPE   C4B13146  14.362   4.044   7.857  0.0648 -0.1532  0.3625
  860POPE   NH313147   3.928   4.109   5.864  0.1249  0.0011 -0.1430
  860POPE   PO413148   4.315   3.960   6.158 -0.1234 -0.2572 -0.1704
  860POPE   GL113149   4.369   4.024   6.547 -0.0268 -0.0580 -0.0690
  860POPE   GL213150   4.241   4.227   6.728  0.1014 -0.1792  0.3382
  860POPE   C1A13151   4.398   3.888   7.036 -0.2245 -0.1094  0.1477
  860POPE   D2A13152   4.150   3.696   7.330 -0.1806 -0.1337  0.2388
  860POPE   C3A13153   3.996   3.966   7.676 -0.0127 -0.2132  0.1407
  860POPE   C4A13154   4.258   4.019   7.952  0.2760 -0.0886 -0.1372
  860POPE   C1B13155   4.474   4.369   7.141  0.0101  0.0505 -0.0900
  860POPE   C2B13156   4.499   4.131   7.489 -0.1653  0.2505 -0.0925
  860POPE   C3B13157   4.560   3.785   7.619 -0.2202 -0.0831  0.2424
  860POPE   C4B13158   4.694   3.768   7.976  0.0858  0.0642  0.1397
  861POPE   NH313159   2.732  11.246   6.045  0.0412 -0.1970  0.1727
  861POPE   PO413160   2.628  11.603   5.930 -0.0259 -0.2934 -0.0349
  861POPE   GL113161   2.457  11.619   6.361 -0.1133  0.0694 -0.2120
  861POPE   GL213162   2.414  11.351   6.471  0.1457  0.2503 -0.2264
  861POPE   C1A13163   2.291  11.761   6.792  0.2122 -0.0340 -0.5131
  861POPE   D2A13164   2.302  11.745   7.196 -0.1800  0.0440  0.0157
  861POPE   C3A13165   2.568  11.485   7.446 -0.4226 -0.0268 -0.3932
  861POPE   C4A13166   3.032  11.541   7.542  0.0612  0.0776  0.1905
  861POPE   C1B13167   2.282  11.222   6.845  0.0231  0.0917  0.0319
  861POPE   C2B13168   2.167  11.250   7.249 -0.1107 -0.4550  0.2507
  861POPE   C3B13169   2.084  11.327   7.624 -0.0559  0.0831  0.0426
  861POPE   C4B13170   1.791  11.391   8.034  0.2398  0.0505  0.2130
  862POPE   NH313171  15.402  10.248   5.942  0.0740 -0.0525 -0.2227
  862POPE   PO413172  15.679   9.949   5.831  0.0763  0.2186 -0.0988
  862POPE   GL113173  15.569   9.867   6.217 -0.2089  0.0474  0.0876
  862POPE   GL213174  15.783  10.032   6.286  0.0149  0.0184  0.1950
  862POPE   C1A13175  15.584   9.777   6.658  0.1545  0.2576 -0.0868
  862POPE   D2A13176  15.798   9.436   6.895  0.1937  0.2407 -0.1275
  862POPE   C3A13177  15.838   9.478   7.254 -0.1839  0.2385  0.3875
  862POPE   C4A13178  15.910   9.352   7.606  0.1471 -0.0621  0.1149
  862POPE   C1B13179  15.838  10.227   6.675 -0.2975  0.3419  0.0355
  862POPE   C2B13180  15.820  10.115   7.035  0.1268  0.2496  0.3088
  862POPE   C3B13181  15.834  10.015   7.494  0.0687  0.2317  0.1274
  862POPE   C4B13182  15.750  10.032   7.897  0.2767  0.1103  0.0694
  863POPE   NH313183   2.086  14.938   6.115  0.0311 -0.0100 -0.0477
  863POPE   PO413184   1.896  14.565   6.204  0.1377  0.4684  0.0873
  863POPE   GL113185   1.930  14.345   6.623 -0.0775 -0.0707 -0.0800
  863POPE   GL213186   1.790  14.060   6.624  0.1602 -0.1145 -0.0818
  863POPE   C1A13187   1.789  14.403   7.062 -0.2000 -0.0415  0.0122
  863POPE   D2A13188   1.892  14.303   7.415  0.1041 -0.2331  0.0504
  863POPE   C3A13189   1.950  14.703   7.707  0.0619  0.0606  0.0580
  863POPE   C4A13190   1.834  14.818   8.129  0.2223 -0.4050 -0.0320
  863POPE   C1B13191   1.645  13.905   6.979  0.1160 -0.3820  0.0754
  863POPE   C2B13192   1.410  14.140   7.308  0.1896  0.3152 -0.1133
  863POPE   C3B13193   1.363  14.442   7.632  0.0870  0.1328 -0.1050
  863POPE   C4B13194   1.402  14.580   8.096 -0.4196  0.0794 -0.0086
  864POPE   NH313195   9.937  17.505   6.155  0.0056 -0.3219 -0.3956
  864POPE   PO413196   9.619  17.298   5.913 -0.1744 -0.0526 -0.1144
  864POPE   GL113197   9.565  17.219   6.365 -0.2606  0.1835  0.1502
  864POPE   GL213198   9.863  17.098   6.538  0.0895  0.4101  0.1615
  864POPE   C1A13199   9.550  17.424   6.761 -0.0340 -0.0572  0.0189
  864POPE   D2A13200   9.439  17.402   7.231 -0.0262 -0.1198 -0.1102
  864POPE   C3A13201   9.360  17.819   7.476 -0.1557 -0.0640  0.0334
  864POPE   C4A13202   9.440  17.782   7.924  0.1949 -0.0007  0.1452
  864POPE   C1B13203   9.960  17.024   6.943  0.0184 -0.0048 -0.1204
  864POPE   C2B13204  10.096  16.940   7.304 -0.0864 -0.0794 -0.1637
  864POPE   C3B13205   9.969  16.685   7.615 -0.0582 -0.0146 -0.0627
  864POPE   C4B13206   9.790  16.536   8.069 -0.0303  0.1921  0.0444
  865POPE   NH313207  17.077   5.177   5.980 -0.0513  0.1481  0.0498
  865POPE   PO413208  17.492   5.554   5.950 -0.0167  0.2349  0.1574
  865POPE   GL113209  17.468   5.354   6.366  0.0595 -0.2252 -0.0068
  865POPE   GL213210  17.151   5.223   6.461 -0.0805 -0.3477  0.0739
  865POPE   C1A13211  17.674   5.240   6.776  0.1502  0.4817 -0.5070
  865POPE   D2A13212  17.640   5.188   7.200 -0.0176  0.3339 -0.0629
  865POPE   C3A13213  17.724   4.943   7.457  0.2721  0.0042 -0.0656
  865POPE   C4A13214  17.836   4.569   7.367 -0.1242 -0.0366 -0.0651
  865POPE   C1B13215  17.206   5.034   6.818  0.1509 -0.3113 -0.0412
  865POPE   C2B13216  17.182   4.997   7.268 -0.2200 -0.0657 -0.0697
  865POPE   C3B13217  17.288   5.146   7.654  0.2151  0.1637 -0.5030
  865POPE   C4B13218  17.453   5.073   8.040  0.1976 -0.7347 -0.2108
  866POPE   NH313219   1.641   5.640   6.086  0.3770 -0.3332 -0.0939
  866POPE   PO413220   2.072   5.536   6.139  0.2753 -0.1109 -0.1333
  866POPE   GL113221   1.977   5.690   6.547 -0.1343  0.0760 -0.1520
  866POPE   GL213222   2.168   5.552   6.761 -0.0905 -0.0419 -0.1608
  866POPE   C1A13223   1.833   5.827   6.990  0.1459 -0.0377 -0.2173
  866POPE   D2A13224   1.997   5.797   7.441  0.1175 -0.0013 -0.3691
  866POPE   C3A13225   1.953   5.583   7.652  0.0758 -0.0703  0.0119
  866POPE   C4A13226   2.152   5.363   8.003 -0.0135  0.0086 -0.0681
  866POPE   C1B13227   2.406   5.834   7.173  0.0788  0.0362 -0.0998
  866POPE   C2B13228   2.466   5.803   7.553  0.1821 -0.0448 -0.0734
  866POPE   C3B13229   2.670   6.075   7.783 -0.3886 -0.1610  0.1487
  866POPE   C4B13230   2.367   6.339   8.015 -0.3856  0.2619  0.0690
  867POPE   NH313231  13.239  11.054   5.877  0.3773 -0.0953  0.0733
  867POPE   PO413232  13.454  11.429   5.978 -0.0942  0.0841 -0.2121
  867POPE   GL113233  13.389  11.491   6.466 -0.0222 -0.0603  0.4016
  867POPE   GL213234  13.335  11.709   6.632 -0.0006  0.2357  0.0194
  867POPE   C1A13235  13.482  11.105   6.817 -0.0695 -0.2518 -0.0848
  867POPE   D2A13236  13.472  11.210   7.345 -0.1118  0.1668 -0.2601
  867POPE   C3A13237  13.821  11.117   7.682  0.1111 -0.0227 -0.0107
  867POPE   C4A13238  14.194  11.018   7.914  0.2381 -0.3682  0.1431
  867POPE   C1B13239  13.305  11.557   7.032 -0.1671 -0.2084  0.0866
  867POPE   C2B13240  13.191  11.591   7.432 -0.0712 -0.2304  0.1414
  867POPE   C3B13241  13.390  11.399   7.812 -0.1043 -0.1293 -0.1140
  867POPE   C4B13242  13.422  10.952   7.906 -0.1047 -0.0195  0.2552
  868POPE   NH313243  13.438   4.603   6.132 -0.1808 -0.1791  0.0250
  868POPE   PO413244  13.030   4.482   6.174  0.0315  0.0583  0.2155
  868POPE   GL113245  13.222   4.389   6.575  0.1871  0.2358  0.0655
  868POPE   GL213246  13.052   4.679   6.744 -0.2707  0.1234 -0.1282
  868POPE   C1A13247  13.294   4.406   7.069 -0.0091 -0.1353 -0.1869
  868POPE   D2A13248  13.491   4.612   7.420 -0.0945  0.2020  0.1459
  868POPE   C3A13249  13.828   4.529   7.637  0.0358  0.0324 -0.1623
  868POPE   C4A13250  13.849   4.249   7.949  0.3338  0.0621 -0.3247
  868POPE   C1B13251  13.065   4.924   7.089  0.3163  0.1805  0.0603
  868POPE   C2B13252  13.161   4.950   7.483 -0.2411 -0.2162 -0.3088
  868POPE   C3B13253  13.444   4.905   7.791 -0.0916  0.1441 -0.2423
  868POPE   C4B13254  13.483   5.305   8.244  0.3421 -0.0077  0.0698
  869POPE   NH313255   5.616   8.787   6.299 -0.1876 -0.0847 -0.0097
  869POPE   PO413256   5.171   8.954   6.190 -0.1492  0.1500 -0.2733
  869POPE   GL113257   5.181   8.957   6.613 -0.1401 -0.3555  0.1120
  869POPE   GL213258   5.402   8.944   6.727 -0.0634 -0.3043 -0.1429
  869POPE   C1A13259   4.974   9.026   7.038 -0.4169 -0.1342  0.0917
  869POPE   D2A13260   4.848   8.779   7.402 -0.2078 -0.2122 -0.1482
  869POPE   C3A13261   4.836   8.922   7.865 -0.1758 -0.0988  0.2673
  869POPE   C4A13262   4.777   9.053   8.290  0.1097 -0.0666 -0.0232
  869POPE   C1B13263   5.477   8.993   7.234 -0.1755 -0.0516  0.1800
  869POPE   C2B13264   5.319   8.930   7.711 -0.2666 -0.0752 -0.0443
  869POPE   C3B13265   5.237   8.916   8.146  0.0535  0.0552 -0.0092
  869POPE   C4B13266   5.554   8.749   8.374 -0.3116  0.0481 -0.0965
  870POPE   NH313267   3.895   8.281   5.989 -0.1162  0.1585 -0.1066
  870POPE   PO413268   3.910   7.812   6.173 -0.1252  0.1188  0.1977
  870POPE   GL113269   3.853   7.929   6.599  0.0402  0.0799 -0.0076
  870POPE   GL213270   3.784   8.129   6.543  0.2440 -0.1879  0.0486
  870POPE   C1A13271   3.735   7.872   6.994  0.1986  0.1188  0.4049
  870POPE   D2A13272   3.657   7.964   7.567  0.1156  0.0001  0.2296
  870POPE   C3A13273   3.494   7.683   7.849  0.2025  0.2046  0.2213
  870POPE   C4A13274   3.332   7.328   8.103 -0.0285 -0.2044  0.0186
  870POPE   C1B13275   3.531   8.318   6.905 -0.1961 -0.0916  0.2037
  870POPE   C2B13276   3.531   8.344   7.261 -0.0084 -0.1702 -0.2556
  870POPE   C3B13277   3.315   8.409   7.658  0.3127 -0.0170 -0.1009
  870POPE   C4B13278   2.996   8.680   7.962 -0.1109 -0.1242 -0.0252
  871POPE   NH313279   6.639   0.331   5.548 -0.2000 -0.0892 -0.0594
  871POPE   PO413280   6.676   0.235   6.018  0.0258 -0.2689 -0.3254
  871POPE   GL113281   6.567   0.441   6.342 -0.1535 -0.2629  0.0320
  871POPE   GL213282   6.280   0.521   6.380  0.0383 -0.3184 -0.2073
  871POPE   C1A13283   6.586   0.551   6.843  0.1160 -0.2781  0.0609
  871POPE   D2A13284   6.884   0.352   7.166  0.0640  0.2782 -0.0298
  871POPE   C3A13285   6.753   0.154   7.511 -0.1759 -0.2203 -0.1593
  871POPE   C4A13286   6.570   0.253   7.823  0.4466  0.0093  0.0724
  871POPE   C1B13287   6.097   0.415   6.772  0.1126 -0.0218 -0.0710
  871POPE   C2B13288   5.963   0.412   7.181 -0.0037  0.0822 -0.3445
  871POPE   C3B13289   5.468   0.437   7.307 -0.0062 -0.1311 -0.0797
  871POPE   C4B13290   5.434   0.689   7.647  0.3218 -0.0632  0.4371
  872POPE   NH313291   3.617   3.171   5.910 -0.3942  0.0356  0.1202
  872POPE   PO413292   3.270   3.408   5.724  0.1811  0.1100  0.0713
  872POPE   GL113293   3.119   3.018   6.037 -0.2355 -0.1955 -0.0663
  872POPE   GL213294   2.797   2.920   6.082  0.0979 -0.0068  0.1053
  872POPE   C1A13295   3.159   3.068   6.466  0.2084  0.1993  0.2016
  872POPE   D2A13296   2.888   3.409   6.618 -0.1148  0.1689  0.2102
  872POPE   C3A13297   2.742   3.413   6.960 -0.0901  0.0586 -0.2773
  872POPE   C4A13298   2.775   3.486   7.329 -0.0601 -0.1454 -0.1013
  872POPE   C1B13299   2.753   2.852   6.445  0.0685 -0.0161 -0.3954
  872POPE   C2B13300   2.877   2.914   6.899  0.0984  0.0531  0.2435
  872POPE   C3B13301   2.590   2.992   7.211  0.0417 -0.0627  0.0878
  872POPE   C4B13302   2.843   3.055   7.577 -0.1112 -0.1139  0.0110
  873POPE   NH313303  12.398   9.312   5.842  0.2458  0.1067 -0.5141
  873POPE   PO413304  11.941   9.298   5.990 -0.1987  0.0648  0.0598
  873POPE   GL113305  12.174   9.301   6.291  0.1122  0.0656 -0.3054
  873POPE   GL213306  12.375   9.581   6.269 -0.3235  0.0882 -0.1298
  873POPE   C1A13307  12.178   9.352   6.681 -0.2406  0.0309  0.1809
  873POPE   D2A13308  12.427   9.336   6.989  0.2231 -0.0763  0.0023
  873POPE   C3A13309  12.244   9.438   7.357 -0.1327  0.0688  0.1800
  873POPE   C4A13310  12.194   9.589   7.583 -0.0209 -0.0595 -0.0820
  873POPE   C1B13311  12.670   9.677   6.640  0.2270 -0.0526 -0.1603
  873POPE   C2B13312  12.747   9.762   7.007  0.0255  0.1216  0.0978
  873POPE   C3B13313  12.736   9.475   7.355  0.2334 -0.1832 -0.0674
  873POPE   C4B13314  12.566   9.028   7.470  0.1478 -0.2701 -0.0561
  874YOPE   NH313315  17.623   2.156   5.408 -0.2236 -0.0006 -0.1929
  874YOPE   PO413316  17.184   2.296   5.385  0.2543  0.1803  0.0228
  874YOPE   GL113317  17.327   2.243   5.789  0.2531  0.1767 -0.0611
  874YOPE   GL213318  17.121   2.239   5.955  0.1873  0.1896 -0.2899
  874YOPE   C1A13319  17.619   2.317   6.170 -0.1137  0.2343  0.0534
  874YOPE   D2A13320  17.784   2.049   6.376 -0.0568  0.0547 -0.1290
  874YOPE   C3A13321  18.230   1.979   6.364  0.1034  0.2112  0.0856
  874YOPE   C4A13322  18.577   2.296   6.304 -0.4405 -0.0159 -0.0477
  874YOPE   C1B13323  17.085   2.546   6.222 -0.1683 -0.1418 -0.0840
  874YOPE   C2B13324  17.275   2.707   6.556 -0.0607  0.0775  0.1769
  874YOPE   D3B13325  17.551   3.024   6.693 -0.0444  0.0019  0.0009
  874YOPE   C4B13326  17.781   3.334   6.399  0.1541  0.4077  0.2534
  875YOPE   NH313327  13.135  11.843   5.977  0.2681 -0.1686 -0.0164
  875YOPE   PO413328  13.550  12.056   6.135 -0.0871 -0.0465  0.1398
  875YOPE   GL113329  13.506  12.253   6.475  0.2180 -0.2769  0.2039
  875YOPE   GL213330  13.771  12.255   6.564 -0.1838  0.3126  0.1698
  875YOPE   C1A13331  13.472  12.483   6.853 -0.0145 -0.0849  0.0455
  875YOPE   D2A13332  13.401  12.531   7.336  0.0426 -0.0084 -0.0171
  875YOPE   C3A13333  13.187  12.493   7.674 -0.1630  0.0916  0.3048
  875YOPE   C4A13334  13.092  12.433   8.236 -0.4531 -0.0677 -0.2095
  875YOPE   C1B13335  13.659  11.953   6.877  0.0353 -0.0357 -0.1125
  875YOPE   C2B13336  13.436  12.052   7.181 -0.3324  0.0543 -0.0306
  875YOPE   D3B13337  13.390  12.035   7.604  0.1903 -0.0566  0.2138
  875YOPE   C4B13338  13.214  11.954   8.001  0.0552  0.3027  0.1620
  876YOPE   NH313339  12.186   0.626   6.466 -0.1705  0.0452  0.0678
  876YOPE   PO413340  11.918   0.323   6.289  0.1871 -0.1288 -0.1771
  876YOPE   GL113341  11.836  -0.045   6.531  0.0135  0.2700 -0.0330
  876YOPE   GL213342  11.619  -0.279   6.407  0.0191  0.0983  0.3165
  876YOPE   C1A13343  11.538  -0.006   6.826  0.0109  0.4788 -0.3398
  876YOPE   D2A13344  11.327   0.304   7.082  0.1794  0.1002  0.2155
  876YOPE   C3A13345  11.170   0.222   7.533 -0.1382  0.1876 -0.1485
  876YOPE   C4A13346  10.977   0.106   7.870 -0.0658 -0.2259  0.0600
  876YOPE   C1B13347  11.847  -0.432   6.783  0.0774  0.1497  0.1292
  876YOPE   C2B13348  11.679  -0.546   7.139  0.0087  0.0178 -0.0867
  876YOPE   D3B13349  11.655  -0.617   7.532  0.1486 -0.1379  0.1584
  876YOPE   C4B13350  11.393  -0.757   7.907  0.1581  0.2950 -0.0459
  877YOPE   NH313351   8.415  16.064   5.688 -0.1860  0.0122 -0.0324
  877YOPE   PO413352   8.778  16.120   6.021 -0.0159  0.2587  0.0707
  877YOPE   GL113353   8.879  16.311   6.394 -0.1694 -0.1928  0.0761
  877YOPE   GL213354   8.702  16.506   6.379  0.0243 -0.2186  0.0131
  877YOPE   C1A13355   9.084  16.236   6.740  0.1916 -0.0680 -0.1944
  877YOPE   D2A13356   9.458  16.457   6.816 -0.2134  0.0982 -0.1529
  877YOPE   C3A13357   9.447  16.893   6.864  0.0416  0.1234  0.0420
  877YOPE   C4A13358   9.148  17.199   6.894 -0.0787  0.1337  0.2980
  877YOPE   C1B13359   8.469  16.674   6.762 -0.2071 -0.2737 -0.0367
  877YOPE   C2B13360   8.229  16.511   7.013 -0.1897  0.0096 -0.2513
  877YOPE   D3B13361   8.232  16.543   7.457  0.2165 -0.1969  0.2491
  877YOPE   C4B13362   8.141  16.291   7.981 -0.1625 -0.0925  0.1705
  878YOPE   NH313363   1.171  11.673   5.727 -0.1093  0.0952  0.4515
  878YOPE   PO413364   1.341  11.296   5.699  0.1648  0.2137 -0.1651
  878YOPE   GL113365   1.210  11.083   6.024 -0.0618 -0.2693  0.0569
  878YOPE   GL213366   0.872  11.230   6.035 -0.4706 -0.1651  0.0931
  878YOPE   C1A13367   1.134  10.861   6.356 -0.2066  0.0970 -0.1476
  878YOPE   D2A13368   0.970  10.456   6.557 -0.0316 -0.0692 -0.1671
  878YOPE   C3A13369   0.858  10.370   6.997 -0.2940 -0.2403  0.0093
  878YOPE   C4A13370   0.658  10.306   7.450  0.0005 -0.1036 -0.1519
  878YOPE   C1B13371   0.812  11.298   6.463 -0.0988  0.0437 -0.0266
  878YOPE   C2B13372   0.839  11.396   6.887 -0.0300 -0.3372 -0.1617
  878YOPE   D3B13373   0.619  11.401   7.303  0.2432  0.2356 -0.2216
  878YOPE   C4B13374   0.579  11.597   7.741 -0.3443 -0.0580  0.0350
  879YOPE   NH313375   3.028   9.556   5.676  0.1373  0.2029 -0.0044
  879YOPE   PO413376   3.287   9.350   5.387  0.0892  0.0032 -0.0081
  879YOPE   GL113377   3.270   9.088   5.763  0.2144 -0.0482 -0.2509
  879YOPE   GL213378   3.476   9.236   6.042  0.2397 -0.1347 -0.1151
  879YOPE   C1A13379   3.003   8.961   6.081  0.0675 -0.1182  0.1751
  879YOPE   D2A13380   2.944   8.867   6.483  0.1421 -0.0253 -0.2541
  879YOPE   C3A13381   3.025   9.150   6.879 -0.1027  0.0926  0.1590
  879YOPE   C4A13382   2.843   9.132   7.288 -0.0125  0.0222 -0.2516
  879YOPE   C1B13383   3.391   9.128   6.517  0.0471 -0.1337 -0.3767
  879YOPE   C2B13384   3.549   9.246   6.897  0.0398  0.0292  0.1067
  879YOPE   D3B13385   3.340   9.211   7.278  0.0783 -0.0884 -0.2599
  879YOPE   C4B13386   3.245   9.174   7.735  0.0337 -0.0510  0.2332
  880YOPE   NH313387   0.818  15.918   5.849  0.3658  0.1339 -0.0451
  880YOPE   PO413388   0.788  16.401   5.743 -0.0012 -0.0142  0.2947
  880YOPE   GL113389   0.696  16.445   6.085 -0.0595 -0.1996  0.0593
  880YOPE   GL213390   0.455  16.254   6.223  0.0631 -0.0552  0.1087
  880YOPE   C1A13391   0.950  16.486   6.423  0.3004  0.1001  0.0592
  880YOPE   D2A13392   1.271  16.456   6.674 -0.1856  0.1034  0.0123
  880YOPE   C3A13393   1.324  16.386   7.194 -0.4197 -0.0269  0.3444
  880YOPE   C4A13394   1.177  16.459   7.678  0.1605 -0.0667 -0.2852
  880YOPE   C1B13395   0.437  16.379   6.636 -0.3450  0.2399 -0.0213
  880YOPE   C2B13396   0.308  16.325   7.042 -0.0021  0.0032  0.0170
  880YOPE   D3B13397   0.077  16.382   7.376  0.0088  0.1287  0.0996
  880YOPE   C4B13398  -0.096  16.135   7.703  0.0856  0.0224  0.2239
  881YOPE   NH313399   2.981  14.669   5.907  0.4005 -0.0614  0.0427
  881YOPE   PO413400   3.328  14.728   6.054 -0.1535 -0.2715  0.1700
  881YOPE   GL113401   3.574  14.972   6.319 -0.2225  0.1073  0.1415
  881YOPE   GL213402   3.767  14.834   6.498  0.1606 -0.2522  0.2752
  881YOPE   C1A13403   3.573  15.391   6.480  0.1287 -0.1176 -0.1795
  881YOPE   D2A13404   3.194  15.694   6.598 -0.0221 -0.1026 -0.1067
  881YOPE   C3A13405   3.411  16.039   6.723 -0.1751 -0.3021 -0.1078
  881YOPE   C4A13406   3.549  16.515   6.671 -0.1274  0.0226  0.0192
  881YOPE   C1B13407   3.604  14.990   6.966  0.0468  0.1991  0.2103
  881YOPE   C2B13408   3.284  14.920   7.156 -0.0740  0.5019  0.2831
  881YOPE   D3B13409   3.141  14.957   7.487 -0.0337  0.0947 -0.2763
  881YOPE   C4B13410   3.353  15.093   7.835  0.1169  0.2248  0.0253
  882YOPE   NH313411  14.037   8.743   5.887 -0.2724 -0.2006 -0.1447
  882YOPE   PO413412  13.809   8.379   6.090  0.0387  0.2343 -0.0514
  882YOPE   GL113413  13.834   8.368   6.462 -0.1359 -0.1551 -0.1638
  882YOPE   GL213414  14.005   8.209   6.580  0.1233 -0.0960 -0.2547
  882YOPE   C1A13415  13.912   8.540   6.958  0.0379  0.0121 -0.2957
  882YOPE   D2A13416  13.993   8.604   7.453 -0.0765 -0.1575  0.1747
  882YOPE   C3A13417  13.932   8.389   7.758  0.1704  0.0153 -0.1194
  882YOPE   C4A13418  13.825   8.513   8.256  0.0684  0.2094 -0.0512
  882YOPE   C1B13419  14.168   8.002   6.883 -0.1191 -0.0532 -0.3328
  882YOPE   C2B13420  14.158   7.766   7.251  0.1496 -0.4095  0.0627
  882YOPE   D3B13421  14.327   7.649   7.636 -0.4826  0.1064  0.1549
  882YOPE   C4B13422  14.400   7.699   8.090  0.0979 -0.1037  0.0244
  883YOPE   NH313423   8.656   1.138   5.962  0.0734  0.0969 -0.1917
  883YOPE   PO413424   8.745   0.752   5.799  0.1601  0.3503 -0.0522
  883YOPE   GL113425   8.788   0.789   6.294  0.1101  0.0242  0.0075
  883YOPE   GL213426   8.778   0.496   6.430 -0.0202 -0.1291 -0.0363
  883YOPE   C1A13427   8.638   0.971   6.726 -0.2678  0.1219  0.1171
  883YOPE   D2A13428   8.641   1.154   7.050  0.0711  0.0046 -0.0160
  883YOPE   C3A13429   8.862   1.117   7.433  0.1877 -0.0911 -0.1906
  883YOPE   C4A13430   8.959   1.312   7.910  0.1543 -0.0640 -0.4762
  883YOPE   C1B13431   8.373   0.391   6.662 -0.1176 -0.0986 -0.2001
  883YOPE   C2B13432   7.988   0.276   6.983  0.0595 -0.1093  0.2291
  883YOPE   D3B13433   7.817   0.172   7.428 -0.0151  0.1036 -0.0120
  883YOPE   C4B13434   7.693   0.153   7.829 -0.1446 -0.2626  0.0678
  884YOPE   NH313435   5.535   5.476   6.045  0.2646  0.1790 -0.0502
  884YOPE   PO413436   5.483   5.994   6.215  0.0524 -0.0321 -0.1765
  884YOPE   GL113437   5.354   6.119   6.619 -0.1283  0.2075  0.0013
  884YOPE   GL213438   5.579   6.157   6.811  0.1554  0.1767 -0.1824
  884YOPE   C1A13439   5.171   6.269   7.009 -0.0328  0.0489  0.1701
  884YOPE   D2A13440   4.722   6.328   7.022  0.2053 -0.1565  0.0949
  884YOPE   C3A13441   4.584   6.406   7.401 -0.1573  0.2038  0.0941
  884YOPE   C4A13442   4.404   6.541   7.892  0.1689 -0.1344  0.0881
  884YOPE   C1B13443   5.582   6.134   7.243 -0.2403  0.0119 -0.0800
  884YOPE   C2B13444   5.333   6.297   7.572  0.2665 -0.2887  0.1124
  884YOPE   D3B13445   5.269   6.313   8.082 -0.2155 -0.0511  0.1336
  884YOPE   C4B13446   5.275   6.213   8.581 -0.0961  0.2291 -0.1176
  885YOPE   NH313447   7.175  10.941   6.196 -0.1556 -0.1466 -0.0482
  885YOPE   PO413448   6.741  10.981   6.102  0.0629 -0.1335 -0.0750
  885YOPE   GL113449   6.827  10.868   6.537 -0.2899  0.0299  0.0650
  885YOPE   GL213450   7.031  10.685   6.608  0.1815 -0.1346  0.2130
  885YOPE   C1A13451   6.649  10.982   6.933 -0.0630 -0.0417 -0.1005
  885YOPE   D2A13452   6.743  11.007   7.391 -0.2918 -0.1166  0.0164
  885YOPE   C3A13453   6.530  10.927   7.871  0.2276 -0.0710  0.2259
  885YOPE   C4A13454   6.181  11.127   8.117  0.3082 -0.1296  0.2422
  885YOPE   C1B13455   7.076  10.495   7.052 -0.0049  0.0217 -0.2705
  885YOPE   C2B13456   6.961  10.512   7.442 -0.1427  0.1455 -0.0097
  885YOPE   D3B13457   6.762  10.500   7.952  0.0316 -0.2158  0.2424
  885YOPE   C4B13458   6.401  10.298   8.132 -0.2545 -0.2452 -0.2436
  886YOPE   NH313459  11.180   4.359   5.589 -0.3455 -0.2275  0.1997
  886YOPE   PO413460  10.967   3.999   5.812  0.1206  0.2757  0.1488
  886YOPE   GL113461  10.975   3.817   6.125 -0.1284 -0.1962 -0.2178
  886YOPE   GL213462  10.785   3.609   6.131  0.0575  0.2035  0.1812
  886YOPE   C1A13463  10.721   4.019   6.526 -0.0087 -0.0745  0.1143
  886YOPE   D2A13464  10.604   4.171   6.928  0.0423  0.3127 -0.0952
  886YOPE   C3A13465  10.480   4.079   7.319 -0.1564 -0.0944 -0.0669
  886YOPE   C4A13466  10.524   3.893   7.700  0.0371  0.2383 -0.1640
  886YOPE   C1B13467  10.993   3.465   6.535 -0.0616 -0.0474 -0.0996
  886YOPE   C2B13468  10.908   3.204   6.922 -0.0943  0.0546 -0.0223
  886YOPE   D3B13469  10.895   3.139   7.393  0.1703 -0.0013  0.0461
  886YOPE   C4B13470  10.765   3.280   7.815 -0.0650  0.1784 -0.2617
  887YOPE   NH313471   6.483   2.935   5.777 -0.0802 -0.1480 -0.0745
  887YOPE   PO413472   6.878   2.803   5.730 -0.0441 -0.1696  0.0434
  887YOPE   GL113473   6.949   2.806   6.150  0.0705  0.1497 -0.0677
  887YOPE   GL213474   7.344   2.739   6.211  0.0315 -0.1723 -0.1787
  887YOPE   C1A13475   6.867   2.958   6.607  0.0039  0.2145  0.3000
  887YOPE   D2A13476   7.063   3.149   6.924  0.1042  0.1116  0.4045
  887YOPE   C3A13477   7.443   3.031   7.103 -0.0924  0.3039  0.0221
  887YOPE   C4A13478   7.918   3.267   7.034 -0.0536 -0.0837 -0.3546
  887YOPE   C1B13479   7.340   2.783   6.660 -0.1255 -0.0312 -0.5243
  887YOPE   C2B13480   7.359   2.536   7.068  0.0959 -0.0905 -0.2039
  887YOPE   D3B13481   7.327   2.664   7.540  0.1685 -0.2116 -0.3430
  887YOPE   C4B13482   7.653   2.597   7.764 -0.1583 -0.3618 -0.1214
  888YOPE   NH313483   2.074  10.033   5.205 -0.0333 -0.1048 -0.0471
  888YOPE   PO413484   2.094   9.739   5.468  0.0447  0.1630 -0.1815
  888YOPE   GL113485   1.944   9.683   5.932 -0.3225  0.2187 -0.0544
  888YOPE   GL213486   1.874   9.414   6.132 -0.1296  0.2208  0.1775
  888YOPE   C1A13487   1.847   9.844   6.236  0.1087  0.0120  0.0605
  888YOPE   D2A13488   1.777  10.001   6.607  0.2882  0.0465  0.2991
  888YOPE   C3A13489   1.680   9.823   6.936 -0.2044  0.1707  0.1182
  888YOPE   C4A13490   1.464   9.762   7.269  0.0003  0.2838  0.1940
  888YOPE   C1B13491   2.096   9.158   6.477 -0.2821  0.1190 -0.0653
  888YOPE   C2B13492   2.134   9.224   6.890  0.2062  0.1179  0.2920
  888YOPE   D3B13493   1.945   9.197   7.224  0.0909 -0.1616 -0.0037
  888YOPE   C4B13494   1.873   8.854   7.529 -0.0176 -0.1131  0.0277
  889YOPE   NH313495  13.912   7.918   6.199  0.1113 -0.1257  0.0173
  889YOPE   PO413496  14.343   7.842   6.116 -0.0274  0.3053  0.0603
  889YOPE   GL113497  14.226   7.670   6.478  0.1648  0.1868 -0.0121
  889YOPE   GL213498  13.939   7.419   6.398  0.0451  0.1411  0.0421
  889YOPE   C1A13499  14.315   7.492   6.831 -0.2365  0.2985  0.2417
  889YOPE   D2A13500  14.498   7.265   7.266 -0.0351 -0.2030 -0.1229
  889YOPE   C3A13501  14.560   7.180   7.650 -0.0081 -0.0836 -0.0071
  889YOPE   C4A13502  14.762   6.972   8.004 -0.0501  0.1441 -0.2136
  889YOPE   C1B13503  13.838   7.624   6.793 -0.1732 -0.1182 -0.2792
  889YOPE   C2B13504  13.636   7.653   7.220 -0.4428 -0.0544  0.2134
  889YOPE   D3B13505  13.739   7.647   7.591 -0.2770  0.3666  0.3319
  889YOPE   C4B13506  13.967   7.882   7.823  0.3710  0.1966  0.0996
  890YOPE   NH313507   0.995  13.042   6.245  0.0568  0.0149  0.1053
  890YOPE   PO413508   0.644  13.257   6.411 -0.2840  0.1140  0.0011
  890YOPE   GL113509   0.618  13.549   6.686  0.1701  0.0542  0.0954
  890YOPE   GL213510   0.685  13.266   6.949 -0.1276 -0.2771 -0.1529
  890YOPE   C1A13511   0.492  13.707   7.094  0.0001 -0.0207 -0.3091
  890YOPE   D2A13512   0.344  13.697   7.467  0.0235 -0.1886 -0.0572
  890YOPE   C3A13513   0.674  13.720   7.729  0.0803  0.0610 -0.0716
  890YOPE   C4A13514   0.980  13.928   7.976 -0.0395 -0.3433  0.0599
  890YOPE   C1B13515   0.657  13.284   7.438 -0.0382  0.1470 -0.1073
  890YOPE   C2B13516   0.766  13.189   7.865 -0.0913  0.1733  0.1687
  890YOPE   D3B13517   0.945  13.364   8.232  0.0115 -0.1458  0.0829
  890YOPE   C4B13518   1.205  13.676   8.501  0.0282  0.0734 -0.1090
  891YOPE   NH313519  13.146  14.142   5.551  0.0790  0.0172 -0.2844
  891YOPE   PO413520  13.497  14.000   5.858  0.0092  0.1940 -0.1545
  891YOPE   GL113521  13.559  13.957   6.315 -0.1163 -0.3926 -0.1052
  891YOPE   GL213522  13.411  14.021   6.492 -0.2392  0.1012  0.0040
  891YOPE   C1A13523  13.826  13.937   6.769 -0.3543  0.1253  0.0426
  891YOPE   D2A13524  13.442  13.816   7.030  0.0283  0.0894  0.0785
  891YOPE   C3A13525  13.244  13.675   7.411 -0.4496 -0.3931 -0.2369
  891YOPE   C4A13526  13.150  13.309   7.742  0.0961 -0.3500 -0.2626
  891YOPE   C1B13527  13.486  14.298   6.841  0.0314 -0.0305  0.0542
  891YOPE   C2B13528  13.452  14.246   7.311 -0.2384  0.1436 -0.0917
  891YOPE   D3B13529  13.220  14.084   7.696 -0.4447  0.1207 -0.0522
  891YOPE   C4B13530  13.068  13.751   7.902  0.1816 -0.0377 -0.0124
  892YOPE   NH313531  12.954   8.480   5.824  0.0735  0.0725  0.3082
  892YOPE   PO413532  12.798   8.099   5.896 -0.5757  0.1061  0.0017
  892YOPE   GL113533  12.900   8.140   6.334 -0.0744  0.1005  0.0170
  892YOPE   GL213534  13.099   8.399   6.353 -0.1145 -0.2652  0.1728
  892YOPE   C1A13535  12.956   8.251   6.776 -0.0549 -0.1143  0.0730
  892YOPE   D2A13536  12.852   8.404   7.226 -0.0824  0.2160 -0.0973
  892YOPE   C3A13537  12.993   8.377   7.635  0.0608  0.1985 -0.0989
  892YOPE   C4A13538  13.095   8.457   8.014  0.1572 -0.0177  0.2590
  892YOPE   C1B13539  12.905   8.716   6.688  0.2308 -0.2118  0.1785
  892YOPE   C2B13540  12.964   8.865   7.155  0.0756  0.1545  0.2341
  892YOPE   D3B13541  13.039   9.151   7.510 -0.0136  0.1579 -0.0065
  892YOPE   C4B13542  12.807   9.240   7.849 -0.0150  0.2426 -0.1401
  893YOPE   NH313543  12.815   6.145   6.251 -0.1114  0.0853  0.1037
  893YOPE   PO413544  13.210   6.224   6.386  0.0015 -0.2703  0.0523
  893YOPE   GL113545  13.086   6.311   6.737  0.0040 -0.3939  0.0339
  893YOPE   GL213546  12.845   6.538   6.699  0.3913  0.2621 -0.3084
  893YOPE   C1A13547  13.176   6.526   7.120 -0.0173 -0.1068 -0.1543
  893YOPE   D2A13548  13.231   6.763   7.505 -0.0370 -0.0671  0.2015
  893YOPE   C3A13549  13.056   6.984   7.830 -0.0066 -0.0401  0.1217
  893YOPE   C4A13550  13.203   7.328   8.092  0.2878 -0.3993  0.1013
  893YOPE   C1B13551  12.835   6.845   7.013  0.0251  0.1161  0.0377
  893YOPE   C2B13552  12.660   6.752   7.449  0.1092  0.0214  0.1230
  893YOPE   D3B13553  12.589   6.578   7.875  0.0568 -0.0342 -0.0466
  893YOPE   C4B13554  12.685   6.535   8.283 -0.2454  0.0387  0.3260
  894YOPE   NH313555  10.063   7.612   6.012 -0.1305  0.2340  0.0396
  894YOPE   PO413556   9.777   7.214   6.025  0.1894 -0.3381 -0.1862
  894YOPE   GL113557   9.561   7.544   6.213 -0.1541  0.3936  0.1424
  894YOPE   GL213558   9.756   7.800   6.341 -0.1161 -0.0087 -0.3616
  894YOPE   C1A13559   9.300   7.557   6.490 -0.1629  0.2338 -0.1761
  894YOPE   D2A13560   9.344   7.550   6.997  0.3498 -0.0780 -0.0629
  894YOPE   C3A13561   9.558   7.792   7.315  0.4558 -0.1919 -0.0280
  894YOPE   C4A13562   9.336   7.811   7.772  0.0160 -0.0399 -0.1552
  894YOPE   C1B13563   9.648   7.930   6.763 -0.1687  0.2889  0.0554
  894YOPE   C2B13564   9.404   8.121   6.971 -0.2116  0.0771  0.0679
  894YOPE   D3B13565   9.010   8.441   6.847 -0.0979 -0.0895 -0.3804
  894YOPE   C4B13566   8.680   8.766   6.733  0.3107  0.1390 -0.1130
  895YOPE   NH313567  14.990  12.357   6.295  0.0390 -0.4202  0.2913
  895YOPE   PO413568  15.079  11.940   6.199 -0.3424 -0.2308 -0.0153
  895YOPE   GL113569  14.734  11.904   6.548 -0.0818  0.1441  0.0371
  895YOPE   GL213570  14.625  12.212   6.642  0.1263 -0.0530 -0.0581
  895YOPE   C1A13571  14.604  11.911   6.991  0.3854  0.1897  0.3364
  895YOPE   D2A13572  14.427  11.874   7.462 -0.2208 -0.2392 -0.1131
  895YOPE   C3A13573  14.672  11.854   7.809 -0.0265  0.0244 -0.2340
  895YOPE   C4A13574  14.859  11.557   8.134  0.1672  0.1354 -0.2584
  895YOPE   C1B13575  14.663  12.481   6.974 -0.0051 -0.0268 -0.1716
  895YOPE   C2B13576  14.541  12.576   7.332  0.2781  0.2889  0.1772
  895YOPE   D3B13577  14.353  12.291   7.627  0.4702  0.2317 -0.0593
  895YOPE   C4B13578  14.073  12.139   7.996 -0.3827  0.1306  0.2641
  896YOPE   NH313579   9.183   0.453   5.924 -0.2246  0.0575  0.1527
  896YOPE   PO413580   9.522   0.401   5.795  0.1240  0.0655  0.1111
  896YOPE   GL113581   9.489   0.186   6.217 -0.0322 -0.2485  0.0206
  896YOPE   GL213582   9.646  -0.083   6.404 -0.2035 -0.2363 -0.0432
  896YOPE   C1A13583   9.340   0.278   6.630 -0.0638  0.1774 -0.1764
  896YOPE   D2A13584   8.900   0.160   6.754 -0.0636 -0.0032  0.2299
  896YOPE   C3A13585   8.856   0.246   7.121 -0.0343 -0.1008 -0.0308
  896YOPE   C4A13586   8.523   0.496   7.150 -0.2396  0.1376  0.0317
  896YOPE   C1B13587   9.811   0.032   6.768 -0.0240 -0.2747  0.1323
  896YOPE   C2B13588   9.808   0.126   7.200 -0.0710  0.1679 -0.0994
  896YOPE   D3B13589   9.596   0.218   7.664  0.0856  0.0001 -0.0966
  896YOPE   C4B13590   9.354   0.359   8.046  0.1248  0.0684  0.0880
  897YOPE   NH313591   1.270   8.308   5.675 -0.0971 -0.2387 -0.1908
  897YOPE   PO413592   1.435   7.919   5.709  0.1553 -0.0908 -0.1376
  897YOPE   GL113593   1.544   8.104   6.098  0.2816  0.2276  0.2423
  897YOPE   GL213594   1.673   8.319   6.087 -0.4777 -0.1182  0.0229
  897YOPE   C1A13595   1.535   8.071   6.538  0.1266 -0.0918  0.0448
  897YOPE   D2A13596   1.426   8.362   6.772 -0.1762 -0.4656  0.3410
  897YOPE   C3A13597   1.364   8.165   7.172  0.3568  0.0011 -0.1835
  897YOPE   C4A13598   1.128   7.939   7.450 -0.0794 -0.1289 -0.0453
  897YOPE   C1B13599   1.903   8.429   6.510  0.1117  0.2186  0.1198
  897YOPE   C2B13600   1.895   8.271   7.003  0.1659  0.2850 -0.3522
  897YOPE   D3B13601   1.806   8.288   7.428 -0.2578 -0.1346 -0.0335
  897YOPE   C4B13602   1.983   8.159   7.920 -0.0043  0.1115  0.1139
  898YOPE   NH313603   3.428   8.093   6.228 -0.1019 -0.2222  0.0916
  898YOPE   PO413604   3.266   8.370   5.965 -0.0714 -0.0074  0.0624
  898YOPE   GL113605   2.955   8.349   6.296  0.0035  0.0718 -0.0916
  898YOPE   GL213606   3.120   8.322   6.591  0.0931  0.0453  0.3206
  898YOPE   C1A13607   2.536   8.525   6.521 -0.0208 -0.4325  0.1741
  898YOPE   D2A13608   2.188   8.671   6.743  0.1405  0.0172  0.2889
  898YOPE   C3A13609   2.093   8.714   7.113 -0.0448 -0.3431 -0.0530
  898YOPE   C4A13610   2.363   8.964   7.267  0.0743  0.1926 -0.0993
  898YOPE   C1B13611   2.828   8.092   6.725  0.3454  0.0015  0.1694
  898YOPE   C2B13612   2.658   7.878   7.131  0.0444  0.1880 -0.1509
  898YOPE   D3B13613   2.644   7.631   7.512  0.0463 -0.0540  0.3019
  898YOPE   C4B13614   2.699   7.233   7.602 -0.0010 -0.1932 -0.1146
  899YOPE   NH313615   5.612   7.325   6.558  0.0112  0.2118  0.1845
  899YOPE   PO413616   5.940   7.572   6.644  0.0256  0.2394 -0.0683
  899YOPE   GL113617   5.739   7.638   7.109  0.1382 -0.0368 -0.0616
  899YOPE   GL213618   5.424   7.359   7.085 -0.1933 -0.0532 -0.1935
  899YOPE   C1A13619   5.674   7.668   7.474 -0.0043  0.0537  0.1149
  899YOPE   D2A13620   5.364   7.861   7.670 -0.1473  0.2605  0.1791
  899YOPE   C3A13621   5.159   7.528   7.927 -0.1647  0.0423  0.0066
  899YOPE   C4A13622   4.804   7.510   7.753  0.2043 -0.0136  0.0911
  899YOPE   C1B13623   5.160   7.433   7.438 -0.3596  0.2875 -0.1173
  899YOPE   C2B13624   5.080   7.104   7.703  0.0995 -0.2507  0.3939
  899YOPE   D3B13625   4.934   7.092   8.043  0.0085  0.0837  0.1656
  899YOPE   C4B13626   4.975   7.360   8.376 -0.3605  0.1403  0.0789
  900YOPE   NH313627   6.226   2.263   5.909 -0.1402  0.0269  0.0500
  900YOPE   PO413628   6.702   2.391   5.878  0.1016 -0.3630  0.0944
  900YOPE   GL113629   6.561   2.185   6.256 -0.0818 -0.2238  0.0706
  900YOPE   GL213630   6.638   1.928   6.152 -0.0225  0.1884  0.1146
  900YOPE   C1A13631   6.211   1.925   6.431 -0.0637  0.1136  0.3124
  900YOPE   D2A13632   5.700   1.914   6.509 -0.3452 -0.2529 -0.3292
  900YOPE   C3A13633   5.451   1.714   6.749  0.2210 -0.0726 -0.0273
  900YOPE   C4A13634   5.383   1.524   7.131 -0.3369 -0.2484  0.0291
  900YOPE   C1B13635   6.559   1.564   6.404  0.0277 -0.2443 -0.2704
  900YOPE   C2B13636   6.333   1.377   6.724 -0.1105  0.5009 -0.2267
  900YOPE   D3B13637   6.216   1.318   7.179  0.2037  0.1125  0.2996
  900YOPE   C4B13638   6.351   1.054   7.506 -0.2379  0.0096 -0.1263
  901YOPE   NH313639  16.130  11.906   6.011  0.3493  0.3741 -0.3207
  901YOPE   PO413640  15.970  12.075   6.259  0.0745 -0.1498  0.0109
  901YOPE   GL113641  16.063  12.365   6.605 -0.2824 -0.1324  0.0023
  901YOPE   GL213642  15.755  12.219   6.694 -0.1594 -0.2630 -0.0871
  901YOPE   C1A13643  16.375  12.580   6.814 -0.0525 -0.1049 -0.0665
  901YOPE   D2A13644  16.764  12.469   6.750  0.0085 -0.0582 -0.1297
  901YOPE   C3A13645  16.868  12.145   7.073  0.0808 -0.1370 -0.0153
  901YOPE   C4A13646  17.038  11.933   7.503  0.0504  0.0096  0.0715
  901YOPE   C1B13647  15.635  12.033   7.004 -0.1598  0.1396 -0.0923
  901YOPE   C2B13648  15.476  11.913   7.437  0.1011  0.1725 -0.2168
  901YOPE   D3B13649  15.239  11.963   7.912 -0.0180 -0.0559  0.1437
  901YOPE   C4B13650  15.200  11.881   8.364  0.0844 -0.0130  0.1200
  902YOPE   NH313651  15.685  10.946   5.919  0.0812  0.2252  0.0765
  902YOPE   PO413652  15.771  10.565   6.000  0.1648  0.0403  0.2048
  902YOPE   GL113653  15.679  10.609   6.400 -0.1612 -0.1807  0.2612
  902YOPE   GL213654  15.365  10.409   6.447 -0.0794  0.1611 -0.2720
  902YOPE   C1A13655  15.540  10.721   6.851 -0.0321  0.0081 -0.0785
  902YOPE   D2A13656  15.422  11.036   7.156  0.0077  0.2534  0.0920
  902YOPE   C3A13657  15.612  10.895   7.590  0.1152  0.2987 -0.0837
  902YOPE   C4A13658  15.769  10.541   7.793 -0.1036  0.1850 -0.2032
  902YOPE   C1B13659  15.328  10.266   6.944 -0.1901  0.0446  0.2359
  902YOPE   C2B13660  15.332   9.843   7.144  0.2315 -0.2706  0.1448
  902YOPE   D3B13661  15.333   9.604   7.562 -0.2989  0.1006  0.2900
  902YOPE   C4B13662  15.358   9.640   7.951  0.0417 -0.1237  0.2645
  903YOPE   NH313663   2.405  15.343   5.537 -0.1475  0.2823  0.1624
  903YOPE   PO413664   2.540  14.991   5.831  0.3107  0.1496 -0.1585
  903YOPE   GL113665   2.556  15.030   6.280 -0.0634  0.0375 -0.1264
  903YOPE   GL213666   2.817  14.804   6.410 -0.0809 -0.0839  0.2793
  903YOPE   C1A13667   2.580  15.062   6.764  0.3931  0.0094  0.0361
  903YOPE   D2A13668   2.796  15.092   7.067 -0.1463  0.1870  0.1442
  903YOPE   C3A13669   2.658  15.150   7.443  0.0082  0.0185 -0.2297
  903YOPE   C4A13670   2.804  15.242   7.781 -0.1184 -0.2747 -0.2998
  903YOPE   C1B13671   2.808  14.573   6.876 -0.1826 -0.2079 -0.1246
  903YOPE   C2B13672   2.849  14.598   7.353  0.1564 -0.3632 -0.1510
  903YOPE   D3B13673   2.896  14.770   7.870  0.1456  0.0559 -0.1237
  903YOPE   C4B13674   2.783  14.908   8.299 -0.1951  0.1132 -0.0866
  904YOPE   NH313675   0.867  13.807   6.320 -0.2183 -0.0627 -0.0218
  904YOPE   PO413676   1.030  14.295   6.362 -0.0411 -0.1551  0.1623
  904YOPE   GL113677   1.002  14.685   6.468  0.1041 -0.0569 -0.0948
  904YOPE   GL213678   0.726  14.680   6.620  0.1366  0.2693 -0.3539
  904YOPE   C1A13679   1.306  15.042   6.754 -0.1301  0.1131 -0.0341
  904YOPE   D2A13680   1.275  15.264   7.167 -0.3158 -0.3384 -0.1747
  904YOPE   C3A13681   1.713  15.276   7.357  0.1565  0.1144 -0.1188
  904YOPE   C4A13682   1.828  15.677   7.585 -0.0461 -0.0742  0.1735
  904YOPE   C1B13683   0.815  14.905   6.942  0.1681 -0.2610 -0.0299
  904YOPE   C2B13684   0.650  15.085   7.317 -0.1705 -0.1771  0.1051
  904YOPE   D3B13685   0.372  15.344   7.459 -0.1500 -0.2313 -0.0781
  904YOPE   C4B13686   0.072  15.240   7.779 -0.0421  0.2084 -0.1383
  905YOPE   NH313687   3.685  10.952   6.037 -0.2150  0.2085 -0.2276
  905YOPE   PO413688   3.825  11.319   5.983 -0.1032 -0.0686  0.0477
  905YOPE   GL113689   3.788  11.344   6.591 -0.0234 -0.2336  0.0792
  905YOPE   GL213690   3.826  10.983   6.578  0.0978 -0.4456 -0.1101
  905YOPE   C1A13691   4.039  11.484   6.971  0.1445 -0.1017 -0.1001
  905YOPE   D2A13692   4.061  11.640   7.363 -0.4243  0.1240 -0.0904
  905YOPE   C3A13693   4.084  12.055   7.530 -0.0865 -0.1208 -0.0070
  905YOPE   C4A13694   4.174  12.363   7.739 -0.2081  0.0155 -0.0884
  905YOPE   C1B13695   3.740  11.081   7.015 -0.0886 -0.1178 -0.3532
  905YOPE   C2B13696   3.813  11.174   7.377 -0.3043  0.0196  0.0436
  905YOPE   D3B13697   3.804  11.099   7.863  0.0378  0.1973 -0.0765
  905YOPE   C4B13698   3.512  11.052   8.159 -0.0510  0.0676 -0.0571
  906YOPE   NH313699   5.399   4.650   6.136 -0.0320 -0.0546  0.0197
  906YOPE   PO413700   5.181   5.120   6.108 -0.0954 -0.0982  0.0016
  906YOPE   GL113701   5.115   5.207   6.510  0.0634 -0.1063  0.1493
  906YOPE   GL213702   4.745   5.194   6.555  0.4760 -0.0200 -0.0537
  906YOPE   C1A13703   5.098   5.324   6.893 -0.1336  0.0876 -0.1973
  906YOPE   D2A13704   5.082   5.232   7.294  0.1476  0.1473 -0.2583
  906YOPE   C3A13705   4.962   5.472   7.637  0.0291  0.0904  0.1053
  906YOPE   C4A13706   4.898   5.472   8.044  0.3125  0.0260  0.3069
  906YOPE   C1B13707   4.618   5.316   6.945  0.2671 -0.1484  0.2481
  906YOPE   C2B13708   4.602   5.266   7.385  0.0814  0.0909 -0.1305
  906YOPE   D3B13709   4.713   5.062   7.706 -0.0348  0.1778  0.0921
  906YOPE   C4B13710   4.691   5.004   8.148 -0.1590 -0.0547  0.1624
  907YOPE   NH313711   7.247   9.920   6.513  0.0535  0.4505  0.0568
  907YOPE   PO413712   7.303  10.331   6.272  0.2640  0.1230 -0.0574
  907YOPE   GL113713   7.484  10.368   6.665 -0.0651  0.1697 -0.1036
  907YOPE   GL213714   7.431  10.088   6.942  0.0934 -0.1800  0.0845
  907YOPE   C1A13715   7.553  10.578   7.086  0.0979  0.0655 -0.0587
  907YOPE   D2A13716   7.438  10.599   7.516 -0.0367 -0.4075  0.1138
  907YOPE   C3A13717   7.659  10.860   7.750  0.0459  0.2131  0.1619
  907YOPE   C4A13718   7.900  11.155   7.845 -0.0980 -0.0083 -0.1505
  907YOPE   C1B13719   7.344  10.165   7.336  0.1353 -0.0934 -0.3596
  907YOPE   C2B13720   7.210  10.246   7.734  0.0364  0.3993  0.0960
  907YOPE   D3B13721   7.312  10.005   8.174 -0.0417 -0.1536  0.3213
  907YOPE   C4B13722   7.253  10.158   8.602  0.0546  0.1386 -0.1291
  908YOPE   NH313723  17.939  17.216   6.040 -0.0260 -0.0721  0.1323
  908YOPE   PO413724  17.637  16.894   5.968 -0.1916  0.1484  0.2109
  908YOPE   GL113725  17.421  16.871   6.345  0.2732 -0.0485 -0.0241
  908YOPE   GL213726  17.628  16.968   6.499  0.0455  0.0033 -0.2114
  908YOPE   C1A13727  17.428  16.618   6.783  0.2754  0.0903 -0.0114
  908YOPE   D2A13728  17.487  16.336   7.089 -0.1436  0.1604 -0.2264
  908YOPE   C3A13729  17.478  16.457   7.498  0.4431 -0.0041  0.0216
  908YOPE   C4A13730  17.301  16.799   7.827 -0.2392 -0.0202  0.3277
  908YOPE   C1B13731  17.900  17.135   6.815  0.0494 -0.0897 -0.2334
  908YOPE   C2B13732  18.000  17.273   7.272 -0.0277  0.0016  0.1029
  908YOPE   D3B13733  18.191  17.350   7.674  0.1160 -0.1963  0.1713
  908YOPE   C4B13734  17.989  17.306   8.112 -0.2098 -0.0380 -0.1834
  909YOPE   NH313735   8.502   5.228   6.060  0.3209  0.0038  0.2572
  909YOPE   PO413736   8.353   5.598   6.245 -0.2080  0.0922 -0.4330
  909YOPE   GL113737   8.471   5.741   6.756 -0.1247  0.1046 -0.1908
  909YOPE   GL213738   8.307   6.042   6.667 -0.1269  0.1406  0.0517
  909YOPE   C1A13739   8.534   5.695   7.094 -0.0759  0.1076 -0.1934
  909YOPE   D2A13740   8.587   5.782   7.417 -0.0847 -0.3338 -0.0223
  909YOPE   C3A13741   8.482   5.512   7.803 -0.2535  0.2463 -0.0170
  909YOPE   C4A13742   8.674   5.244   8.111  0.1869 -0.0636 -0.0224
  909YOPE   C1B13743   8.325   6.214   7.067  0.2812  0.0300 -0.1036
  909YOPE   C2B13744   8.245   6.136   7.471  0.1215  0.0480  0.0644
  909YOPE   D3B13745   8.205   5.913   7.828 -0.0733  0.1793 -0.0216
  909YOPE   C4B13746   7.992   5.833   8.244  0.0154  0.2175 -0.0091
  910YOPE   NH313747  17.097  17.240   5.966  0.0403  0.0838 -0.4109
  910YOPE   PO413748  17.510  17.444   5.960  0.2058  0.1215 -0.0002
  910YOPE   GL113749  17.711  17.521   6.380  0.1404 -0.3839 -0.0893
  910YOPE   GL213750  18.007  17.720   6.251  0.2888 -0.0369  0.0557
  910YOPE   C1A13751  17.730  17.623   6.835  0.0492  0.0435  0.0182
  910YOPE   D2A13752  17.804  17.719   7.310 -0.0636  0.0717 -0.3696
  910YOPE   C3A13753  18.101  17.957   7.510  0.0186 -0.3134  0.1747
  910YOPE   C4A13754  18.218  18.191   7.883  0.2443  0.0348 -0.2808
  910YOPE   C1B13755  18.108  17.897   6.639  0.4115  0.1256  0.2698
  910YOPE   C2B13756  18.157  18.061   6.956  0.1004 -0.1889 -0.3990
  910YOPE   D3B13757  18.240  18.386   7.209 -0.1287 -0.0233 -0.0981
  910YOPE   C4B13758  17.926  18.675   7.468 -0.2567 -0.0628  0.0107
  911YOPE   NH313759  14.572  17.752   5.936  0.2846 -0.1170  0.0355
  911YOPE   PO413760  14.462  17.920   6.270 -0.2907 -0.3091  0.0454
  911YOPE   GL113761  14.549  17.636   6.693 -0.1674  0.1052 -0.3377
  911YOPE   GL213762  14.741  17.571   6.701  0.1943  0.0127  0.1046
  911YOPE   C1A13763  14.332  17.714   7.058 -0.1327 -0.0502  0.3842
  911YOPE   D2A13764  14.249  18.074   7.219 -0.1080 -0.1946 -0.0051
  911YOPE   C3A13765  14.269  18.007   7.665 -0.1746 -0.3528 -0.1880
  911YOPE   C4A13766  14.363  17.604   7.912 -0.0067 -0.1316  0.0422
  911YOPE   C1B13767  14.827  17.710   7.040 -0.1157  0.1686  0.0922
  911YOPE   C2B13768  14.699  17.825   7.372  0.0498 -0.0006 -0.2784
  911YOPE   D3B13769  14.729  17.993   7.833 -0.1969 -0.1106 -0.0733
  911YOPE   C4B13770  14.808  18.024   8.307  0.1243 -0.0731 -0.1839
  912YOPE   NH313771  11.160   3.511   5.738  0.1914  0.0620  0.0273
  912YOPE   PO413772  10.890   3.117   5.642  0.0930 -0.0564  0.1858
  912YOPE   GL113773  10.915   3.071   6.050  0.0706  0.2497 -0.0949
  912YOPE   GL213774  10.944   2.731   6.196 -0.0128  0.2057 -0.0992
  912YOPE   C1A13775  10.640   3.072   6.403 -0.1789  0.1486  0.1851
  912YOPE   D2A13776  10.350   3.046   6.697  0.2043 -0.1975  0.0959
  912YOPE   C3A13777  10.454   3.169   7.068  0.5836  0.0144 -0.0032
  912YOPE   C4A13778  10.197   3.477   7.372 -0.0992 -0.1419 -0.1154
  912YOPE   C1B13779  11.099   2.985   6.518 -0.0469 -0.2681  0.0789
  912YOPE   C2B13780  11.268   2.875   6.814 -0.0544  0.1965  0.0686
  912YOPE   D3B13781  11.167   2.813   7.168  0.1108  0.2907  0.4361
  912YOPE   C4B13782  11.071   2.698   7.619 -0.1998  0.1827  0.0394
  913YOPE   NH313783  14.890   5.670   5.976 -0.0864  0.0155  0.0278
  913YOPE   PO413784  14.448   5.687   6.065 -0.0523  0.1128  0.2100
  913YOPE   GL113785  14.671   5.473   6.487  0.2415 -0.1459  0.2491
  913YOPE   GL213786  14.910   5.640   6.446 -0.1934 -0.1734 -0.2804
  913YOPE   C1A13787  14.631   5.406   6.973 -0.0414  0.0199 -0.2440
  913YOPE   D2A13788  14.737   5.371   7.379  0.2544  0.0230 -0.0009
  913YOPE   C3A13789  14.592   5.141   7.761  0.3250  0.0615  0.0801
  913YOPE   C4A13790  14.567   4.950   8.052  0.0312 -0.1242 -0.4692
  913YOPE   C1B13791  15.075   5.602   6.888  0.2061 -0.0175 -0.0047
  913YOPE   C2B13792  15.176   5.578   7.339  0.0365  0.2561  0.1243
  913YOPE   D3B13793  15.175   5.408   7.733  0.1367  0.2239  0.3207
  913YOPE   C4B13794  15.030   5.265   8.169  0.4262  0.0333 -0.0887
  914YOPE   NH313795  11.681  15.093   5.830  0.1870  0.1380 -0.1410
  914YOPE   PO413796  11.676  14.662   5.825 -0.0010  0.0002  0.0588
  914YOPE   GL113797  11.563  14.866   6.231  0.0782  0.0833 -0.1040
  914YOPE   GL213798  11.270  14.836   6.454 -0.1341  0.3899  0.0406
  914YOPE   C1A13799  11.476  15.243   6.515  0.2823  0.4041  0.1360
  914YOPE   D2A13800  11.641  15.491   6.862 -0.0894 -0.0441 -0.1526
  914YOPE   C3A13801  11.510  15.407   7.280 -0.3228  0.1057 -0.0593
  914YOPE   C4A13802  11.238  15.499   7.676  0.4311  0.3155  0.3264
  914YOPE   C1B13803  11.092  14.770   6.852 -0.1466  0.0389 -0.1656
  914YOPE   C2B13804  11.212  14.961   7.326 -0.1955  0.0338 -0.4105
  914YOPE   D3B13805  11.152  14.970   7.733  0.1854  0.4317  0.0636
  914YOPE   C4B13806  10.999  15.088   8.204 -0.1766  0.1588 -0.0935
  915YOPE   NH313807  13.086   5.393   6.018 -0.1678  0.2308 -0.1412
  915YOPE   PO413808  13.090   5.793   6.029  0.1429 -0.1056 -0.0824
  915YOPE   GL113809  13.119   5.736   6.470 -0.1969 -0.0310  0.0527
  915YOPE   GL213810  12.943   5.807   6.600  0.0022  0.2101 -0.0125
  915YOPE   C1A13811  13.334   5.871   6.904 -0.1395  0.0266  0.0725
  915YOPE   D2A13812  13.262   5.996   7.228  0.0437  0.2245 -0.0716
  915YOPE   C3A13813  12.959   5.745   7.556  0.0708 -0.0699 -0.1763
  915YOPE   C4A13814  12.920   5.624   7.997  0.0228 -0.2305  0.1220
  915YOPE   C1B13815  12.915   5.649   7.052 -0.0996  0.1355  0.0648
  915YOPE   C2B13816  12.772   5.336   7.318  0.1390  0.0900  0.1238
  915YOPE   D3B13817  12.784   5.179   7.734  0.0651 -0.1201  0.2400
  915YOPE   C4B13818  13.010   5.174   8.089 -0.1027  0.0887  0.4549
  916YOPE   NH313819  13.544   2.294   5.982 -0.2647  0.2414  0.0804
  916YOPE   PO413820  13.568   1.814   5.947 -0.1486 -0.2250 -0.2237
  916YOPE   GL113821  13.357   1.895   6.340  0.0171  0.1834  0.0536
  916YOPE   GL213822  13.085   1.736   6.442 -0.0328 -0.1370 -0.0919
  916YOPE   C1A13823  13.415   1.916   6.798 -0.1139  0.0604 -0.2136
  916YOPE   D2A13824  13.500   1.706   7.219 -0.2207  0.0580 -0.4064
  916YOPE   C3A13825  13.421   1.893   7.604 -0.0393 -0.0023 -0.0365
  916YOPE   C4A13826  13.497   1.660   7.980  0.2446 -0.2280 -0.0250
  916YOPE   C1B13827  13.135   1.461   6.796 -0.1172  0.0341 -0.1750
  916YOPE   C2B13828  13.330   1.220   7.081 -0.0545 -0.0386  0.0072
  916YOPE   D3B13829  13.529   1.292   7.485  0.1891  0.2672 -0.2136
  916YOPE   C4B13830  13.831   1.565   7.640  0.0591  0.1939 -0.0893
  917YOPE   NH313831  17.740   7.257   6.099  0.0219  0.1736  0.4022
  917YOPE   PO413832  17.468   7.029   6.268  0.2016  0.1922 -0.2687
  917YOPE   GL113833  17.442   7.253   6.647 -0.0206  0.1863 -0.0695
  917YOPE   GL213834  17.703   7.049   6.760 -0.0309  0.0929  0.0956
  917YOPE   C1A13835  17.210   7.464   6.718 -0.1016 -0.3792 -0.0325
  917YOPE   D2A13836  16.857   7.391   6.982 -0.3281 -0.0393 -0.0448
  917YOPE   C3A13837  16.751   7.411   7.422 -0.3274  0.1378 -0.0061
  917YOPE   C4A13838  16.333   7.573   7.635  0.2075 -0.0404  0.2255
  917YOPE   C1B13839  17.732   7.221   7.098 -0.1400 -0.0837 -0.0110
  917YOPE   C2B13840  17.760   7.422   7.413 -0.0130 -0.1901  0.4016
  917YOPE   D3B13841  17.706   7.598   7.793  0.0056  0.0936  0.0293
  917YOPE   C4B13842  17.534   7.801   8.198 -0.2788 -0.1635 -0.3450
  918YOPE   NH313843   3.983   4.331   6.295  0.2283 -0.1876 -0.1167
  918YOPE   PO413844   4.330   4.464   5.981  0.2659 -0.1452  0.0558
  918YOPE   GL113845   4.467   4.563   6.401 -0.0371  0.0088  0.0051
  918YOPE   GL213846   4.414   4.818   6.553 -0.0792 -0.0468  0.4701
  918YOPE   C1A13847   4.687   4.435   6.727 -0.1377  0.0694  0.1582
  918YOPE   D2A13848   4.845   4.077   6.954 -0.0188 -0.2497  0.0218
  918YOPE   C3A13849   4.961   4.181   7.377 -0.1948 -0.1115  0.1285
  918YOPE   C4A13850   4.942   4.112   7.747 -0.0541  0.1731 -0.0820
  918YOPE   C1B13851   4.439   4.867   6.947  0.0231 -0.2932 -0.0418
  918YOPE   C2B13852   4.340   4.851   7.447  0.1535 -0.2675  0.2255
  918YOPE   D3B13853   4.242   4.983   7.837 -0.0196  0.1943  0.2026
  918YOPE   C4B13854   4.036   4.985   8.191  0.0691  0.0655  0.1806
  919YOPE   NH313855  11.624   7.756   6.268 -0.0170 -0.0597  0.0087
  919YOPE   PO413856  12.026   7.678   6.347  0.5205 -0.0187  0.0320
  919YOPE   GL113857  12.191   8.098   6.494  0.3522 -0.0376 -0.1671
  919YOPE   GL213858  12.445   8.343   6.488  0.0445  0.0929  0.1175
  919YOPE   C1A13859  12.286   8.207   6.976 -0.1483 -0.1966  0.2083
  919YOPE   D2A13860  12.440   8.223   7.368 -0.1370  0.3363 -0.1121
  919YOPE   C3A13861  12.480   8.440   7.746  0.2027 -0.1331 -0.1796
  919YOPE   C4A13862  12.820   8.788   7.812  0.0788  0.0016 -0.0065
  919YOPE   C1B13863  12.425   8.681   6.841  0.2245  0.1603 -0.0815
  919YOPE   C2B13864  12.287   8.713   7.149 -0.2837 -0.0461  0.1055
  919YOPE   D3B13865  12.048   8.524   7.436 -0.5091  0.0989 -0.0368
  919YOPE   C4B13866  11.653   8.563   7.629 -0.1951  0.2107  0.0289
  920YOPE   NH313867   9.545  17.864   5.854 -0.0695  0.5197 -0.2256
  920YOPE   PO413868   9.942  17.951   5.845 -0.0545 -0.1572  0.3301
  920YOPE   GL113869   9.981  18.214   6.182  0.1912  0.0140 -0.1085
  920YOPE   GL213870  10.180  18.254   6.455  0.0537  0.0051 -0.0781
  920YOPE   C1A13871   9.771  18.440   6.535 -0.0605  0.3306 -0.3534
  920YOPE   D2A13872   9.747  18.655   6.848 -0.2688  0.0427 -0.1788
  920YOPE   C3A13873  10.048  18.523   7.274 -0.1763 -0.0804  0.2717
  920YOPE   C4A13874  10.127  18.526   7.590  0.0999  0.1894  0.1133
  920YOPE   C1B13875  10.201  18.493   6.769 -0.2746  0.1816  0.1403
  920YOPE   C2B13876  10.569  18.466   7.042 -0.1260 -0.1412  0.4299
  920YOPE   D3B13877  10.832  18.143   7.108  0.2176  0.0648 -0.1115
  920YOPE   C4B13878  11.072  17.922   6.724  0.1773 -0.3732 -0.1819
  921YOPE   NH313879   5.123  12.731   5.544  0.0996 -0.4495  0.2549
  921YOPE   PO413880   5.200  12.770   6.037 -0.0132 -0.2348  0.1379
  921YOPE   GL113881   4.934  12.594   6.314  0.1007  0.1343  0.1760
  921YOPE   GL213882   5.110  12.436   6.658  0.0689 -0.1296 -0.1243
  921YOPE   C1A13883   4.524  12.548   6.438 -0.0725 -0.1198 -0.2136
  921YOPE   D2A13884   4.292  12.345   6.873  0.0244 -0.1145 -0.0239
  921YOPE   C3A13885   4.486  12.348   7.248  0.0312 -0.0240  0.2206
  921YOPE   C4A13886   4.680  12.493   7.670  0.2094  0.4709 -0.4314
  921YOPE   C1B13887   5.086  12.458   7.092 -0.2324 -0.2393 -0.1956
  921YOPE   C2B13888   5.072  12.250   7.563  0.0331  0.2335  0.0090
  921YOPE   D3B13889   4.998  12.073   7.920 -0.0331  0.1169 -0.0301
  921YOPE   C4B13890   5.064  11.866   8.289 -0.1514  0.0630 -0.0717
  922YOPE   NH313891  17.102   6.646   6.105  0.3034  0.2721  0.3370
  922YOPE   PO413892  17.258   6.203   6.064 -0.1034  0.1521  0.0310
  922YOPE   GL113893  17.322   6.341   6.431 -0.0689  0.0914  0.2332
  922YOPE   GL213894  17.441   6.612   6.525 -0.0888  0.0577  0.0929
  922YOPE   C1A13895  17.253   6.198   6.888 -0.1340 -0.3505  0.0394
  922YOPE   D2A13896  17.335   6.296   7.333 -0.2042  0.0802  0.2553
  922YOPE   C3A13897  17.387   5.913   7.442 -0.2013 -0.1017  0.0717
  922YOPE   C4A13898  17.569   5.546   7.475 -0.2644 -0.1982 -0.0389
  922YOPE   C1B13899  17.644   6.512   6.872 -0.0737 -0.1422 -0.0629
  922YOPE   C2B13900  17.821   6.780   7.211 -0.2306  0.0068 -0.1393
  922YOPE   D3B13901  17.991   7.032   7.564  0.2884  0.0440  0.1255
  922YOPE   C4B13902  18.133   7.266   7.870  0.2578 -0.0662  0.0284
  923YOPE   NH313903   0.271  15.359   6.086  0.0941  0.1089  0.0101
  923YOPE   PO413904   0.307  15.792   6.000  0.2514  0.0544 -0.0952
  923YOPE   GL113905   0.482  15.733   6.421 -0.0399  0.0340 -0.0376
  923YOPE   GL213906   0.508  15.423   6.531  0.2068  0.1343 -0.1702
  923YOPE   C1A13907   0.428  15.761   6.882 -0.3157  0.0716  0.0960
  923YOPE   D2A13908   0.460  15.785   7.280  0.0155 -0.0406  0.1042
  923YOPE   C3A13909   0.189  15.729   7.674  0.0368 -0.0160  0.0566
  923YOPE   C4A13910   0.209  15.614   8.070  0.0203 -0.3476 -0.3975
  923YOPE   C1B13911   0.356  15.233   6.970 -0.1133 -0.4165  0.0588
  923YOPE   C2B13912   0.128  14.939   7.376  0.3199  0.1722  0.0505
  923YOPE   D3B13913  -0.268  14.971   7.617  0.0889 -0.3278  0.1392
  923YOPE   C4B13914  -0.484  15.035   8.034  0.0085 -0.1004 -0.2833
  924YOPE   NH313915  13.820   5.257   5.966 -0.1492 -0.0655 -0.5408
  924YOPE   PO413916  13.897   4.793   6.152  0.1127 -0.3314  0.1091
  924YOPE   GL113917  14.226   5.086   6.316 -0.0586  0.0598  0.0933
  924YOPE   GL213918  14.167   5.382   6.348 -0.0446  0.1560 -0.1737
  924YOPE   C1A13919  14.505   5.039   6.657  0.0360  0.1123  0.0196
  924YOPE   D2A13920  14.621   4.740   6.969  0.0421  0.2670  0.2318
  924YOPE   C3A13921  14.772   4.875   7.386 -0.0671 -0.0031  0.2277
  924YOPE   C4A13922  15.021   4.911   7.770  0.0441 -0.0636  0.2097
  924YOPE   C1B13923  14.240   5.570   6.771 -0.0760 -0.0238 -0.2192
  924YOPE   C2B13924  14.235   5.561   7.163 -0.0291  0.0819 -0.1132
  924YOPE   D3B13925  14.192   5.563   7.613  0.1493 -0.0542 -0.0900
  924YOPE   C4B13926  14.180   5.856   7.894  0.2962  0.1604 -0.2006
  925YOPE   NH313927  13.640  13.569   5.999  0.2097 -0.0398 -0.2689
  925YOPE   PO413928  13.485  13.163   5.897  0.2755  0.1332  0.0365
  925YOPE   GL113929  13.303  13.224   6.342 -0.1885 -0.1125 -0.1616
  925YOPE   GL213930  13.358  13.516   6.571  0.0637  0.1389  0.1215
  925YOPE   C1A13931  13.413  13.060   6.830  0.0125 -0.0625  0.2169
  925YOPE   D2A13932  13.327  13.131   7.220 -0.0025 -0.0162 -0.1728
  925YOPE   C3A13933  13.667  13.113   7.594  0.1230 -0.0878  0.1271
  925YOPE   C4A13934  13.614  13.214   8.040  0.0580  0.0445  0.0698
  925YOPE   C1B13935  13.066  13.524   6.942  0.0627  0.1524  0.2196
  925YOPE   C2B13936  12.846  13.260   7.191 -0.2716 -0.1942 -0.1573
  925YOPE   D3B13937  12.611  13.380   7.354  0.0435 -0.0218 -0.2350
  925YOPE   C4B13938  12.623  13.538   7.780  0.2775 -0.0618  0.1793
  926YOPE   NH313939   8.549  17.369   6.241  0.0688 -0.2124 -0.0771
  926YOPE   PO413940   8.695  17.708   6.010 -0.2180 -0.0031  0.0000
  926YOPE   GL113941   8.580  17.921   6.438 -0.3158  0.0510 -0.2958
  926YOPE   GL213942   8.719  17.587   6.655 -0.0051  0.1661  0.0047
  926YOPE   C1A13943   8.450  17.963   6.922  0.0489  0.2037 -0.3036
  926YOPE   D2A13944   8.309  18.091   7.326 -0.0012  0.0480 -0.0709
  926YOPE   C3A13945   8.723  18.306   7.576 -0.2387 -0.1384  0.1360
  926YOPE   C4A13946   9.077  18.198   7.633 -0.0825  0.1596  0.0474
  926YOPE   C1B13947   8.955  17.615   7.006 -0.2029  0.3109 -0.0271
  926YOPE   C2B13948   8.974  17.456   7.333  0.0607  0.4369 -0.1353
  926YOPE   D3B13949   9.228  17.381   7.669  0.2576 -0.1474 -0.2931
  926YOPE   C4B13950   9.418  16.993   7.908  0.1457  0.1524 -0.0626
  927YOPE   NH313951  15.439   6.744   6.011 -0.0635 -0.2125 -0.0306
  927YOPE   PO413952  15.694   6.327   6.090 -0.1681  0.1484  0.1967
  927YOPE   GL113953  15.671   6.391   6.460  0.2717 -0.1635 -0.0440
  927YOPE   GL213954  15.877   6.248   6.585  0.0941  0.3425  0.0107
  927YOPE   C1A13955  15.533   6.564   6.790 -0.1063 -0.0259 -0.0504
  927YOPE   D2A13956  15.669   6.585   7.189 -0.0459  0.0385 -0.0606
  927YOPE   C3A13957  15.573   6.385   7.564  0.1084 -0.1751 -0.1329
  927YOPE   C4A13958  15.445   6.182   7.934  0.1509 -0.0950  0.1282
  927YOPE   C1B13959  15.913   6.151   6.968 -0.1621  0.2294 -0.0305
  927YOPE   C2B13960  15.974   6.247   7.372 -0.1642 -0.0444  0.0902
  927YOPE   D3B13961  16.039   6.309   7.820 -0.1053 -0.0536  0.1519
  927YOPE   C4B13962  15.874   6.413   8.259  0.2518 -0.1476  0.2352
  928YOPE   NH313963  17.475   8.156   5.732 -0.0512 -0.3199 -0.0795
  928YOPE   PO413964  17.569   8.507   5.665  0.1375 -0.1646  0.0820
  928YOPE   GL113965  17.605   8.554   6.111  0.1228  0.1281  0.2985
  928YOPE   GL213966  17.486   8.866   6.356  0.1139  0.3863 -0.2357
  928YOPE   C1A13967  17.713   8.455   6.485  0.0459 -0.1948 -0.0162
  928YOPE   D2A13968  18.132   8.580   6.722  0.0116 -0.0673  0.0140
  928YOPE   C3A13969  18.303   8.366   7.049  0.2113  0.1565  0.0189
  928YOPE   C4A13970  18.496   8.160   7.539 -0.1796 -0.1801  0.1135
  928YOPE   C1B13971  17.300   8.704   6.741 -0.1210  0.0317  0.1682
  928YOPE   C2B13972  17.572   8.552   7.014 -0.0893  0.5309 -0.0473
  928YOPE   D3B13973  17.866   8.626   7.366  0.0126 -0.0597 -0.0619
  928YOPE   C4B13974  18.330   8.633   7.523 -0.0703 -0.1147  0.1056
  929YOPE   NH313975   6.366   0.628   5.918 -0.2277  0.0633  0.1704
  929YOPE   PO413976   6.159   0.356   5.688 -0.1100  0.2396  0.1351
  929YOPE   GL113977   6.233   0.063   6.145 -0.2539  0.0013 -0.0864
  929YOPE   GL213978   6.310  -0.261   6.137  0.0073  0.2792 -0.2607
  929YOPE   C1A13979   6.121   0.027   6.503  0.0599 -0.2085  0.2195
  929YOPE   D2A13980   5.968  -0.066   6.953  0.1235  0.1187  0.2387
  929YOPE   C3A13981   5.709  -0.401   7.043  0.1474 -0.2385 -0.1525
  929YOPE   C4A13982   5.360  -0.617   6.919  0.0041 -0.0131 -0.2834
  929YOPE   C1B13983   6.127  -0.468   6.594 -0.0605  0.0380  0.1855
  929YOPE   C2B13984   6.180  -0.540   6.999 -0.0756 -0.2433 -0.0808
  929YOPE   D3B13985   6.235  -0.799   7.308 -0.0840 -0.0501 -0.1815
  929YOPE   C4B13986   6.387  -0.734   7.758 -0.0841  0.0994  0.1284
  930YOPE   NH313987   0.436   0.008   5.964  0.2339  0.0500  0.3518
  930YOPE   PO413988   0.402  -0.488   6.080  0.3096 -0.0388  0.1978
  930YOPE   GL113989   0.456  -0.591   6.470  0.2037  0.2250 -0.0567
  930YOPE   GL213990   0.316  -0.876   6.436 -0.0640  0.5684  0.1481
  930YOPE   C1A13991   0.365  -0.525   6.870 -0.0957 -0.2423  0.2485
  930YOPE   D2A13992   0.339  -0.324   7.216 -0.3576 -0.1128  0.3081
  930YOPE   C3A13993   0.701  -0.474   7.467  0.1659 -0.0929  0.0316
  930YOPE   C4A13994   0.639  -0.887   7.632  0.3556 -0.0509  0.0670
  930YOPE   C1B13995   0.740  -1.079   6.642  0.0956 -0.0436  0.1667
  930YOPE   C2B13996   0.786  -1.336   6.971  0.3026 -0.0752 -0.0873
  930YOPE   D3B13997   0.658  -1.463   7.346 -0.0790 -0.2128  0.0688
  930YOPE   C4B13998   0.450  -1.799   7.645 -0.2778  0.1310  0.2391
  931YOPE   NH313999  11.754   6.194   6.204 -0.0543 -0.1173  0.0754
  931YOPE   PO414000  11.573   6.672   6.159  0.0767  0.2182  0.0629
  931YOPE   GL114001  11.521   6.442   6.548  0.0403  0.0776 -0.1029
  931YOPE   GL214002  11.810   6.403   6.646 -0.0690 -0.1356  0.3741
  931YOPE   C1A14003  11.380   6.620   6.875  0.2746  0.3260  0.1415
  931YOPE   D2A14004  11.384   6.752   7.293 -0.4201  0.0306  0.0576
  931YOPE   C3A14005  11.754   6.590   7.527  0.0552 -0.0408  0.0384
  931YOPE   C4A14006  12.149   6.768   7.662 -0.2359  0.2002  0.2423
  931YOPE   C1B14007  11.701   6.348   7.097 -0.0042  0.5438  0.0365
  931YOPE   C2B14008  11.480   6.082   7.481 -0.1610 -0.0565  0.0258
  931YOPE   D3B14009  11.352   5.973   7.828 -0.1950 -0.1808  0.1804
  931YOPE   C4B14010  11.721   5.889   8.074 -0.1043  0.0032 -0.3833
  932YOPE   NH314011   3.847  10.067   5.910  0.0410 -0.4473  0.2044
  932YOPE   PO414012   3.641  10.380   6.085 -0.0817  0.0109  0.2287
  932YOPE   GL114013   3.870  10.340   6.444  0.1204 -0.1952  0.1363
  932YOPE   GL214014   4.216  10.523   6.537 -0.0387  0.0334 -0.2451
  932YOPE   C1A14015   4.114  10.044   6.718  0.0760  0.0349  0.1649
  932YOPE   D2A14016   4.266  10.128   7.109  0.0760  0.1962  0.2904
  932YOPE   C3A14017   3.921  10.248   7.405  0.1934  0.0845 -0.0568
  932YOPE   C4A14018   3.534  10.175   7.657  0.1381 -0.1966  0.2749
  932YOPE   C1B14019   3.795  10.526   6.950 -0.4959 -0.1706 -0.0381
  932YOPE   C2B14020   3.581  10.707   7.406 -0.0833 -0.0485 -0.0529
  932YOPE   D3B14021   3.756  10.645   7.769  0.0350  0.2604 -0.1635
  932YOPE   C4B14022   3.788  10.512   8.152 -0.1062 -0.1890 -0.1293
  933YOPE   NH314023  17.817  14.536   6.078 -0.2819  0.0922  0.2373
  933YOPE   PO414024  17.769  14.922   5.970  0.1535 -0.0922  0.0940
  933YOPE   GL114025  17.858  14.975   6.375 -0.1910  0.0698  0.1416
  933YOPE   GL214026  18.149  15.063   6.474 -0.0853 -0.1457 -0.1350
  933YOPE   C1A14027  17.796  14.993   6.849  0.2200 -0.2164 -0.1610
  933YOPE   D2A14028  17.509  14.837   7.136  0.3305 -0.1272 -0.1354
  933YOPE   C3A14029  17.283  15.143   7.314  0.3559  0.0861 -0.1827
  933YOPE   C4A14030  17.151  15.207   7.704  0.0841 -0.1421  0.0339
  933YOPE   C1B14031  18.203  14.760   6.877  0.1765 -0.0482 -0.2395
  933YOPE   C2B14032  18.402  14.598   7.224 -0.0705 -0.0633 -0.1805
  933YOPE   D3B14033  18.396  14.680   7.670 -0.0285  0.0369 -0.1337
  933YOPE   C4B14034  18.413  14.956   8.010 -0.0950 -0.0277  0.0191
  934YOPE   NH314035   1.982   3.684   6.007 -0.1019 -0.1779  0.0674
  934YOPE   PO414036   1.907   3.255   5.694 -0.3760  0.0715  0.1210
  934YOPE   GL114037   1.707   3.042   5.978 -0.1784 -0.3678  0.0470
  934YOPE   GL214038   1.571   3.369   6.087 -0.4837  0.1281  0.1356
  934YOPE   C1A14039   1.486   2.782   6.253 -0.0207 -0.0436 -0.2064
  934YOPE   D2A14040   1.202   2.920   6.531  0.0685  0.0112  0.2065
  934YOPE   C3A14041   1.239   2.655   6.881  0.0833  0.2085  0.1099
  934YOPE   C4A14042   1.182   2.416   7.169 -0.2043 -0.0456  0.1370
  934YOPE   C1B14043   1.411   3.378   6.396 -0.3499  0.1822 -0.0169
  934YOPE   C2B14044   1.285   3.338   6.813  0.0059 -0.3293  0.1495
  934YOPE   D3B14045   1.134   3.075   7.074  0.0344  0.0835 -0.0939
  934YOPE   C4B14046   1.024   2.890   7.422 -0.0410  0.0260  0.1831
  935YOPE   NH314047  14.535  16.039   5.616 -0.1617 -0.1724  0.1415
  935YOPE   PO414048  14.273  16.272   5.949  0.1571  0.2488 -0.0246
  935YOPE   GL114049  14.145  16.489   6.242  0.2719  0.1322  0.1148
  935YOPE   GL214050  13.894  16.260   6.340 -0.4265  0.1109  0.0856
  935YOPE   C1A14051  14.360  16.597   6.750 -0.2080  0.2181 -0.1955
  935YOPE   D2A14052  14.572  16.640   7.087 -0.3324 -0.2147  0.1463
  935YOPE   C3A14053  14.496  16.721   7.485  0.0590  0.0596  0.0268
  935YOPE   C4A14054  14.539  16.940   7.886  0.3272  0.3678 -0.0617
  935YOPE   C1B14055  13.771  16.447   6.788  0.0301 -0.1989  0.0119
  935YOPE   C2B14056  13.972  16.446   7.159  0.2337 -0.3321  0.1103
  935YOPE   D3B14057  14.027  16.664   7.513  0.2583  0.0647  0.2322
  935YOPE   C4B14058  14.082  17.115   7.609 -0.1829 -0.1126  0.1417
  936YOPE   NH314059   8.555  15.205   5.846  0.1346  0.0246  0.2850
  936YOPE   PO414060   8.460  15.634   6.012 -0.0727  0.1079  0.0760
  936YOPE   GL114061   8.565  15.828   6.383 -0.0174  0.0770  0.1476
  936YOPE   GL214062   8.892  15.807   6.621 -0.0793 -0.0641  0.1006
  936YOPE   C1A14063   8.579  16.147   6.802  0.1713  0.1964 -0.1414
  936YOPE   D2A14064   8.734  16.441   7.102 -0.0822 -0.0557  0.0161
  936YOPE   C3A14065   8.786  16.428   7.455 -0.1386 -0.0010 -0.0443
  936YOPE   C4A14066   9.198  16.543   7.706 -0.1037  0.1115 -0.0467
  936YOPE   C1B14067   9.065  15.543   6.993 -0.0240 -0.1123  0.0143
  936YOPE   C2B14068   8.750  15.517   7.387  0.0532 -0.2640  0.1371
  936YOPE   D3B14069   8.647  15.538   7.697 -0.0017 -0.0042  0.2703
  936YOPE   C4B14070   8.763  15.736   8.072 -0.2107 -0.0638  0.0191
  937YOPE   NH314071  10.439  11.534   6.000  0.2330 -0.1074 -0.0081
  937YOPE   PO414072  10.241  11.194   6.088 -0.1481  0.2361 -0.1516
  937YOPE   GL114073  10.577  11.052   6.388 -0.1794  0.3258  0.1340
  937YOPE   GL214074  10.506  10.665   6.362 -0.2654  0.1793  0.0731
  937YOPE   C1A14075  10.549  11.104   6.750 -0.0407 -0.0666 -0.2239
  937YOPE   D2A14076  10.541  11.353   7.037 -0.2335 -0.0799  0.0564
  937YOPE   C3A14077  10.567  11.238   7.501  0.0895  0.1104 -0.1932
  937YOPE   C4A14078  10.734  11.077   7.861  0.2496  0.0914 -0.3317
  937YOPE   C1B14079  10.409  10.602   6.803 -0.1682  0.1734 -0.1680
  937YOPE   C2B14080  10.341  10.404   7.187  0.2692  0.0579 -0.4323
  937YOPE   D3B14081  10.210  10.270   7.564 -0.1047  0.0702  0.0186
  937YOPE   C4B14082  10.369   9.987   7.934  0.1064 -0.0261 -0.0043
  938YOPE   NH314083   8.188  13.178   6.413 -0.2553  0.0219 -0.2217
  938YOPE   PO414084   8.204  12.777   6.275  0.3419 -0.0542 -0.2224
  938YOPE   GL114085   8.075  12.532   6.564  0.2201 -0.2513  0.2272
  938YOPE   GL214086   8.359  12.347   6.462 -0.0308  0.0810  0.0817
  938YOPE   C1A14087   7.981  12.374   7.008  0.1224  0.1466  0.1168
  938YOPE   D2A14088   7.640  12.075   7.165 -0.1240 -0.0660 -0.5064
  938YOPE   C3A14089   7.570  12.055   7.668 -0.2812 -0.1248 -0.0705
  938YOPE   C4A14090   7.409  11.839   7.957  0.1293  0.0480 -0.1124
  938YOPE   C1B14091   8.515  12.088   6.855  0.2767 -0.1340  0.2149
  938YOPE   C2B14092   8.604  11.865   7.220 -0.0887  0.3512 -0.4005
  938YOPE   D3B14093   8.393  11.582   7.483  0.0500 -0.0182 -0.0874
  938YOPE   C4B14094   8.338  11.447   7.899  0.0508 -0.0349  0.1271
  939YOPE   NH314095   7.837  13.985   6.318  0.2129  0.1678 -0.1243
  939YOPE   PO414096   7.779  13.474   6.460  0.0271 -0.2338  0.0864
  939YOPE   GL114097   7.464  13.364   6.724 -0.0960  0.1091 -0.1393
  939YOPE   GL214098   7.434  13.148   6.915 -0.0157 -0.2111  0.2962
  939YOPE   C1A14099   7.296  13.611   7.031 -0.1407  0.1847  0.1042
  939YOPE   D2A14100   7.365  13.656   7.521 -0.0992 -0.0525  0.0844
  939YOPE   C3A14101   7.379  13.730   7.898  0.1683  0.0909 -0.3808
  939YOPE   C4A14102   7.317  13.584   8.317 -0.0235 -0.1965 -0.0756
  939YOPE   C1B14103   7.681  13.311   7.194  0.2308  0.1312  0.0036
  939YOPE   C2B14104   7.876  13.625   7.507  0.2173 -0.1916 -0.1606
  939YOPE   D3B14105   8.081  13.816   7.818  0.1589  0.2563  0.1456
  939YOPE   C4B14106   8.293  14.121   8.117  0.1865  0.0385 -0.1172
  940YOPE   NH314107   4.487   1.876   5.573  0.1244 -0.1701 -0.0365
  940YOPE   PO414108   4.045   1.889   5.647 -0.1835 -0.0624 -0.2243
  940YOPE   GL114109   4.164   1.819   6.075  0.0879  0.0572 -0.0226
  940YOPE   GL214110   4.433   1.582   6.005 -0.1748  0.0345 -0.4348
  940YOPE   C1A14111   4.233   1.722   6.530  0.2533 -0.1015  0.0435
  940YOPE   D2A14112   4.326   1.552   6.957 -0.0597 -0.0624  0.0837
  940YOPE   C3A14113   4.507   1.687   7.316  0.0785 -0.2015 -0.5202
  940YOPE   C4A14114   4.490   1.756   7.824 -0.0900  0.0355 -0.2782
  940YOPE   C1B14115   4.447   1.302   6.375 -0.2228 -0.1024 -0.1360
  940YOPE   C2B14116   4.509   1.097   6.805 -0.1037 -0.0629 -0.1761
  940YOPE   D3B14117   4.496   1.166   7.256  0.0525  0.2430 -0.1036
  940YOPE   C4B14118   4.141   1.138   7.562  0.0353  0.1622 -0.0925
  941YOPE   NH314119  14.630  14.838   6.009 -0.2696  0.2652  0.0867
  941YOPE   PO414120  14.959  15.060   6.241 -0.1415 -0.1063 -0.1606
  941YOPE   GL114121  15.091  14.984   6.670 -0.0516  0.0590  0.0668
  941YOPE   GL214122  15.012  14.694   6.843 -0.2045 -0.0857  0.1719
  941YOPE   C1A14123  15.174  15.303   7.034  0.0598 -0.0821 -0.1049
  941YOPE   D2A14124  15.275  15.284   7.521 -0.1700  0.2968  0.2119
  941YOPE   C3A14125  15.662  15.520   7.551 -0.3137 -0.0958 -0.2042
  941YOPE   C4A14126  16.097  15.367   7.590  0.0662  0.2123 -0.0429
  941YOPE   C1B14127  14.901  14.959   7.245  0.0962  0.0137  0.0994
  941YOPE   C2B14128  14.721  15.149   7.692  0.2773  0.2127 -0.0136
  941YOPE   D3B14129  14.785  15.174   8.109 -0.1282 -0.2464  0.0029
  941YOPE   C4B14130  14.515  15.025   8.484 -0.3282  0.2869  0.0561
  942YOPE   NH314131   4.698  11.279   6.191 -0.1671  0.1470 -0.0789
  942YOPE   PO414132   4.271  11.399   6.317 -0.1291  0.0553 -0.2859
  942YOPE   GL114133   4.519  11.445   6.698 -0.1078  0.2618 -0.2583
  942YOPE   GL214134   4.767  11.673   6.569 -0.3974 -0.0070  0.2642
  942YOPE   C1A14135   4.454  11.349   7.130 -0.1506 -0.0977  0.1205
  942YOPE   D2A14136   4.271  11.193   7.561  0.1022 -0.1041 -0.2326
  942YOPE   C3A14137   4.241  11.415   7.778 -0.0678 -0.0794 -0.3236
  942YOPE   C4A14138   3.988  11.434   8.129 -0.1850 -0.0256  0.0429
  942YOPE   C1B14139   4.944  11.527   6.958 -0.0228 -0.0504 -0.1373
  942YOPE   C2B14140   4.900  11.373   7.378  0.0204  0.1053 -0.1368
  942YOPE   D3B14141   4.762  11.540   7.812 -0.1208  0.0918  0.0338
  942YOPE   C4B14142   4.631  11.741   8.131 -0.0103  0.0663  0.0006
  943YOPE   NH314143  15.620  13.095   6.173  0.4619 -0.1067 -0.1867
  943YOPE   PO414144  15.183  13.199   6.312  0.0286  0.2196  0.0791
  943YOPE   GL114145  15.261  13.184   6.779  0.0394  0.0901 -0.1072
  943YOPE   GL214146  15.559  13.159   6.831  0.2097 -0.1601 -0.1768
  943YOPE   C1A14147  15.280  13.152   7.215  0.3548 -0.1369 -0.0254
  943YOPE   D2A14148  15.461  12.987   7.635  0.1775  0.1256 -0.5355
  943YOPE   C3A14149  15.232  12.847   7.992 -0.0381 -0.2360  0.0675
  943YOPE   C4A14150  15.311  12.521   8.341  0.4241 -0.0763  0.2807
  943YOPE   C1B14151  15.768  12.944   7.177  0.1116 -0.0125 -0.3279
  943YOPE   C2B14152  15.874  12.690   7.534 -0.1644 -0.0248 -0.2330
  943YOPE   D3B14153  15.941  12.184   7.514 -0.0406  0.0651 -0.0273
  943YOPE   C4B14154  15.841  11.966   7.857 -0.1265  0.2065 -0.1121
  944POPC   NC314155  10.066   3.818   5.865 -0.1219 -0.0064  0.0487
  944POPC   PO414156   9.986   4.233   5.887  0.0952  0.0056 -0.0417
  944POPC   GL114157   9.951   4.231   6.269 -0.1799 -0.2380  0.1320
  944POPC   GL214158   9.925   3.966   6.361  0.1049 -0.0713  0.0227
  944POPC   C1A14159   9.985   4.223   6.743  0.1220 -0.0447 -0.0921
  944POPC   D2A14160   9.722   4.321   7.066  0.3964 -0.0422 -0.2157
  944POPC   C3A14161   9.510   4.027   7.424 -0.2650  0.0424 -0.1641
  944POPC   C4A14162   9.232   4.055   7.694 -0.1791  0.0822 -0.3350
  944POPC   C1B14163   9.863   3.791   6.745 -0.0117 -0.1414 -0.1590
  944POPC   C2B14164  10.025   3.934   7.193  0.1010 -0.0985  0.0376
  944POPC   C3B14165  10.015   3.979   7.582  0.1692 -0.2915  0.1430
  944POPC   C4B14166   9.775   4.017   7.971  0.3428  0.2605 -0.0151
  945POPC   NC314167   1.998   7.266   5.801 -0.1478  0.2056  0.4964
  945POPC   PO414168   2.327   7.339   6.070  0.1313  0.1709  0.1312
  945POPC   GL114169   2.150   7.639   6.255  0.1008  0.2272 -0.1807
  945POPC   GL214170   2.159   8.084   6.246 -0.3387 -0.2327 -0.0322
  945POPC   C1A14171   1.937   7.823   6.623  0.0622  0.1365 -0.4497
  945POPC   D2A14172   1.658   7.780   7.040 -0.0081 -0.1016  0.2998
  945POPC   C3A14173   1.769   7.777   7.432  0.1885 -0.1126 -0.0814
  945POPC   C4A14174   1.864   7.712   7.828 -0.1842 -0.0972  0.0340
  945POPC   C1B14175   2.340   8.076   6.624  0.0989 -0.0444 -0.0776
  945POPC   C2B14176   2.396   8.278   6.969 -0.3001  0.0260 -0.1307
  945POPC   C3B14177   2.446   8.395   7.343 -0.1453 -0.0643 -0.1161
  945POPC   C4B14178   2.256   8.560   7.583 -0.3857  0.1664  0.3149
  946POPC   NC314179  15.495  12.219   6.243  0.0985 -0.0651  0.1285
  946POPC   PO414180  15.361  12.561   6.034  0.0611 -0.1084  0.3640
  946POPC   GL114181  15.314  12.746   6.458  0.2179  0.0526 -0.0655
  946POPC   GL214182  15.506  12.658   6.713  0.2126 -0.0643  0.2666
  946POPC   C1A14183  15.065  12.770   6.931  0.2046 -0.0847 -0.2311
  946POPC   D2A14184  15.028  12.779   7.375 -0.0147 -0.3244  0.1229
  946POPC   C3A14185  14.749  12.822   7.707  0.0099 -0.1487 -0.0124
  946POPC   C4A14186  14.660  13.087   8.045  0.3645 -0.0153  0.1248
  946POPC   C1B14187  15.454  12.544   7.168  0.0604 -0.2204 -0.2766
  946POPC   C2B14188  15.439  12.466   7.551  0.1582  0.0114 -0.0137
  946POPC   C3B14189  15.702  12.466   8.005  0.0409  0.0850  0.2809
  946POPC   C4B14190  16.150  12.284   8.128  0.0884 -0.0742 -0.0762
  947POPC   NC314191   2.762   7.592   5.864  0.1623  0.0448 -0.0617
  947POPC   PO414192   3.029   7.937   5.967  0.1925 -0.0333 -0.1098
  947POPC   GL114193   3.018   7.750   6.351 -0.1093 -0.2645 -0.4032
  947POPC   GL214194   3.264   7.773   6.615  0.0451  0.0064  0.2317
  947POPC   C1A14195   2.720   7.630   6.740 -0.0248  0.2072 -0.2748
  947POPC   D2A14196   2.331   7.530   6.667 -0.0099 -0.0419 -0.2177
  947POPC   C3A14197   2.197   7.801   7.044 -0.0775 -0.3742  0.0708
  947POPC   C4A14198   2.220   7.925   7.498  0.2966 -0.0112  0.0854
  947POPC   C1B14199   3.215   7.993   7.019  0.2587  0.2939  0.2693
  947POPC   C2B14200   3.183   7.936   7.448 -0.1904 -0.4918 -0.2199
  947POPC   C3B14201   3.099   7.986   7.942  0.1550  0.0809  0.1113
  947POPC   C4B14202   3.176   8.277   8.249 -0.0325 -0.4713 -0.1222
  948POPC   NC314203   8.164   7.684   5.763 -0.0382 -0.0474  0.0731
  948POPC   PO414204   8.348   7.376   5.921  0.0952 -0.1059 -0.0020
  948POPC   GL114205   8.326   7.397   6.381  0.0647  0.4292 -0.2047
  948POPC   GL214206   8.432   7.161   6.599 -0.0198  0.0017  0.0122
  948POPC   C1A14207   8.387   7.639   6.758 -0.2638 -0.0861  0.1378
  948POPC   D2A14208   8.545   7.728   7.129 -0.1706 -0.0957  0.0195
  948POPC   C3A14209   8.951   7.926   7.195 -0.0914  0.3381  0.2109
  948POPC   C4A14210   9.167   8.174   7.445  0.0774 -0.1504  0.1526
  948POPC   C1B14211   8.460   7.262   7.101  0.2061  0.3713  0.0163
  948POPC   C2B14212   8.521   7.109   7.514  0.1741  0.1571 -0.0476
  948POPC   C3B14213   8.484   7.009   7.904 -0.0223 -0.1490  0.3318
  948POPC   C4B14214   8.703   7.223   8.333  0.1058 -0.0027  0.1241
  949POPC   NC314215   7.847  14.073   5.698  0.2719 -0.1111  0.0564
  949POPC   PO414216   7.845  14.416   5.970 -0.0255  0.1822 -0.1629
  949POPC   GL114217   8.155  14.439   6.383 -0.1095  0.2576 -0.0529
  949POPC   GL214218   8.288  14.210   6.602 -0.0560  0.3187  0.2361
  949POPC   C1A14219   8.194  14.900   6.682 -0.0414  0.3550 -0.0632
  949POPC   D2A14220   7.925  14.912   7.049 -0.1066  0.4880 -0.1801
  949POPC   C3A14221   7.969  15.098   7.463 -0.2935  0.2492 -0.2697
  949POPC   C4A14222   7.884  15.354   7.789 -0.0652  0.5089  0.1868
  949POPC   C1B14223   8.335  14.494   6.909 -0.0835 -0.2043  0.0873
  949POPC   C2B14224   8.347  14.765   7.374  0.0081 -0.0551  0.1964
  949POPC   C3B14225   8.623  15.037   7.576  0.2810  0.0089  0.0538
  949POPC   C4B14226   8.432  15.214   8.003 -0.0118 -0.3710 -0.2641
  950POPC   NC314227  10.061   9.775   5.661  0.0036 -0.1248  0.0403
  950POPC   PO414228  10.130   9.797   6.047  0.2191 -0.2396 -0.0652
  950POPC   GL114229  10.383   9.602   6.267 -0.1665  0.2400 -0.1014
  950POPC   GL214230  10.640   9.776   6.514  0.0104  0.0390 -0.1526
  950POPC   C1A14231  10.304   9.371   6.621  0.1267 -0.2228 -0.0585
  950POPC   D2A14232  10.251   9.191   6.900  0.1017  0.2716 -0.0133
  950POPC   C3A14233  10.428   9.275   7.352  0.0334  0.0800  0.1195
  950POPC   C4A14234  10.451   9.242   7.830 -0.1488  0.0270 -0.2439
  950POPC   C1B14235  10.615   9.656   6.913 -0.1487  0.2832 -0.0684
  950POPC   C2B14236  10.781   9.631   7.265 -0.3708 -0.0707  0.0534
  950POPC   C3B14237  10.775   9.619   7.678 -0.1807  0.0075 -0.1078
  950POPC   C4B14238  10.611   9.648   8.148 -0.0882  0.2617  0.1523
  951POPC   NC314239   7.131  17.082   5.935  0.1998  0.0323 -0.1037
  951POPC   PO414240   6.789  17.378   5.956 -0.0555  0.1992  0.1408
  951POPC   GL114241   6.663  17.157   6.240 -0.0517 -0.2231 -0.0247
  951POPC   GL214242   6.383  17.214   6.277 -0.2316 -0.1068 -0.1145
  951POPC   C1A14243   6.778  16.915   6.535  0.1898 -0.2536  0.2064
  951POPC   D2A14244   6.888  16.693   6.854  0.0988  0.2180 -0.1063
  951POPC   C3A14245   6.946  16.912   7.217  0.0551  0.2092  0.1109
  951POPC   C4A14246   6.783  16.925   7.630  0.2079  0.0482  0.1841
  951POPC   C1B14247   6.578  17.337   6.706 -0.4106 -0.0582  0.0683
  951POPC   C2B14248   6.732  17.321   7.110 -0.1252  0.1063  0.2298
  951POPC   C3B14249   6.670  17.441   7.439 -0.0863  0.0523 -0.1786
  951POPC   C4B14250   6.518  17.714   7.805 -0.0741  0.1757  0.0767
  952POPC   NC314251   2.383   8.742   5.675  0.1379 -0.3048 -0.0203
  952POPC   PO414252   2.096   8.367   5.817  0.1973  0.0384 -0.3622
  952POPC   GL114253   2.154   8.747   6.132 -0.0936 -0.0702  0.1702
  952POPC   GL214254   1.858   8.911   6.143 -0.3127 -0.0235 -0.0144
  952POPC   C1A14255   2.535   8.958   6.264  0.0887  0.1512 -0.1155
  952POPC   D2A14256   2.539   9.010   6.736  0.2625  0.0417  0.1500
  952POPC   C3A14257   2.716   8.733   6.985  0.2453  0.1022  0.1085
  952POPC   C4A14258   2.914   8.396   7.087  0.0814  0.4307 -0.2097
  952POPC   C1B14259   1.653   8.889   6.533 -0.1306 -0.3424 -0.1271
  952POPC   C2B14260   1.660   8.772   6.908  0.1588 -0.0445 -0.2710
  952POPC   C3B14261   1.442   8.693   7.350 -0.1198  0.0531  0.3808
  952POPC   C4B14262   1.316   8.593   7.702  0.0338  0.4290 -0.1386
  953POPC   NC314263   5.079   3.961   5.898 -0.0239  0.0824  0.1276
  953POPC   PO414264   5.370   4.150   6.101  0.1190 -0.2150 -0.0704
  953POPC   GL114265   5.191   4.274   6.512 -0.1158  0.2150  0.0941
  953POPC   GL214266   5.107   3.904   6.526  0.0438 -0.1826  0.0516
  953POPC   C1A14267   5.265   4.330   6.898 -0.0031 -0.0353  0.0068
  953POPC   D2A14268   5.443   4.508   7.212 -0.2653  0.1820 -0.3672
  953POPC   C3A14269   5.309   4.501   7.661  0.0851 -0.1133 -0.2507
  953POPC   C4A14270   5.415   4.651   7.979 -0.1709 -0.1437 -0.1812
  953POPC   C1B14271   5.433   3.863   6.774  0.1482 -0.4321 -0.2528
  953POPC   C2B14272   5.576   3.984   7.123  0.0253 -0.0119 -0.1309
  953POPC   C3B14273   5.607   3.894   7.461 -0.2165 -0.1376  0.3816
  953POPC   C4B14274   5.957   3.794   7.695 -0.0242  0.0417 -0.1698
  954POPC   NC314275   6.113   7.414   6.124 -0.2298 -0.2429  0.0035
  954POPC   PO414276   5.707   7.753   6.199  0.1879 -0.0226  0.0389
  954POPC   GL114277   5.602   7.982   6.630 -0.2438 -0.1649 -0.1000
  954POPC   GL214278   5.434   7.766   6.752 -0.1916  0.1471  0.0053
  954POPC   C1A14279   5.723   8.132   7.079  0.2684 -0.0221 -0.1176
  954POPC   D2A14280   5.727   8.226   7.482 -0.0630  0.1309  0.0623
  954POPC   C3A14281   5.556   8.537   7.815 -0.4996  0.1128 -0.2664
  954POPC   C4A14282   5.784   8.836   7.967  0.1599  0.0493 -0.0602
  954POPC   C1B14283   5.248   7.837   7.182  0.2761 -0.0354  0.1631
  954POPC   C2B14284   4.929   7.976   7.429 -0.1296  0.0952 -0.1090
  954POPC   C3B14285   4.901   7.995   7.892  0.2407  0.2552 -0.1397
  954POPC   C4B14286   4.651   7.733   8.182 -0.0922  0.0377  0.0151
  955POPC   NC314287   4.458   1.019   4.886 -0.1243 -0.0351 -0.0027
  955POPC   PO414288   4.315   0.906   5.338 -0.3268  0.0083 -0.4041
  955POPC   GL114289   4.421   0.812   5.757  0.3398 -0.0649  0.1094
  955POPC   GL214290   4.259   1.054   5.964 -0.3130  0.0586  0.1048
  955POPC   C1A14291   4.255   0.520   5.985  0.3111 -0.1241 -0.1762
  955POPC   D2A14292   3.920   0.353   6.010 -0.2241 -0.1209 -0.2215
  955POPC   C3A14293   3.752   0.260   6.417 -0.3639 -0.4671 -0.1463
  955POPC   C4A14294   3.368   0.406   6.299 -0.0335  0.0612 -0.1418
  955POPC   C1B14295   4.264   0.849   6.361 -0.1360  0.4460  0.0157
  955POPC   C2B14296   4.181   0.700   6.890  0.1195 -0.0686 -0.0371
  955POPC   C3B14297   4.270   0.722   7.341 -0.2085  0.0081  0.0848
  955POPC   C4B14298   4.518   0.749   7.752 -0.1431 -0.1743  0.1683
  956POPC   NC314299  10.188  14.382   5.910 -0.1204 -0.1698 -0.0300
  956POPC   PO414300  10.561  14.373   6.251  0.0103 -0.1652 -0.1637
  956POPC   GL114301  10.705  14.541   6.542 -0.1066 -0.1836  0.0308
  956POPC   GL214302  10.640  14.818   6.621 -0.3322  0.0769  0.0816
  956POPC   C1A14303  10.733  14.391   6.914  0.1088  0.1538  0.0712
  956POPC   D2A14304  10.861  14.452   7.296 -0.0724 -0.0599 -0.0850
  956POPC   C3A14305  10.716  14.530   7.686 -0.0354 -0.0902 -0.2473
  956POPC   C4A14306  10.686  14.866   7.969  0.1135  0.2560  0.1377
  956POPC   C1B14307  10.708  14.897   7.110  0.1911  0.0892  0.2120
  956POPC   C2B14308  10.766  15.182   7.471 -0.1250  0.1064  0.1317
  956POPC   C3B14309  10.623  15.403   7.697  0.3121  0.1460 -0.1541
  956POPC   C4B14310  10.394  15.729   7.624 -0.0099  0.0934  0.0339
  957POPC   NC314311   8.684   5.656   5.736 -0.2155 -0.1497  0.0351
  957POPC   PO414312   8.896   5.615   6.194  0.0818  0.2059  0.0431
  957POPC   GL114313   8.787   5.328   6.565  0.0125 -0.1174  0.0909
  957POPC   GL214314   8.432   5.208   6.551 -0.1310  0.0362  0.3679
  957POPC   C1A14315   8.882   5.229   6.920  0.0017  0.1328  0.0090
  957POPC   D2A14316   9.117   5.009   7.244 -0.1359 -0.0914  0.2551
  957POPC   C3A14317   9.098   4.552   7.420 -0.0961 -0.1033  0.0216
  957POPC   C4A14318   8.743   4.312   7.458  0.2369 -0.1235 -0.0535
  957POPC   C1B14319   8.399   5.181   7.083  0.2714 -0.0578  0.0759
  957POPC   C2B14320   8.681   5.199   7.424 -0.2584  0.0142 -0.0173
  957POPC   C3B14321   9.035   5.077   7.691  0.2859 -0.1927 -0.2582
  957POPC   C4B14322   9.339   5.079   8.070 -0.0952  0.1772 -0.2395
  958POPC   NC314323  12.020   6.705   6.303  0.1390 -0.3854  0.2604
  958POPC   PO414324  12.020   7.171   6.279  0.1004  0.0649  0.0143
  958POPC   GL114325  12.117   7.277   6.652  0.0807  0.0773 -0.0280
  958POPC   GL214326  12.045   7.240   6.909  0.3387 -0.0646 -0.1458
  958POPC   C1A14327  12.537   7.272   6.924 -0.1955  0.0320 -0.0012
  958POPC   D2A14328  12.729   7.216   7.345 -0.1908 -0.1909 -0.0438
  958POPC   C3A14329  13.164   7.292   7.348 -0.0202  0.1965  0.0144
  958POPC   C4A14330  13.463   7.222   7.637  0.0451 -0.2421 -0.2670
  958POPC   C1B14331  12.260   7.109   7.327  0.2287 -0.0384  0.2108
  958POPC   C2B14332  12.500   7.141   7.777  0.1436 -0.0954 -0.2069
  958POPC   C3B14333  12.724   7.121   8.135 -0.2212  0.0733 -0.2593
  958POPC   C4B14334  12.663   7.007   8.547  0.0452 -0.0662  0.3452
  959POPC   NC314335  12.938  16.266   5.861  0.1162 -0.1231 -0.1384
  959POPC   PO414336  13.054  16.777   5.856 -0.1321 -0.0565  0.0724
  959POPC   GL114337  13.062  16.601   6.323 -0.2997  0.1143  0.1928
  959POPC   GL214338  13.415  16.563   6.443 -0.2613  0.2327  0.1210
  959POPC   C1A14339  12.870  16.906   6.696  0.0806  0.2597 -0.1308
  959POPC   D2A14340  12.630  16.916   7.121  0.0420  0.0231 -0.0742
  959POPC   C3A14341  12.475  16.922   7.601 -0.0542  0.3467  0.1123
  959POPC   C4A14342  12.357  16.869   8.030  0.0861  0.2926  0.1417
  959POPC   C1B14343  13.253  16.443   6.876  0.2455  0.1221 -0.1958
  959POPC   C2B14344  13.459  16.298   7.196  0.2216 -0.1685 -0.2266
  959POPC   C3B14345  13.511  16.339   7.689  0.1344 -0.0997 -0.0219
  959POPC   C4B14346  13.807  16.356   8.049  0.0964  0.2459  0.3310
  960POPC   NC314347   7.356  12.348   5.810 -0.1678  0.1009  0.0367
  960POPC   PO414348   7.593  12.047   6.212  0.0256  0.1516 -0.1487
  960POPC   GL114349   7.660  12.273   6.630 -0.0511  0.1389  0.5299
  960POPC   GL214350   7.427  12.130   6.711 -0.0214 -0.0269  0.1539
  960POPC   C1A14351   7.549  12.565   7.061  0.2182  0.2937  0.0449
  960POPC   D2A14352   7.451  12.891   7.374  0.0259  0.0705  0.0985
  960POPC   C3A14353   7.768  13.157   7.686 -0.0527 -0.2051 -0.2544
  960POPC   C4A14354   7.841  13.421   8.057 -0.2128  0.2471 -0.1859
  960POPC   C1B14355   7.137  12.026   7.043  0.2017  0.2608  0.0056
  960POPC   C2B14356   7.076  11.922   7.442 -0.0148 -0.1405  0.0536
  960POPC   C3B14357   6.987  11.613   7.711 -0.0214  0.1087 -0.0937
  960POPC   C4B14358   6.854  11.295   7.792  0.2023 -0.1398 -0.3823
  961POPC   NC314359  16.613   3.388   5.645  0.1311  0.0156  0.0439
  961POPC   PO414360  16.908   3.034   5.639 -0.0772  0.3297 -0.1884
  961POPC   GL114361  16.763   3.049   5.981 -0.2736 -0.0550 -0.2639
  961POPC   GL214362  16.499   3.243   6.065 -0.0127 -0.2413 -0.0569
  961POPC   C1A14363  16.714   2.870   6.316 -0.0192 -0.1755  0.1648
  961POPC   D2A14364  16.744   2.635   6.615  0.1002  0.3604  0.1215
  961POPC   C3A14365  16.653   2.617   7.119  0.1029 -0.0450  0.1365
  961POPC   C4A14366  16.295   2.373   7.106  0.0206  0.2611  0.1767
  961POPC   C1B14367  16.808   3.404   6.352  0.3341  0.2435 -0.0057
  961POPC   C2B14368  16.789   3.813   6.558 -0.1341  0.1862 -0.0060
  961POPC   C3B14369  16.785   4.003   6.922 -0.2826 -0.1313  0.0836
  961POPC   C4B14370  16.544   4.038   7.317 -0.2765 -0.0912 -0.1670
  962POPC   NC314371   5.585   2.991   6.061  0.2275 -0.0649 -0.1934
  962POPC   PO414372   5.800   2.582   6.009 -0.1600 -0.0547  0.0901
  962POPC   GL114373   5.623   2.707   6.486 -0.0050 -0.1036 -0.0674
  962POPC   GL214374   5.525   2.989   6.541  0.0021 -0.3159 -0.0079
  962POPC   C1A14375   5.632   2.787   6.945  0.0973  0.1157  0.1264
  962POPC   D2A14376   5.542   2.974   7.310 -0.2758 -0.0311  0.1834
  962POPC   C3A14377   5.780   2.957   7.567  0.1129  0.0755  0.0517
  962POPC   C4A14378   6.082   2.977   7.935  0.1479 -0.1153  0.2060
  962POPC   C1B14379   5.283   3.124   6.905 -0.2941  0.1535 -0.4013
  962POPC   C2B14380   4.992   3.087   7.313  0.1984 -0.1438  0.2693
  962POPC   C3B14381   4.630   3.348   7.338 -0.3811 -0.0165  0.0192
  962POPC   C4B14382   4.220   3.204   7.351 -0.0259  0.0563  0.3026
  963POPC   NC314383   6.393  11.425   5.973  0.1142  0.0919  0.0288
  963POPC   PO414384   6.160  11.111   6.016 -0.0947  0.0922 -0.2549
  963POPC   GL114385   6.199  11.278   6.464 -0.4057 -0.1814 -0.1560
  963POPC   GL214386   6.525  11.257   6.529  0.0616 -0.2659  0.0999
  963POPC   C1A14387   6.247  11.476   6.880  0.0458 -0.1839  0.1919
  963POPC   D2A14388   6.257  11.783   7.208 -0.0437  0.1615  0.2022
  963POPC   C3A14389   6.047  11.855   7.630  0.0733 -0.0323 -0.1443
  963POPC   C4A14390   5.918  12.028   7.982 -0.1639 -0.0872  0.0152
  963POPC   C1B14391   6.800  11.412   6.829 -0.0918  0.1651  0.0924
  963POPC   C2B14392   6.692  11.509   7.267  0.1360  0.1694 -0.0010
  963POPC   C3B14393   6.555  11.890   7.569  0.0924 -0.5657 -0.4420
  963POPC   C4B14394   6.412  12.100   7.829  0.2233  0.1342  0.0058
  964POPC   NC314395   9.265   9.411   5.793  0.0871 -0.2513  0.0859
  964POPC   PO414396   9.096   9.845   5.780  0.1538  0.2768  0.0853
  964POPC   GL114397   9.122   9.892   6.226  0.3453  0.1476  0.0015
  964POPC   GL214398   9.072  10.168   6.352  0.2322 -0.0464  0.1608
  964POPC   C1A14399   9.062   9.738   6.641 -0.0174  0.1419 -0.2304
  964POPC   D2A14400   9.344   9.391   6.710  0.0125  0.0130 -0.0058
  964POPC   C3A14401   9.228   8.984   6.809  0.4437 -0.1646  0.1117
  964POPC   C4A14402   9.325   8.595   7.239 -0.0643 -0.0790  0.0960
  964POPC   C1B14403   9.338  10.355   6.645 -0.2457  0.1162 -0.1279
  964POPC   C2B14404   9.391  10.386   6.981  0.3105  0.0790 -0.0845
  964POPC   C3B14405   9.374  10.442   7.328  0.0275 -0.1057  0.1681
  964POPC   C4B14406   9.451  10.758   7.613  0.1286 -0.3442 -0.2715
  965POPC   NC314407   8.230   2.848   5.599  0.2075 -0.0356  0.1092
  965POPC   PO414408   7.780   2.767   5.764 -0.0554 -0.3223 -0.1924
  965POPC   GL114409   8.006   2.879   6.181 -0.2352  0.0321  0.0414
  965POPC   GL214410   7.865   2.668   6.531 -0.0805  0.0343  0.1530
  965POPC   C1A14411   8.206   2.983   6.568  0.1173 -0.3631 -0.2690
  965POPC   D2A14412   8.246   2.897   7.058  0.0613  0.1037 -0.1816
  965POPC   C3A14413   8.274   3.162   7.376  0.1190  0.3000  0.3681
  965POPC   C4A14414   8.429   3.060   7.759  0.1850 -0.2067  0.0146
  965POPC   C1B14415   7.856   2.674   6.836  0.1807 -0.1216  0.1739
  965POPC   C2B14416   7.797   2.758   7.237  0.2011  0.0052  0.3994
  965POPC   C3B14417   7.783   3.048   7.496 -0.3642  0.3641  0.2728
  965POPC   C4B14418   7.982   3.361   7.702 -0.2387  0.0349  0.0480
  966POPC   NC314419   1.033   0.728   5.497 -0.1329  0.2392  0.0111
  966POPC   PO414420   1.472   0.789   5.659  0.0353 -0.1461  0.1555
  966POPC   GL114421   1.818   1.031   5.926  0.0600 -0.4615  0.0868
  966POPC   GL214422   2.123   1.176   5.931  0.1318  0.3258  0.0345
  966POPC   C1A14423   1.740   1.130   6.297  0.0346  0.1937 -0.2752
  966POPC   D2A14424   1.389   0.885   6.482 -0.0427  0.1280 -0.0144
  966POPC   C3A14425   1.491   0.879   6.981 -0.3397  0.0358  0.1162
  966POPC   C4A14426   1.256   0.897   7.332 -0.0556 -0.4674 -0.1593
  966POPC   C1B14427   2.209   1.232   6.403 -0.2146 -0.0608 -0.0147
  966POPC   C2B14428   2.423   1.660   6.658 -0.0387 -0.2849 -0.2154
  966POPC   C3B14429   2.672   1.873   6.470 -0.2308 -0.0152  0.0049
  966POPC   C4B14430   2.730   2.323   6.354  0.1440  0.0045 -0.3588
  967POPC   NC314431  17.599  10.968   5.281 -0.0171  0.0562  0.1003
  967POPC   PO414432  17.553  10.657   5.539 -0.1490  0.1805 -0.0398
  967POPC   GL114433  17.406  10.702   5.958 -0.2001 -0.0506 -0.1360
  967POPC   GL214434  17.693  10.970   6.039  0.0447 -0.1390 -0.1813
  967POPC   C1A14435  17.564  10.472   6.269  0.1153 -0.0429  0.0631
  967POPC   D2A14436  17.353  10.230   6.663  0.3376 -0.0797  0.0373
  967POPC   C3A14437  17.409  10.261   7.114  0.0527  0.2091 -0.0247
  967POPC   C4A14438  17.745  10.334   7.506  0.0232  0.2687  0.1193
  967POPC   C1B14439  17.709  10.969   6.459  0.0846  0.1171  0.1181
  967POPC   C2B14440  17.739  10.913   6.842  0.1615  0.0418 -0.0682
  967POPC   C3B14441  17.906  10.745   7.160 -0.2049 -0.0253  0.2453
  967POPC   C4B14442  18.029  10.699   7.618 -0.2484 -0.1836 -0.1517
  968POPC   NC314443   8.893   2.949   5.240  0.0142  0.1864 -0.1146
  968POPC   PO414444   8.529   3.216   5.500  0.0560 -0.2230 -0.0480
  968POPC   GL114445   8.716   2.982   5.774  0.1482 -0.0964 -0.5417
  968POPC   GL214446   8.553   2.845   6.050 -0.0743  0.1847 -0.0072
  968POPC   C1A14447   9.056   2.933   5.988  0.0854 -0.0645 -0.2177
  968POPC   D2A14448   9.217   2.666   6.372 -0.1572  0.0553  0.3179
  968POPC   C3A14449   9.173   2.740   6.749 -0.2006  0.2104 -0.4384
  968POPC   C4A14450   9.185   2.689   7.176 -0.0659  0.1952 -0.0888
  968POPC   C1B14451   8.687   2.850   6.469 -0.0318 -0.2357 -0.1990
  968POPC   C2B14452   8.674   2.836   6.871 -0.0173 -0.2601  0.1438
  968POPC   C3B14453   8.632   2.799   7.338 -0.1747 -0.0111  0.0702
  968POPC   C4B14454   8.603   2.528   7.667 -0.0581 -0.0617  0.0690
  969POPC   NC314455  10.086   2.215   5.700  0.1419 -0.1421 -0.0438
  969POPC   PO414456   9.663   2.178   5.899 -0.0060  0.2698 -0.0969
  969POPC   GL114457   9.511   2.121   6.264 -0.0023  0.0989  0.1178
  969POPC   GL214458   9.129   1.878   6.390 -0.2289  0.1821  0.1606
  969POPC   C1A14459   9.456   2.286   6.598 -0.1592  0.1926 -0.0459
  969POPC   D2A14460   9.398   2.261   6.996 -0.0920 -0.1203  0.1530
  969POPC   C3A14461   9.556   2.257   7.455 -0.1633 -0.0356  0.1182
  969POPC   C4A14462   9.591   1.933   7.731 -0.1248  0.3508 -0.0424
  969POPC   C1B14463   9.131   1.825   6.866 -0.0360 -0.0619 -0.0731
  969POPC   C2B14464   9.217   1.846   7.218  0.0069  0.0431 -0.0446
  969POPC   C3B14465   9.111   1.895   7.666  0.1238  0.3194 -0.1479
  969POPC   C4B14466   8.998   1.880   8.028  0.0875  0.1089  0.0962
  970POPC   NC314467   5.906   3.535   5.654  0.0787 -0.1041  0.1468
  970POPC   PO414468   6.051   3.167   5.933  0.1976  0.0613 -0.0190
  970POPC   GL114469   6.101   2.849   6.276  0.1889  0.1745  0.0199
  970POPC   GL214470   6.372   2.706   6.206  0.0264  0.1942  0.0844
  970POPC   C1A14471   6.030   2.881   6.709  0.3270 -0.0515  0.0350
  970POPC   D2A14472   6.106   2.896   7.181 -0.2797  0.0536  0.0558
  970POPC   C3A14473   6.046   2.598   7.579  0.0167 -0.0105  0.0878
  970POPC   C4A14474   5.700   2.578   7.858 -0.0831  0.2463  0.1949
  970POPC   C1B14475   6.463   2.642   6.594 -0.0544 -0.0224  0.0316
  970POPC   C2B14476   6.391   2.542   7.042 -0.0842 -0.1109  0.0024
  970POPC   C3B14477   6.525   2.524   7.393 -0.1760  0.0907 -0.1027
  970POPC   C4B14478   6.933   2.322   7.605  0.2311 -0.2609 -0.1052
  971POPC   NC314479  13.854   6.456   5.854  0.2327  0.0482 -0.0159
  971POPC   PO414480  13.674   6.825   5.860  0.0758  0.1054 -0.1284
  971POPC   GL114481  13.929   6.990   6.201  0.0725  0.1230  0.0899
  971POPC   GL214482  13.893   6.900   6.454 -0.1366  0.1832  0.0484
  971POPC   C1A14483  14.332   7.095   6.500  0.1572 -0.0021  0.0101
  971POPC   D2A14484  14.373   6.936   6.956  0.1581 -0.0135  0.0196
  971POPC   C3A14485  14.785   6.829   7.147 -0.0686 -0.1229 -0.1495
  971POPC   C4A14486  14.946   6.863   7.529 -0.2698 -0.0123  0.0872
  971POPC   C1B14487  13.915   7.094   6.799 -0.1610 -0.1454  0.0550
  971POPC   C2B14488  14.004   7.294   7.170  0.3093  0.2683  0.1600
  971POPC   C3B14489  14.019   7.165   7.644  0.1330  0.3041  0.0278
  971POPC   C4B14490  13.799   7.083   8.097 -0.3309 -0.4331  0.0466
  972POPC   NC314491   0.429   2.165   5.416 -0.0439  0.4296  0.0321
  972POPC   PO414492   0.134   1.861   5.478 -0.3707  0.1117 -0.3859
  972POPC   GL114493   0.138   2.174   5.791  0.0109  0.0179 -0.4412
  972POPC   GL214494  -0.132   2.018   5.895  0.2373  0.1437 -0.1298
  972POPC   C1A14495   0.186   2.433   6.223  0.0297  0.0965 -0.1237
  972POPC   D2A14496   0.277   2.359   6.732  0.1705 -0.1864  0.3693
  972POPC   C3A14497   0.242   2.333   7.202  0.0925 -0.1041  0.4674
  972POPC   C4A14498   0.306   2.310   7.692  0.0013  0.2776 -0.1249
  972POPC   C1B14499  -0.334   1.680   6.135  0.1382  0.1655  0.1098
  972POPC   C2B14500  -0.462   1.580   6.598  0.0486 -0.2672  0.2263
  972POPC   C3B14501  -0.481   1.601   7.045 -0.0649  0.0613 -0.0640
  972POPC   C4B14502  -0.453   1.705   7.419  0.0365 -0.2700 -0.0488
  973POPC   NC314503  11.094   7.399   6.038  0.0574 -0.0849  0.2550
  973POPC   PO414504  11.213   7.904   6.006  0.0076  0.0858  0.0559
  973POPC   GL114505  11.139   7.712   6.496 -0.0804  0.0470  0.0239
  973POPC   GL214506  11.119   7.390   6.550  0.1238  0.0796 -0.0049
  973POPC   C1A14507  11.171   7.686   6.949  0.0481 -0.0986  0.0284
  973POPC   D2A14508  11.434   7.886   7.267  0.0313  0.1095 -0.2191
  973POPC   C3A14509  11.265   8.262   7.352  0.1718  0.1569  0.0978
  973POPC   C4A14510  11.131   8.638   7.657  0.1078 -0.0760  0.2017
  973POPC   C1B14511  10.985   7.193   6.802  0.2220 -0.0667  0.1006
  973POPC   C2B14512  10.753   7.384   7.171  0.0115 -0.0476 -0.1310
  973POPC   C3B14513  10.869   7.645   7.463  0.0186  0.2472  0.0971
  973POPC   C4B14514  11.123   7.833   7.677  0.0435 -0.0037  0.1469
  974POPC   NC314515   2.743   2.201   5.488  0.0339  0.0074  0.1467
  974POPC   PO414516   2.458   2.578   5.451 -0.2175  0.1607  0.0176
  974POPC   GL114517   2.222   2.379   5.823  0.0527 -0.0521  0.0625
  974POPC   GL214518   2.072   2.676   6.051  0.2606 -0.0533  0.0407
  974POPC   C1A14519   2.218   2.174   6.253  0.0272  0.3456 -0.0150
  974POPC   D2A14520   2.083   2.044   6.670  0.0561 -0.0383  0.0691
  974POPC   C3A14521   1.816   1.901   6.947 -0.0950  0.2333 -0.2436
  974POPC   C4A14522   1.746   1.635   7.317 -0.0951 -0.0902  0.1194
  974POPC   C1B14523   2.355   2.642   6.290  0.1293 -0.0479  0.2016
  974POPC   C2B14524   2.381   2.468   6.732 -0.0248 -0.3677  0.2372
  974POPC   C3B14525   2.545   2.497   7.117 -0.0044 -0.0348  0.3080
  974POPC   C4B14526   2.927   2.355   7.388 -0.2040 -0.1012  0.0753
  975POPC   NC314527   3.149  11.861   6.010 -0.3044 -0.1785 -0.0739
  975POPC   PO414528   3.195  12.318   6.181 -0.1567 -0.1055  0.0821
  975POPC   GL114529   3.298  12.486   6.604 -0.1656 -0.1078 -0.0200
  975POPC   GL214530   3.133  12.689   6.776  0.0817 -0.0856 -0.1545
  975POPC   C1A14531   3.382  12.297   7.073  0.0705 -0.0419  0.1012
  975POPC   D2A14532   3.552  12.058   7.406 -0.1074 -0.2768 -0.2004
  975POPC   C3A14533   3.678  12.341   7.697 -0.0228 -0.1020 -0.0622
  975POPC   C4A14534   3.783  12.153   8.120 -0.2349 -0.4017  0.2020
  975POPC   C1B14535   3.096  12.761   7.157 -0.1239  0.1449  0.2204
  975POPC   C2B14536   3.212  12.524   7.507  0.1656  0.2283 -0.0177
  975POPC   C3B14537   3.237  12.524   7.924  0.2456 -0.1473 -0.2311
  975POPC   C4B14538   3.366  12.540   8.349 -0.0785 -0.1442  0.0924
  976POPC   NC314539  17.897   5.259   5.950 -0.2028  0.0798  0.1395
  976POPC   PO414540  17.987   5.712   5.874  0.0378  0.0481 -0.0481
  976POPC   GL114541  18.091   5.708   6.256 -0.0733 -0.1111  0.0594
  976POPC   GL214542  17.924   5.483   6.412 -0.0690  0.2381 -0.0425
  976POPC   C1A14543  18.348   5.864   6.585  0.1309  0.0378 -0.0618
  976POPC   D2A14544  18.360   5.936   6.926  0.1237 -0.2186  0.0967
  976POPC   C3A14545  18.329   6.016   7.308 -0.1593  0.0127  0.1525
  976POPC   C4A14546  18.240   6.137   7.682 -0.2044  0.0605 -0.0747
  976POPC   C1B14547  18.055   5.553   6.817  0.0586  0.3472  0.1678
  976POPC   C2B14548  18.060   5.559   7.223  0.0880 -0.0656 -0.1151
  976POPC   C3B14549  18.035   5.370   7.556 -0.0634  0.0115 -0.0874
  976POPC   C4B14550  17.908   5.184   7.935 -0.0670  0.0743  0.0547
  977POPC   NC314551  14.240   3.001   6.123 -0.1433 -0.0799 -0.1632
  977POPC   PO414552  14.530   3.350   6.029  0.0068 -0.0293  0.3090
  977POPC   GL114553  14.597   3.625   6.301  0.1892  0.1454  0.3904
  977POPC   GL214554  14.273   3.734   6.283 -0.2287 -0.2439 -0.1136
  977POPC   C1A14555  14.641   3.875   6.708 -0.0760 -0.1926  0.1373
  977POPC   D2A14556  14.821   4.222   6.964  0.2577  0.0383  0.1119
  977POPC   C3A14557  14.655   4.360   7.331 -0.0022  0.1522  0.2554
  977POPC   C4A14558  14.402   4.643   7.576 -0.0225 -0.1692  0.0407
  977POPC   C1B14559  14.246   3.641   6.753  0.0754 -0.3577  0.1256
  977POPC   C2B14560  14.225   3.442   7.139 -0.0366 -0.1552  0.0396
  977POPC   C3B14561  14.577   3.230   7.394 -0.0861  0.0937  0.2158
  977POPC   C4B14562  14.907   3.400   7.697  0.1501 -0.0213 -0.2153
  978POPC   NC314563   3.890   7.330   6.080  0.1998  0.4335 -0.2456
  978POPC   PO414564   3.576   7.111   5.838 -0.0555 -0.1226 -0.1758
  978POPC   GL114565   3.461   7.101   6.240  0.0606  0.0292  0.0293
  978POPC   GL214566   3.251   7.272   6.436  0.0382  0.1211 -0.2360
  978POPC   C1A14567   3.480   6.713   6.592 -0.1317  0.0432 -0.0629
  978POPC   D2A14568   3.235   6.708   7.001  0.1173  0.1138 -0.2342
  978POPC   C3A14569   3.045   6.526   7.443 -0.2927 -0.1848 -0.0738
  978POPC   C4A14570   2.823   6.554   7.774 -0.0227  0.0225  0.1393
  978POPC   C1B14571   3.282   7.329   6.880  0.1267 -0.1923 -0.2381
  978POPC   C2B14572   2.967   7.504   7.167 -0.0758 -0.4246 -0.2208
  978POPC   C3B14573   3.170   7.363   7.612 -0.1575  0.0383  0.2468
  978POPC   C4B14574   3.123   6.961   7.765 -0.2331  0.2283 -0.0404
  979POPC   NC314575   6.963  17.829   5.754 -0.1745  0.2014 -0.2266
  979POPC   PO414576   7.317  17.945   5.720  0.0527  0.2423 -0.1994
  979POPC   GL114577   7.247  17.977   6.187  0.3340 -0.3096  0.0281
  979POPC   GL214578   7.108  18.274   6.213  0.0568 -0.4679 -0.1639
  979POPC   C1A14579   7.311  17.736   6.517 -0.1469  0.0623 -0.1197
  979POPC   D2A14580   7.116  17.557   6.813  0.3771  0.3605  0.3248
  979POPC   C3A14581   7.034  17.754   7.246  0.2651  0.0350 -0.2208
  979POPC   C4A14582   7.043  17.762   7.726  0.1177  0.3238 -0.0515
  979POPC   C1B14583   7.089  18.304   6.578  0.0043 -0.2060  0.0128
  979POPC   C2B14584   7.172  18.036   6.871  0.1763 -0.1686 -0.0131
  979POPC   C3B14585   7.514  17.861   7.042 -0.1725  0.1526 -0.1043
  979POPC   C4B14586   7.915  17.800   7.112  0.1314 -0.0442  0.2022
  980POPC   NC314587   5.034  15.954   5.850 -0.0225  0.2345 -0.0582
  980POPC   PO414588   4.898  15.615   5.628  0.2789 -0.0396  0.2165
  980POPC   GL114589   4.842  15.530   6.023  0.1419  0.2414  0.0555
  980POPC   GL214590   4.618  15.486   6.243  0.1832  0.3483 -0.0651
  980POPC   C1A14591   5.078  15.458   6.389 -0.0154 -0.1442  0.1729
  980POPC   D2A14592   5.057  15.362   6.809  0.3179  0.2457 -0.2142
  980POPC   C3A14593   5.156  15.469   7.195 -0.2920 -0.0551  0.0596
  980POPC   C4A14594   5.407  15.846   7.338 -0.1127  0.3194  0.0007
  980POPC   C1B14595   4.588  15.365   6.628  0.0254  0.0594  0.1230
  980POPC   C2B14596   4.634  15.339   7.109 -0.3590  0.1552 -0.4426
  980POPC   C3B14597   4.362  15.450   7.398  0.1128  0.2855 -0.4334
  980POPC   C4B14598   4.217  15.309   7.857 -0.0194  0.1425 -0.2386
  981POPC   NC314599  13.199   9.665   5.570 -0.0859 -0.2221  0.0621
  981POPC   PO414600  13.302   9.833   5.965 -0.2456 -0.0735  0.2216
  981POPC   GL114601  13.535   9.963   6.424  0.2030  0.1585 -0.1727
  981POPC   GL214602  13.650  10.307   6.445  0.0532 -0.0770  0.0307
  981POPC   C1A14603  13.693   9.758   6.790  0.2570 -0.0123  0.1512
  981POPC   D2A14604  13.827   9.596   7.217  0.0035  0.0243  0.2072
  981POPC   C3A14605  13.968   9.513   7.717 -0.1764 -0.0211  0.1416
  981POPC   C4A14606  14.153   9.441   8.183  0.1709  0.0704  0.1031
  981POPC   C1B14607  13.676  10.249   6.891  0.2373  0.2034 -0.1177
  981POPC   C2B14608  13.676  10.207   7.316 -0.3169  0.2416 -0.0382
  981POPC   C3B14609  13.638   9.989   7.723 -0.0319 -0.0936  0.0797
  981POPC   C4B14610  13.527   9.887   8.187 -0.2319  0.1798 -0.1188
  982POPC   NC314611  17.787   4.412   5.276  0.0800 -0.1297  0.0119
  982POPC   PO414612  17.789   4.716   5.700 -0.2927  0.0676  0.1237
  982POPC   GL114613  17.803   4.707   6.098 -0.1080  0.0936 -0.1715
  982POPC   GL214614  17.701   4.913   6.253  0.2044  0.0579  0.1649
  982POPC   C1A14615  17.932   4.456   6.393 -0.0073 -0.0488 -0.1760
  982POPC   D2A14616  17.703   4.218   6.699 -0.2055 -0.1455  0.4440
  982POPC   C3A14617  17.889   3.988   7.016  0.1104  0.0055 -0.2480
  982POPC   C4A14618  18.148   4.053   7.444  0.5327  0.0610 -0.2461
  982POPC   C1B14619  17.512   4.724   6.504 -0.0847 -0.1286 -0.2602
  982POPC   C2B14620  17.554   4.734   7.016  0.0705  0.3293  0.2456
  982POPC   C3B14621  17.351   4.552   7.310  0.0038 -0.0904 -0.0390
  982POPC   C4B14622  17.327   4.585   7.723  0.0759  0.1719  0.2324
  983POPC   NC314623   1.130   6.257   5.509  0.0323  0.2002  0.2815
  983POPC   PO414624   0.804   6.058   5.803  0.0728  0.0830  0.1410
  983POPC   GL114625   0.757   6.036   6.188  0.1411 -0.1194 -0.0010
  983POPC   GL214626   0.963   5.878   6.344 -0.0608  0.0586 -0.1739
  983POPC   C1A14627   0.727   6.214   6.604  0.1487  0.0261  0.1431
  983POPC   D2A14628   1.106   6.403   6.891  0.1360 -0.1119 -0.2250
  983POPC   C3A14629   1.129   6.445   7.269 -0.2407  0.0314 -0.0695
  983POPC   C4A14630   1.412   6.429   7.675 -0.1925  0.1215  0.1046
  983POPC   C1B14631   0.862   5.696   6.756  0.3582 -0.2718  0.2369
  983POPC   C2B14632   0.880   5.877   7.229 -0.0042  0.1509  0.1970
  983POPC   C3B14633   1.115   5.975   7.520 -0.1273 -0.0238  0.1545
  983POPC   C4B14634   1.243   6.013   7.965 -0.1620 -0.3804 -0.0661
  984YOPC   NC314635   0.820   2.406   5.727  0.2494 -0.0038  0.1542
  984YOPC   PO414636   1.054   2.149   5.658  0.0519  0.0320  0.1407
  984YOPC   GL114637   1.141   2.123   6.095 -0.1166  0.1818  0.1806
  984YOPC   GL214638   1.363   1.936   6.169 -0.0823  0.1564 -0.3311
  984YOPC   C1A14639   1.181   2.314   6.444 -0.1359  0.0848 -0.0183
  984YOPC   D2A14640   1.006   2.148   6.800  0.2281  0.2088 -0.5624
  984YOPC   C3A14641   0.683   2.170   6.937 -0.1241  0.0989  0.0354
  984YOPC   C4A14642   0.351   1.872   7.019 -0.2870  0.4491 -0.0847
  984YOPC   C1B14643   1.439   1.893   6.583 -0.0991 -0.1956 -0.1296
  984YOPC   C2B14644   1.358   1.959   7.105 -0.1989  0.0542 -0.0993
  984YOPC   D3B14645   1.684   2.153   7.351 -0.0041 -0.0062  0.0861
  984YOPC   C4B14646   2.054   2.383   7.582 -0.1927  0.1686  0.0698
  985YOPC   NC314647  17.743  11.843   5.734  0.3464  0.1198  0.0187
  985YOPC   PO414648  17.943  12.171   5.973 -0.1450  0.2496  0.0983
  985YOPC   GL114649  18.027  12.077   6.443 -0.0321 -0.2873  0.5228
  985YOPC   GL214650  18.346  11.823   6.523  0.1323 -0.0973  0.3360
  985YOPC   C1A14651  17.957  12.020   6.848 -0.0176  0.1675  0.1023
  985YOPC   D2A14652  17.899  12.231   7.229 -0.1804 -0.0613 -0.1131
  985YOPC   C3A14653  17.943  12.096   7.611  0.0120 -0.0486  0.3311
  985YOPC   C4A14654  18.247  12.006   7.915 -0.1917  0.0165  0.0368
  985YOPC   C1B14655  18.333  11.663   6.874  0.1683  0.1365 -0.1309
  985YOPC   C2B14656  18.073  11.746   7.216  0.0350 -0.1440 -0.0988
  985YOPC   D3B14657  17.988  11.613   7.629  0.1090  0.0022 -0.0505
  985YOPC   C4B14658  17.738  11.777   8.020 -0.0197 -0.1391 -0.2588
  986YOPC   NC314659   7.973   5.006   5.458  0.3135 -0.2375 -0.1159
  986YOPC   PO414660   7.675   5.021   5.752  0.0565 -0.0445  0.1024
  986YOPC   GL114661   7.572   4.954   6.215  0.2651 -0.0155  0.0547
  986YOPC   GL214662   7.607   5.238   6.439  0.1367  0.0147  0.2266
  986YOPC   C1A14663   7.551   4.718   6.596 -0.0520 -0.2178  0.1836
  986YOPC   D2A14664   7.602   4.703   7.092  0.2656 -0.0395 -0.0599
  986YOPC   C3A14665   7.658   4.560   7.566 -0.0358 -0.1340 -0.0124
  986YOPC   C4A14666   7.765   4.289   7.875 -0.0436  0.0923 -0.0802
  986YOPC   C1B14667   7.533   5.217   6.834  0.0169  0.1739 -0.1924
  986YOPC   C2B14668   7.517   5.227   7.266  0.4434 -0.1724 -0.1180
  986YOPC   D3B14669   7.810   5.008   7.558 -0.2628  0.0698  0.0866
  986YOPC   C4B14670   8.270   5.022   7.553  0.0917 -0.1047  0.2196
  987YOPC   NC314671   3.129  12.836   6.312  0.0892 -0.0099 -0.2284
  987YOPC   PO414672   2.744  13.058   6.413  0.0100  0.3473  0.1890
  987YOPC   GL114673   2.660  13.169   6.714 -0.1633  0.0175 -0.0851
  987YOPC   GL214674   3.054  13.183   6.894 -0.0762 -0.5203  0.0506
  987YOPC   C1A14675   2.594  13.475   7.023  0.2997 -0.2244 -0.3073
  987YOPC   D2A14676   2.564  13.650   7.346  0.0367 -0.2252  0.1739
  987YOPC   C3A14677   2.334  13.485   7.740  0.0373 -0.0924 -0.0993
  987YOPC   C4A14678   2.247  13.529   8.152 -0.0277 -0.0434 -0.1627
  987YOPC   C1B14679   2.887  13.225   7.308  0.1380 -0.0944 -0.1883
  987YOPC   C2B14680   2.996  13.379   7.700 -0.0193  0.2788 -0.1038
  987YOPC   D3B14681   3.283  13.147   8.012 -0.0550  0.2932  0.1860
  987YOPC   C4B14682   3.451  13.204   8.397 -0.0661  0.1448 -0.0354
  988YOPC   NC314683   4.572   9.686   5.910 -0.0659 -0.2105 -0.0960
  988YOPC   PO414684   4.104   9.624   5.915 -0.0165 -0.0181  0.0894
  988YOPC   GL114685   3.813   9.611   6.231 -0.2387  0.0798  0.2054
  988YOPC   GL214686   3.759   9.372   6.405  0.0556 -0.1666 -0.0625
  988YOPC   C1A14687   3.712   9.850   6.540  0.1369 -0.1822 -0.1058
  988YOPC   D2A14688   3.699  10.045   7.007 -0.1154  0.0084  0.2515
  988YOPC   C3A14689   3.539   9.674   7.310  0.1063  0.0010  0.3448
  988YOPC   C4A14690   3.164   9.646   7.544 -0.0696  0.1459  0.0356
  988YOPC   C1B14691   4.033   9.526   6.830 -0.0193 -0.0199 -0.3248
  988YOPC   C2B14692   4.163   9.662   7.218 -0.1392 -0.1553  0.0674
  988YOPC   D3B14693   3.945   9.746   7.590  0.2646  0.1427 -0.2290
  988YOPC   C4B14694   3.547   9.621   7.860  0.1566  0.2959 -0.0771
  989YOPC   NC314695  10.291   4.567   6.039  0.0659  0.1263 -0.2705
  989YOPC   PO414696  10.544   4.901   5.892 -0.1143  0.1565  0.0387
  989YOPC   GL114697  10.816   5.051   6.212  0.1714 -0.0434  0.1629
  989YOPC   GL214698  10.924   5.298   6.531 -0.0458  0.2611  0.0730
  989YOPC   C1A14699  10.783   4.844   6.611 -0.0031 -0.0844 -0.0533
  989YOPC   D2A14700  10.928   4.554   6.938  0.1096 -0.1672 -0.0050
  989YOPC   C3A14701  10.898   4.574   7.193 -0.1066  0.0272 -0.0441
  989YOPC   C4A14702  10.960   4.081   7.271 -0.1924 -0.1920  0.3144
  989YOPC   C1B14703  10.985   5.144   6.939 -0.1829 -0.2061  0.1691
  989YOPC   C2B14704  11.095   4.969   7.378 -0.0260 -0.1774  0.0063
  989YOPC   D3B14705  11.163   4.494   7.598 -0.3363 -0.2363  0.0550
  989YOPC   C4B14706  11.268   4.219   8.000  0.0581  0.0826  0.1656
  990YOPC   NC314707  14.325   2.476   5.611 -0.1774  0.2259  0.1529
  990YOPC   PO414708  14.005   2.583   5.982  0.0174 -0.0490 -0.3049
  990YOPC   GL114709  13.946   2.356   6.351 -0.0307 -0.1240  0.2260
  990YOPC   GL214710  14.246   2.250   6.379 -0.0787  0.0149 -0.1151
  990YOPC   C1A14711  13.653   2.331   6.652 -0.0711  0.1152 -0.0307
  990YOPC   D2A14712  13.606   2.290   7.168 -0.1988  0.1844  0.1974
  990YOPC   C3A14713  13.231   2.280   7.191 -0.2266 -0.2458 -0.0270
  990YOPC   C4A14714  13.031   2.517   7.416 -0.0698  0.0651 -0.2003
  990YOPC   C1B14715  14.553   2.067   6.583 -0.0809  0.2209  0.1531
  990YOPC   C2B14716  14.622   2.126   6.902 -0.2129 -0.0310  0.1168
  990YOPC   D3B14717  14.473   2.489   7.145 -0.0733  0.2275 -0.2350
  990YOPC   C4B14718  14.330   2.855   7.103 -0.0898  0.0487 -0.0080
  991YOPC   NC314719   7.305   3.113   5.502 -0.0250 -0.0395  0.1595
  991YOPC   PO414720   7.200   3.583   5.581 -0.0897  0.4251  0.4173
  991YOPC   GL114721   7.195   3.617   6.078  0.0372  0.0539 -0.0150
  991YOPC   GL214722   6.931   3.533   6.250  0.2406  0.1083 -0.0191
  991YOPC   C1A14723   7.535   3.628   6.350  0.2385  0.0262 -0.0778
  991YOPC   D2A14724   7.724   3.815   6.742  0.0193  0.2285 -0.0860
  991YOPC   C3A14725   8.018   3.758   6.979  0.0159  0.0543  0.0036
  991YOPC   C4A14726   8.226   3.727   7.357 -0.2818  0.0474 -0.1309
  991YOPC   C1B14727   6.877   3.512   6.649  0.1331 -0.0920 -0.0050
  991YOPC   C2B14728   6.803   3.511   7.046  0.0240 -0.2033 -0.0845
  991YOPC   D3B14729   6.297   3.426   7.120  0.2110  0.2217 -0.1933
  991YOPC   C4B14730   6.094   3.341   7.546 -0.0438  0.2764  0.0162
  992YOPC   NC314731   7.003   7.192   6.077  0.0621 -0.0618 -0.0722
  992YOPC   PO414732   7.312   7.262   6.162 -0.3883 -0.1698 -0.1006
  992YOPC   GL114733   7.283   7.147   6.571  0.0311 -0.1099 -0.0854
  992YOPC   GL214734   7.243   7.369   6.724 -0.0231 -0.0066  0.0827
  992YOPC   C1A14735   7.485   7.007   6.992 -0.1624  0.0528  0.3345
  992YOPC   D2A14736   7.472   7.173   7.405  0.0996 -0.2946  0.0159
  992YOPC   C3A14737   7.389   6.880   7.793 -0.1769  0.2285  0.3031
  992YOPC   C4A14738   7.213   6.572   8.147 -0.4296 -0.0151 -0.0081
  992YOPC   C1B14739   7.235   7.605   7.168  0.0843 -0.0915  0.0722
  992YOPC   C2B14740   7.384   7.679   7.498  0.1194 -0.0070 -0.0239
  992YOPC   D3B14741   7.572   7.659   7.845  0.2074 -0.0976 -0.0076
  992YOPC   C4B14742   7.402   7.686   8.368  0.0760  0.1198 -0.1464
  993YOPC   NC314743   5.655   0.176   5.501 -0.1470  0.1355 -0.0334
  993YOPC   PO414744   5.915  -0.091   5.770  0.1475 -0.0920  0.0049
  993YOPC   GL114745   5.777  -0.318   6.095  0.2562  0.3490  0.0268
  993YOPC   GL214746   5.871  -0.677   6.185  0.1052  0.3707 -0.0840
  993YOPC   C1A14747   5.659  -0.245   6.533  0.0226 -0.4395  0.3452
  993YOPC   D2A14748   5.526   0.116   6.866 -0.0413 -0.2577 -0.1591
  993YOPC   C3A14749   5.700  -0.017   7.381  0.0899 -0.1869 -0.1105
  993YOPC   C4A14750   5.951  -0.438   7.460 -0.0174  0.1184  0.1295
  993YOPC   C1B14751   5.673  -0.733   6.622 -0.0020  0.2833 -0.2269
  993YOPC   C2B14752   5.776  -0.890   7.081  0.0810 -0.0122 -0.3494
  993YOPC   D3B14753   5.554  -0.697   7.515 -0.0235 -0.1582 -0.1787
  993YOPC   C4B14754   5.474  -0.812   7.840 -0.2501 -0.1890 -0.0663
  994YOPC   NC314755   1.287   3.508   5.718  0.0043 -0.1168  0.1890
  994YOPC   PO414756   1.654   3.872   5.694  0.0293 -0.2460  0.0283
  994YOPC   GL114757   1.533   3.887   6.179  0.1277 -0.2732  0.2249
  994YOPC   GL214758   1.318   4.162   6.323  0.2933  0.0968  0.2652
  994YOPC   C1A14759   1.409   3.843   6.681  0.0652 -0.1169  0.3734
  994YOPC   D2A14760   1.613   3.845   7.050  0.1116  0.3587 -0.1247
  994YOPC   C3A14761   1.535   3.604   7.339  0.2730  0.0880  0.0674
  994YOPC   C4A14762   1.457   3.503   7.824 -0.1091  0.0042 -0.2616
  994YOPC   C1B14763   0.927   3.939   6.559  0.0842 -0.4528  0.0192
  994YOPC   C2B14764   0.853   3.617   6.785  0.0428 -0.2684 -0.2464
  994YOPC   D3B14765   1.028   3.587   7.185 -0.1892 -0.1796 -0.3386
  994YOPC   C4B14766   0.949   3.569   7.653  0.0186 -0.2041  0.1568
  995YOPC   NC314767   6.640   7.953   6.180 -0.0282 -0.2486  0.0156
  995YOPC   PO414768   6.398   7.650   6.462  0.1363 -0.1062 -0.1800
  995YOPC   GL114769   6.388   7.447   6.892 -0.1152  0.1378 -0.0303
  995YOPC   GL214770   6.100   7.294   7.038  0.1455 -0.2324  0.0982
  995YOPC   C1A14771   6.466   7.411   7.368  0.1959 -0.0088  0.0316
  995YOPC   D2A14772   6.588   7.576   7.710 -0.2261  0.0836 -0.1266
  995YOPC   C3A14773   6.347   7.718   8.156 -0.1109 -0.1779  0.1496
  995YOPC   C4A14774   6.214   7.837   8.513 -0.0208 -0.3189 -0.3795
  995YOPC   C1B14775   6.003   7.299   7.500  0.2003 -0.0414  0.1287
  995YOPC   C2B14776   6.186   7.293   7.873  0.0769  0.1154  0.0260
  995YOPC   D3B14777   6.442   7.118   8.147  0.0703 -0.2749  0.0656
  995YOPC   C4B14778   6.923   6.961   7.948  0.0142  0.2479 -0.0053
  996YOPC   NC314779   2.574   4.973   6.075  0.0400 -0.3956 -0.1227
  996YOPC   PO414780   2.386   5.211   5.884  0.0335 -0.1067  0.0088
  996YOPC   GL114781   2.360   5.228   6.416 -0.2034  0.2187 -0.0622
  996YOPC   GL214782   2.129   5.020   6.486  0.0533  0.0767  0.2050
  996YOPC   C1A14783   2.574   5.214   6.752 -0.2006 -0.0049 -0.2320
  996YOPC   D2A14784   2.715   5.378   7.220 -0.0544 -0.1191  0.2793
  996YOPC   C3A14785   2.897   5.515   7.593  0.1484 -0.1015 -0.2355
  996YOPC   C4A14786   2.943   5.788   8.089  0.0232  0.1441 -0.2202
  996YOPC   C1B14787   2.090   5.052   6.937  0.2191 -0.0470 -0.1593
  996YOPC   C2B14788   2.185   5.368   7.256  0.1218  0.0449  0.0156
  996YOPC   D3B14789   2.425   5.274   7.617 -0.1144  0.0753  0.0165
  996YOPC   C4B14790   2.633   5.388   7.988  0.0327  0.0996  0.0889
  997YOPC   NC314791  16.476   7.061   6.127 -0.1048 -0.2216  0.0791
  997YOPC   PO414792  16.034   6.838   6.130  0.0077 -0.2377 -0.1230
  997YOPC   GL114793  16.091   6.743   6.491 -0.1532  0.4733  0.0075
  997YOPC   GL214794  16.339   6.938   6.537  0.1487  0.0335 -0.0300
  997YOPC   C1A14795  16.067   6.637   6.884  0.0197  0.3170 -0.0241
  997YOPC   D2A14796  16.266   6.654   7.311 -0.0680  0.1390 -0.1618
  997YOPC   C3A14797  15.900   6.777   7.693 -0.4795 -0.2713 -0.1169
  997YOPC   C4A14798  15.805   7.064   8.041  0.0000  0.0996  0.0483
  997YOPC   C1B14799  16.411   7.301   6.705  0.0045  0.4128 -0.1817
  997YOPC   C2B14800  16.366   7.686   6.996  0.0395 -0.1656 -0.1523
  997YOPC   D3B14801  16.003   7.763   7.239  0.2025 -0.1107  0.0066
  997YOPC   C4B14802  15.779   7.822   7.634  0.3075  0.2167  0.1654
  998YOPC   NC314803  16.086  10.190   5.853  0.3122  0.1439  0.1725
  998YOPC   PO414804  16.299   9.966   6.115 -0.0996  0.2400  0.1229
  998YOPC   GL114805  16.310  10.206   6.471  0.0495 -0.1302  0.1873
  998YOPC   GL214806  16.166  10.523   6.369 -0.1068  0.2044 -0.0679
  998YOPC   C1A14807  16.288  10.288   6.910  0.1319  0.0575  0.0508
  998YOPC   D2A14808  16.280  10.268   7.350 -0.3374 -0.3248 -0.0996
  998YOPC   C3A14809  16.653  10.192   7.501 -0.1769 -0.0803  0.0717
  998YOPC   C4A14810  16.926  10.266   7.811 -0.1173  0.3349  0.1798
  998YOPC   C1B14811  16.061  10.730   6.718  0.1579  0.2416  0.0916
  998YOPC   C2B14812  15.998  10.664   7.131 -0.1668 -0.0443 -0.1010
  998YOPC   D3B14813  15.705  10.531   7.270 -0.1187 -0.0264  0.0598
  998YOPC   C4B14814  15.414  10.256   7.472 -0.0718 -0.0516 -0.3171
  999YOPC   NC314815   4.001  16.417   5.721  0.2520 -0.1107 -0.0779
  999YOPC   PO414816   3.561  16.290   5.575 -0.4587  0.1982 -0.1793
  999YOPC   GL114817   3.630  16.133   5.903 -0.0515 -0.1662 -0.0098
  999YOPC   GL214818   3.597  16.394   6.197 -0.1190 -0.0327 -0.1098
  999YOPC   C1A14819   3.611  15.894   6.308  0.1720  0.0551 -0.4225
  999YOPC   D2A14820   3.833  15.711   6.665 -0.0812 -0.2593  0.1947
  999YOPC   C3A14821   3.541  15.581   6.987 -0.1237 -0.3169 -0.2709
  999YOPC   C4A14822   3.505  15.916   7.329 -0.0562  0.1812 -0.0277
  999YOPC   C1B14823   3.234  16.275   6.313  0.1454  0.2139 -0.3638
  999YOPC   C2B14824   2.984  15.895   6.166  0.0832 -0.0582  0.0372
  999YOPC   D3B14825   2.733  16.205   6.021  0.4554  0.0677 -0.3046
  999YOPC   C4B14826   2.393  16.423   5.750  0.1598  0.0361  0.1449
 1000YOPC   NC314827   5.250   0.953   5.670 -0.1310 -0.2553 -0.0411
 1000YOPC   PO414828   5.332   0.528   5.535  0.1731 -0.0548  0.0141
 1000YOPC   GL114829   5.316   0.348   5.956  0.1857 -0.1329 -0.2528
 1000YOPC   GL214830   5.379   0.649   6.086 -0.3201 -0.2469 -0.1883
 1000YOPC   C1A14831   5.282   0.148   6.349  0.2588 -0.1621  0.1745
 1000YOPC   D2A14832   5.204  -0.177   6.709  0.0560  0.0498 -0.3921
 1000YOPC   C3A14833   5.053  -0.287   7.151  0.0812 -0.0853  0.0734
 1000YOPC   C4A14834   5.209  -0.280   7.590 -0.3507 -0.1512  0.1115
 1000YOPC   C1B14835   5.060   0.641   6.417 -0.1188 -0.2530 -0.1260
 1000YOPC   C2B14836   5.103   0.548   6.832 -0.1044  0.1605  0.1005
 1000YOPC   D3B14837   5.129   0.181   7.137  0.2685 -0.0425  0.0303
 1000YOPC   C4B14838   4.820   0.230   7.476 -0.0380  0.1149 -0.0816
 1001YOPC   NC314839   0.477   7.350   5.606 -0.0740  0.2577 -0.3218
 1001YOPC   PO414840   0.266   7.135   5.837  0.1096 -0.0995 -0.0751
 1001YOPC   GL114841   0.425   7.280   6.162 -0.0862 -0.0441 -0.0574
 1001YOPC   GL214842   0.757   7.376   6.151  0.0475 -0.1999 -0.3217
 1001YOPC   C1A14843   0.404   7.105   6.532  0.1709 -0.0779 -0.1447
 1001YOPC   D2A14844   0.223   6.892   6.882  0.1844  0.1178 -0.1326
 1001YOPC   C3A14845   0.400   6.919   7.165  0.0719 -0.0969 -0.1235
 1001YOPC   C4A14846   0.372   6.656   7.567 -0.3042  0.2156  0.0515
 1001YOPC   C1B14847   0.716   7.481   6.599  0.1955 -0.1223 -0.1478
 1001YOPC   C2B14848   0.695   7.328   7.012 -0.1709 -0.3933  0.0419
 1001YOPC   D3B14849   0.838   7.566   7.321 -0.2147 -0.0342 -0.0328
 1001YOPC   C4B14850   0.725   7.672   7.762 -0.0930 -0.1144  0.0439
 1002YOPC   NC314851   0.194  12.521   6.281 -0.1779 -0.1237  0.0498
 1002YOPC   PO414852   0.335  12.903   6.644  0.1233 -0.1223  0.0265
 1002YOPC   GL114853   0.369  12.895   7.038 -0.0041  0.0142  0.3434
 1002YOPC   GL214854   0.191  12.657   7.226 -0.0695 -0.1261 -0.1077
 1002YOPC   C1A14855   0.148  13.124   7.357  0.2272  0.0213  0.2379
 1002YOPC   D2A14856  -0.287  13.378   7.295  0.2802 -0.3005  0.0226
 1002YOPC   C3A14857  -0.483  13.572   7.581 -0.0814  0.0532  0.0416
 1002YOPC   C4A14858  -0.677  13.564   7.919 -0.1417  0.2766  0.1935
 1002YOPC   C1B14859   0.106  12.561   7.614 -0.2631  0.0283  0.1355
 1002YOPC   C2B14860  -0.003  12.802   7.936  0.2318 -0.2519 -0.0928
 1002YOPC   D3B14861   0.173  13.179   7.855  0.1730 -0.0141 -0.1633
 1002YOPC   C4B14862   0.267  13.483   7.973  0.0847  0.0415  0.0601
 1003YOPC   NC314863  11.876  17.757   6.019  0.1702 -0.0715  0.3910
 1003YOPC   PO414864  11.407  17.969   6.087  0.0260 -0.3110  0.3060
 1003YOPC   GL114865  11.357  18.254   6.461  0.1895 -0.0726  0.1853
 1003YOPC   GL214866  11.635  18.552   6.617 -0.1186  0.2077 -0.1267
 1003YOPC   C1A14867  11.048  18.429   6.733  0.0250  0.1235 -0.0412
 1003YOPC   D2A14868  11.025  18.669   7.112 -0.0597 -0.0071  0.2587
 1003YOPC   C3A14869  11.116  18.676   7.452 -0.3348 -0.0202 -0.0126
 1003YOPC   C4A14870  11.506  18.626   7.637 -0.0261 -0.1028 -0.1814
 1003YOPC   C1B14871  11.639  18.631   7.014  0.0266  0.1797  0.0074
 1003YOPC   C2B14872  11.826  18.951   7.260 -0.2444  0.0043 -0.1675
 1003YOPC   D3B14873  11.701  19.086   7.672  0.2668  0.2365  0.3841
 1003YOPC   C4B14874  11.674  19.125   8.096 -0.2800 -0.3685  0.0226
 1004YOPC   NC314875  11.302   3.100   5.297  0.5207 -0.1257  0.1490
 1004YOPC   PO414876  11.638   3.439   5.541 -0.0603  0.1843 -0.0523
 1004YOPC   GL114877  11.815   3.447   5.926 -0.2578  0.1015 -0.2755
 1004YOPC   GL214878  11.864   3.091   5.894 -0.1863 -0.1521  0.2655
 1004YOPC   C1A14879  11.871   3.364   6.398 -0.1056 -0.2884  0.1478
 1004YOPC   D2A14880  11.715   3.063   6.759 -0.0292 -0.0162  0.2335
 1004YOPC   C3A14881  11.604   3.069   7.136  0.1366 -0.0359 -0.1402
 1004YOPC   C4A14882  11.557   2.849   7.550 -0.1132 -0.4840 -0.0320
 1004YOPC   C1B14883  11.719   2.925   6.268 -0.0951  0.3894 -0.2095
 1004YOPC   C2B14884  11.603   2.600   6.565  0.3664  0.0718  0.0424
 1004YOPC   D3B14885  11.688   2.595   7.033  0.0113  0.0316  0.2833
 1004YOPC   C4B14886  11.581   2.368   7.396 -0.1525  0.1551  0.0226
 1005YOPC   NC314887  15.481  17.717   6.164 -0.0714  0.0414  0.0706
 1005YOPC   PO414888  15.840  17.745   6.030 -0.2425 -0.0333 -0.0379
 1005YOPC   GL114889  16.035  17.885   6.413 -0.1644 -0.0641 -0.1030
 1005YOPC   GL214890  16.340  17.685   6.445 -0.1891  0.3610 -0.2476
 1005YOPC   C1A14891  16.303  18.151   6.678  0.3422  0.0495 -0.0133
 1005YOPC   D2A14892  16.349  18.498   6.977 -0.0358 -0.0635 -0.1946
 1005YOPC   C3A14893  16.449  18.470   7.478  0.0650  0.0620  0.1589
 1005YOPC   C4A14894  16.706  18.432   7.757 -0.2471 -0.0992 -0.3560
 1005YOPC   C1B14895  16.280  17.627   6.868 -0.1016 -0.2129 -0.1672
 1005YOPC   C2B14896  16.385  17.549   7.322  0.2075 -0.0038 -0.1948
 1005YOPC   D3B14897  16.176  17.682   7.568 -0.3039  0.1083  0.0253
 1005YOPC   C4B14898  15.956  17.525   7.850 -0.2371 -0.1299  0.3056
 1006YOPC   NC314899   8.256   4.185   5.526  0.1165  0.1925 -0.0494
 1006YOPC   PO414900   8.584   3.904   5.352  0.0120  0.0747 -0.2280
 1006YOPC   GL114901   8.707   3.978   5.735  0.2740 -0.0920 -0.1367
 1006YOPC   GL214902   8.783   4.277   5.791  0.1221 -0.1655 -0.0982
 1006YOPC   C1A14903   8.584   3.855   6.122  0.0538 -0.1415 -0.2548
 1006YOPC   D2A14904   8.480   3.675   6.497  0.2583 -0.0679  0.3032
 1006YOPC   C3A14905   8.395   3.981   6.748  0.1056  0.1594  0.2690
 1006YOPC   C4A14906   8.368   4.250   7.116 -0.2521 -0.0113  0.1506
 1006YOPC   C1B14907   8.848   4.352   6.184 -0.0722 -0.1241 -0.1715
 1006YOPC   C2B14908   8.776   4.229   6.520  0.0090 -0.1310  0.0296
 1006YOPC   D3B14909   8.922   4.396   6.846  0.0991  0.1711  0.4881
 1006YOPC   C4B14910   9.259   4.555   6.946 -0.0209 -0.0249  0.0161
 1007YOPC   NC314911   9.449  16.381   6.063  0.3157 -0.3178 -0.1147
 1007YOPC   PO414912   9.658  16.797   6.043  0.0001 -0.1632  0.1063
 1007YOPC   GL114913   9.861  16.563   6.357 -0.2795 -0.5081 -0.2291
 1007YOPC   GL214914   9.995  16.305   6.293  0.0845 -0.0917  0.1328
 1007YOPC   C1A14915  10.022  16.569   6.780  0.3483  0.2514  0.2110
 1007YOPC   D2A14916  10.250  16.430   7.105 -0.0091  0.4052 -0.0832
 1007YOPC   C3A14917  10.488  16.680   7.376  0.1482  0.1707 -0.2925
 1007YOPC   C4A14918  10.405  17.026   7.671  0.2102 -0.0763  0.0836
 1007YOPC   C1B14919   9.980  16.044   6.737 -0.2355  0.1440  0.1894
 1007YOPC   C2B14920   9.775  16.192   7.137 -0.0408 -0.1517 -0.1948
 1007YOPC   D3B14921   9.709  16.578   7.220 -0.1662  0.1003  0.0888
 1007YOPC   C4B14922   9.583  16.944   7.390  0.0740  0.1107  0.0136
 1008YOPC   NC314923   4.160  14.588   5.319 -0.2369 -0.2201 -0.2347
 1008YOPC   PO414924   4.323  14.689   5.722 -0.3126 -0.2165  0.2648
 1008YOPC   GL114925   4.474  14.780   6.045  0.0371  0.1772 -0.1205
 1008YOPC   GL214926   4.329  14.616   6.398 -0.1875  0.3162 -0.1693
 1008YOPC   C1A14927   4.681  14.953   6.402 -0.0861  0.0116 -0.2621
 1008YOPC   D2A14928   4.988  14.869   6.603 -0.0937  0.1675  0.1629
 1008YOPC   C3A14929   5.422  15.031   6.606 -0.2909 -0.2129  0.2694
 1008YOPC   C4A14930   5.542  15.161   7.020 -0.4045 -0.2111 -0.1972
 1008YOPC   C1B14931   4.084  14.588   6.692  0.1851 -0.0577  0.2442
 1008YOPC   C2B14932   3.713  14.456   6.890 -0.2109  0.1262 -0.2354
 1008YOPC   D3B14933   3.299  14.692   6.715  0.2638  0.0757  0.0613
 1008YOPC   C4B14934   3.113  15.147   6.699  0.0371 -0.0170  0.2985
 1009YOPC   NC314935  17.056   4.399   5.612  0.3999 -0.2271  0.0371
 1009YOPC   PO414936  17.530   4.319   5.733  0.1192  0.2785 -0.1564
 1009YOPC   GL114937  17.487   4.165   6.116  0.4077 -0.0141 -0.0591
 1009YOPC   GL214938  17.672   3.934   6.270  0.1724 -0.1858 -0.0643
 1009YOPC   C1A14939  17.247   4.225   6.470 -0.2001  0.1877  0.0174
 1009YOPC   D2A14940  17.230   4.243   6.902  0.0720  0.0316 -0.0654
 1009YOPC   C3A14941  17.102   4.057   7.303  0.1031 -0.1426 -0.2142
 1009YOPC   C4A14942  16.830   3.898   7.660  0.2433  0.1285  0.1661
 1009YOPC   C1B14943  17.951   3.760   6.585 -0.4119  0.0265  0.1298
 1009YOPC   C2B14944  17.830   3.406   6.910  0.2897  0.2959  0.1781
 1009YOPC   D3B14945  17.896   3.564   7.359  0.3398 -0.0525 -0.1898
 1009YOPC   C4B14946  18.233   3.527   7.604 -0.3004  0.0809 -0.3101
 1010YOPC   NC314947   5.628  14.004   5.959 -0.2605 -0.1436  0.1714
 1010YOPC   PO414948   5.449  13.759   6.273  0.1300  0.0587  0.3193
 1010YOPC   GL114949   5.152  13.702   6.651  0.0920 -0.1897 -0.0145
 1010YOPC   GL214950   5.237  14.048   6.695  0.0099  0.0862 -0.0958
 1010YOPC   C1A14951   5.155  13.637   7.153 -0.1822  0.1104  0.1845
 1010YOPC   D2A14952   5.211  13.595   7.590 -0.1732  0.2539  0.0026
 1010YOPC   C3A14953   5.265  13.211   7.775 -0.2536 -0.0329  0.2181
 1010YOPC   C4A14954   5.084  12.758   7.883 -0.0610  0.0615  0.1233
 1010YOPC   C1B14955   5.206  14.181   7.027 -0.1138 -0.1481 -0.3227
 1010YOPC   C2B14956   5.212  14.073   7.412 -0.0501 -0.0876  0.1415
 1010YOPC   D3B14957   4.979  14.145   7.754 -0.1079  0.1600  0.2413
 1010YOPC   C4B14958   4.931  14.203   8.247  0.1146  0.4814  0.1484
 1011YOPC   NC314959  12.209  15.318   5.856  0.1434 -0.1593 -0.2491
 1011YOPC   PO414960  12.621  15.447   6.163  0.3781  0.7840  0.3788
 1011YOPC   GL114961  12.774  15.517   6.522 -0.0928 -0.0460  0.1711
 1011YOPC   GL214962  13.126  15.602   6.504 -0.1371  0.2095  0.0574
 1011YOPC   C1A14963  12.622  15.400   6.884  0.0355 -0.0177  0.0724
 1011YOPC   D2A14964  12.399  15.359   7.319  0.3371 -0.0669  0.1305
 1011YOPC   C3A14965  12.498  15.431   7.717  0.1275  0.0167 -0.0462
 1011YOPC   C4A14966  12.702  15.478   8.169 -0.0441 -0.1955  0.0278
 1011YOPC   C1B14967  13.109  15.648   6.874  0.3299  0.1839 -0.0899
 1011YOPC   C2B14968  13.094  15.536   7.206 -0.1558 -0.1899 -0.0832
 1011YOPC   D3B14969  12.807  15.747   7.428 -0.0356  0.1146 -0.2144
 1011YOPC   C4B14970  12.726  15.881   7.834 -0.1250 -0.0235  0.1044
 1012YOPC   NC314971   0.344   4.677   5.592  0.2652 -0.0543 -0.0731
 1012YOPC   PO414972   0.714   4.669   5.680 -0.0989 -0.1219  0.0048
 1012YOPC   GL114973   0.691   4.724   6.076  0.0158 -0.0544  0.0853
 1012YOPC   GL214974   0.435   4.535   6.160 -0.1001 -0.0094  0.1606
 1012YOPC   C1A14975   0.635   4.917   6.538  0.0922  0.1357 -0.0550
 1012YOPC   D2A14976   0.769   4.819   6.890  0.0809 -0.2333 -0.1096
 1012YOPC   C3A14977   0.772   4.979   7.337 -0.1585 -0.0269 -0.0098
 1012YOPC   C4A14978   0.906   5.161   7.644 -0.2910  0.1557 -0.0404
 1012YOPC   C1B14979   0.404   4.530   6.672  0.3176 -0.3748 -0.2628
 1012YOPC   C2B14980   0.267   4.379   7.005 -0.2700 -0.3623 -0.0617
 1012YOPC   D3B14981   0.476   4.453   7.283 -0.4806  0.0487  0.0818
 1012YOPC   C4B14982   0.665   4.684   7.699 -0.1689 -0.1167  0.1435
 1013YOPC   NC314983   9.613  11.930   6.109 -0.1479 -0.1599 -0.2083
 1013YOPC   PO414984   9.800  11.507   6.178  0.1023 -0.0680  0.3516
 1013YOPC   GL114985   9.955  11.249   6.508  0.0132  0.0113  0.1383
 1013YOPC   GL214986  10.056  10.822   6.428  0.1066 -0.1917 -0.3802
 1013YOPC   C1A14987  10.106  11.073   6.905  0.3558 -0.0178  0.3261
 1013YOPC   D2A14988  10.254  10.916   7.255 -0.1665  0.0859  0.2149
 1013YOPC   C3A14989   9.913  10.662   7.467 -0.1731  0.3099  0.2241
 1013YOPC   C4A14990   9.696  10.336   7.692 -0.0063  0.0538  0.1543
 1013YOPC   C1B14991   9.704  10.874   6.652 -0.0832 -0.2028 -0.0327
 1013YOPC   C2B14992   9.687  10.833   7.070  0.1289 -0.1476 -0.1771
 1013YOPC   D3B14993   9.776  11.096   7.304  0.0225  0.1290 -0.0223
 1013YOPC   C4B14994   9.948  11.130   7.644  0.0299 -0.3987 -0.1601
 1014YOPC   NC314995   7.376  14.659   6.031 -0.0205  0.0827  0.0723
 1014YOPC   PO414996   6.976  14.496   6.040  0.0976  0.2903 -0.2550
 1014YOPC   GL114997   7.095  14.709   6.510  0.0184 -0.0786 -0.0826
 1014YOPC   GL214998   7.390  14.884   6.462  0.0744  0.1194  0.0203
 1014YOPC   C1A14999   7.000  14.463   6.925  0.0235 -0.0067 -0.1755
 1014YOPC   D2A15000   7.097  14.092   7.290 -0.0386  0.1024  0.0685
 1014YOPC   C3A15001   6.978  14.048   7.749  0.1687 -0.0412 -0.0131
 1014YOPC   C4A15002   6.890  13.682   8.079  0.0595 -0.0046 -0.0719
 1014YOPC   C1B15003   7.492  14.703   6.848 -0.0763  0.1973  0.1503
 1014YOPC   C2B15004   7.363  14.520   7.301  0.3458 -0.3639  0.0591
 1014YOPC   D3B15005   6.966  14.589   7.559 -0.0890 -0.3943 -0.2838
 1014YOPC   C4B15006   6.813  14.618   7.996  0.3037 -0.0171 -0.0079
 1015YOPC   NC315007   5.873  10.045   5.759 -0.2656  0.4928 -0.0251
 1015YOPC   PO415008   5.759   9.919   6.118 -0.0889 -0.1572  0.1404
 1015YOPC   GL115009   5.493   9.715   6.499 -0.2782  0.0602 -0.1964
 1015YOPC   GL215010   5.424   9.392   6.451  0.3245  0.0765  0.0429
 1015YOPC   C1A15011   5.095   9.637   6.766 -0.1370 -0.2244  0.0298
 1015YOPC   D2A15012   5.059   9.551   7.061  0.3395 -0.0910 -0.2223
 1015YOPC   C3A15013   5.034   9.356   7.492 -0.2724  0.0608 -0.0357
 1015YOPC   C4A15014   5.002   9.403   7.987  0.1063  0.0288 -0.2625
 1015YOPC   C1B15015   5.493   9.409   6.884 -0.0392  0.1551  0.1841
 1015YOPC   C2B15016   5.583   9.456   7.329 -0.1092  0.2623  0.2607
 1015YOPC   D3B15017   5.558   9.330   7.795  0.0515  0.0991 -0.3169
 1015YOPC   C4B15018   5.549   9.293   8.204 -0.1600 -0.1782  0.2771
 1016YOPC   NC315019   5.613  15.399   5.208  0.0369  0.0960  0.3609
 1016YOPC   PO415020   5.735  15.237   5.694 -0.0298  0.2287  0.2172
 1016YOPC   GL115021   5.677  15.198   6.085  0.0667 -0.1884 -0.0342
 1016YOPC   GL215022   5.898  14.992   6.201  0.1447 -0.1404 -0.1580
 1016YOPC   C1A15023   5.594  15.477   6.418  0.1012 -0.0844 -0.0626
 1016YOPC   D2A15024   5.515  15.756   6.739 -0.1492  0.0710  0.1364
 1016YOPC   C3A15025   5.871  15.889   7.032  0.1273 -0.2540  0.0193
 1016YOPC   C4A15026   6.132  16.145   7.349 -0.0232 -0.0061 -0.0991
 1016YOPC   C1B15027   5.940  15.094   6.616 -0.0177 -0.1243  0.1230
 1016YOPC   C2B15028   6.234  15.044   6.862 -0.3703 -0.2993 -0.1255
 1016YOPC   D3B15029   6.181  15.386   7.020  0.0219 -0.1399  0.1748
 1016YOPC   C4B15030   6.466  15.742   7.239 -0.0484 -0.0268 -0.2456
 1017YOPC   NC315031  14.574  10.690   5.986  0.0346 -0.1708 -0.1531
 1017YOPC   PO415032  14.725  10.389   5.830  0.1778  0.2776  0.0166
 1017YOPC   GL115033  14.537  10.177   6.127  0.1333 -0.0684  0.2050
 1017YOPC   GL215034  14.252   9.967   6.121  0.1375  0.1814  0.0830
 1017YOPC   C1A15035  14.618   9.933   6.456  0.0542  0.1561 -0.2822
 1017YOPC   D2A15036  14.652   9.725   6.819  0.1944  0.1503  0.2004
 1017YOPC   C3A15037  14.485   9.673   7.167 -0.1506 -0.2381 -0.0327
 1017YOPC   C4A15038  14.468   9.658   7.591 -0.1989  0.0623  0.3288
 1017YOPC   C1B15039  14.121   9.990   6.545  0.0146 -0.1494 -0.0739
 1017YOPC   C2B15040  14.090   9.962   6.999 -0.2113 -0.0290 -0.2309
 1017YOPC   D3B15041  14.083   9.935   7.488 -0.2546  0.0711  0.2800
 1017YOPC   C4B15042  14.103   9.958   7.885 -0.0042 -0.0639  0.1588
 1018YOPC   NC315043   9.282  14.052   6.145 -0.0686 -0.2093 -0.2311
 1018YOPC   PO415044   8.925  13.866   6.036  0.0091  0.0281  0.0922
 1018YOPC   GL115045   8.681  13.880   6.378  0.1200 -0.0045  0.0902
 1018YOPC   GL215046   8.975  13.887   6.606  0.0720 -0.0239  0.0341
 1018YOPC   C1A15047   8.676  14.122   6.903  0.0119  0.2997  0.1602
 1018YOPC   D2A15048   8.866  14.159   7.214  0.2276  0.2738  0.0678
 1018YOPC   C3A15049   8.812  14.283   7.556 -0.1388 -0.1149 -0.1918
 1018YOPC   C4A15050   9.100  14.336   7.958 -0.0873 -0.0172  0.1707
 1018YOPC   C1B15051   9.028  13.737   7.017 -0.1501 -0.3339  0.0842
 1018YOPC   C2B15052   8.963  13.472   7.367 -0.1504  0.0129  0.1332
 1018YOPC   D3B15053   9.316  13.286   7.647  0.3740 -0.2490 -0.0217
 1018YOPC   C4B15054   9.330  12.999   7.940  0.3065 -0.0889  0.0500
 1019YOPC   NC315055   8.680   8.523   5.668  0.1800 -0.1126 -0.0342
 1019YOPC   PO415056   8.773   8.682   6.031 -0.0422 -0.3595  0.2370
 1019YOPC   GL115057   9.202   8.762   6.183 -0.1603  0.2999 -0.0945
 1019YOPC   GL215058   9.213   9.080   6.260  0.1894 -0.0159 -0.3375
 1019YOPC   C1A15059   9.631   8.668   6.130 -0.0268 -0.1464 -0.0972
 1019YOPC   D2A15060  10.049   8.791   6.243  0.1544 -0.1354  0.0645
 1019YOPC   C3A15061  10.024   8.780   6.707  0.0123 -0.1651 -0.0582
 1019YOPC   C4A15062   9.729   8.952   6.967  0.1409  0.0040  0.1470
 1019YOPC   C1B15063   8.893   9.261   6.574  0.1339  0.1211  0.1060
 1019YOPC   C2B15064   8.902   9.305   7.008 -0.0951 -0.0630  0.2187
 1019YOPC   D3B15065   9.203   9.167   7.302 -0.1532  0.0247 -0.1267
 1019YOPC   C4B15066   9.413   9.376   7.575 -0.1647  0.0277  0.2977
 1020YOPC   NC315067  16.927   9.488   6.117  0.0297 -0.1456  0.0129
 1020YOPC   PO415068  17.324   9.312   6.047 -0.2061 -0.4179 -0.2653
 1020YOPC   GL115069  17.305   9.414   6.457  0.0821  0.0149  0.1379
 1020YOPC   GL215070  17.318   9.704   6.645  0.0822  0.1204 -0.0583
 1020YOPC   C1A15071  17.380   9.232   6.765 -0.2166  0.2644 -0.0420
 1020YOPC   D2A15072  17.318   9.006   7.147 -0.0184 -0.0624  0.0390
 1020YOPC   C3A15073  17.487   8.888   7.580  0.1275  0.1422 -0.0677
 1020YOPC   C4A15074  17.336   8.746   7.931  0.3681  0.3006 -0.2499
 1020YOPC   C1B15075  17.280   9.614   7.024 -0.0271  0.1139 -0.2976
 1020YOPC   C2B15076  17.573   9.453   7.345 -0.4281 -0.1008 -0.2303
 1020YOPC   D3B15077  17.793   9.570   7.574 -0.0499 -0.1571 -0.0018
 1020YOPC   C4B15078  18.034   9.718   7.899 -0.0917  0.1035  0.2262
 1021YOPC   NC315079  13.162   6.280   5.868  0.0941 -0.1331 -0.0995
 1021YOPC   PO415080  13.546   6.084   5.969  0.0518 -0.2098  0.2674
 1021YOPC   GL115081  13.688   6.296   6.378 -0.1345  0.1197 -0.1029
 1021YOPC   GL215082  13.990   6.380   6.369  0.1083 -0.0570 -0.1151
 1021YOPC   C1A15083  13.668   6.233   6.918 -0.1556  0.1244 -0.0856
 1021YOPC   D2A15084  13.669   6.412   7.348 -0.0149 -0.2803 -0.1055
 1021YOPC   C3A15085  13.367   6.273   7.594  0.0140 -0.0372 -0.0046
 1021YOPC   C4A15086  13.109   6.311   7.851 -0.1734  0.0668 -0.1551
 1021YOPC   C1B15087  14.159   6.143   6.747 -0.0651 -0.1522 -0.1204
 1021YOPC   C2B15088  14.124   6.014   7.127  0.3287 -0.0532 -0.1522
 1021YOPC   D3B15089  14.177   6.162   7.502 -0.0061 -0.2981 -0.1273
 1021YOPC   C4B15090  13.827   6.215   7.804 -0.1015 -0.0141 -0.0436
 1022YOPC   NC315091   4.836   2.002   5.146  0.3675 -0.3371  0.0628
 1022YOPC   PO415092   4.962   1.754   5.435 -0.0146 -0.0080  0.2749
 1022YOPC   GL115093   4.880   1.762   5.877  0.3709  0.1132  0.2166
 1022YOPC   GL215094   5.077   1.811   6.065 -0.0367  0.1568 -0.0795
 1022YOPC   C1A15095   4.717   1.818   6.410  0.1820  0.1346 -0.1569
 1022YOPC   D2A15096   4.610   1.931   6.791  0.1466 -0.0615  0.3514
 1022YOPC   C3A15097   4.228   2.003   7.022 -0.0605 -0.0189 -0.0587
 1022YOPC   C4A15098   4.188   2.049   7.480  0.2170 -0.0720  0.1011
 1022YOPC   C1B15099   5.297   2.107   6.395  0.0047 -0.0485 -0.2001
 1022YOPC   C2B15100   5.422   2.322   6.828 -0.2357 -0.3001  0.1258
 1022YOPC   D3B15101   5.855   2.350   6.918 -0.1365  0.0161 -0.0486
 1022YOPC   C4B15102   6.056   2.221   7.244 -0.0224  0.1701 -0.1072
 1023YOPC   NC315103   5.867   8.951   5.838 -0.0407 -0.1185 -0.0853
 1023YOPC   PO415104   5.860   9.279   6.187  0.0493 -0.0581  0.4665
 1023YOPC   GL115105   5.949   9.478   6.543 -0.2343  0.1122  0.0121
 1023YOPC   GL215106   5.856   9.139   6.667  0.1670  0.2299  0.0397
 1023YOPC   C1A15107   6.337   9.567   6.792 -0.1463 -0.1601 -0.1180
 1023YOPC   D2A15108   6.360   9.941   6.984 -0.1847  0.0802 -0.1987
 1023YOPC   C3A15109   6.285  10.043   7.371 -0.0293  0.0345 -0.0624
 1023YOPC   C4A15110   6.214  10.030   7.761 -0.1998 -0.1498  0.2379
 1023YOPC   C1B15111   5.988   9.299   7.073  0.1064  0.1151 -0.2777
 1023YOPC   C2B15112   6.327   9.544   7.354  0.0026  0.1192  0.0937
 1023YOPC   D3B15113   6.463   9.456   7.812 -0.0652  0.1789  0.0342
 1023YOPC   C4B15114   6.621   9.315   8.115  0.2749  0.1124  0.1550
 1024YOPC   NC315115  11.018  11.963   5.618  0.1453 -0.0323 -0.3125
 1024YOPC   PO415116  10.744  11.906   6.069 -0.2035 -0.0241 -0.0953
 1024YOPC   GL115117  10.480  11.840   6.430 -0.2014 -0.2783  0.0831
 1024YOPC   GL215118  10.413  11.545   6.529 -0.0142  0.2265  0.1562
 1024YOPC   C1A15119  10.326  12.114   6.821 -0.1803  0.0192 -0.1733
 1024YOPC   D2A15120  10.412  12.247   7.260 -0.0560 -0.1847 -0.0425
 1024YOPC   C3A15121  10.244  12.106   7.600  0.1877 -0.1151 -0.0230
 1024YOPC   C4A15122   9.963  12.256   7.903  0.1186  0.4268  0.2420
 1024YOPC   C1B15123  10.718  11.789   6.896 -0.0514 -0.1596  0.1681
 1024YOPC   C2B15124  10.632  11.782   7.323 -0.0805  0.0559 -0.0511
 1024YOPC   D3B15125  10.744  12.064   7.621  0.2111  0.0815  0.1147
 1024YOPC   C4B15126  10.830  12.079   8.072  0.1134  0.0067 -0.1178
 1025YOPC   NC315127  15.089   9.257   5.412  0.1699 -0.0131  0.1672
 1025YOPC   PO415128  14.827   9.360   5.745 -0.2025 -0.2451 -0.0437
 1025YOPC   GL115129  14.959   9.459   6.135  0.0863  0.0351  0.0985
 1025YOPC   GL215130  15.205   9.556   6.208  0.2920 -0.1469  0.1712
 1025YOPC   C1A15131  14.835   9.360   6.605  0.1647 -0.1343  0.0426
 1025YOPC   D2A15132  15.024   9.498   6.990 -0.0655 -0.1372  0.1275
 1025YOPC   C3A15133  14.904   9.562   7.326 -0.2285 -0.2272  0.2931
 1025YOPC   C4A15134  14.996   9.271   7.650  0.1879  0.3091 -0.2281
 1025YOPC   C1B15135  15.073   9.822   6.614  0.1013 -0.0883 -0.1959
 1025YOPC   C2B15136  14.930  10.055   6.950  0.2561 -0.4906 -0.2500
 1025YOPC   D3B15137  14.919  10.033   7.406  0.0385 -0.0578  0.1350
 1025YOPC   C4B15138  14.912   9.845   7.803 -0.0536 -0.2775  0.1333
 1026YOPC   NC315139   1.777   0.295   5.554  0.2417 -0.1074 -0.2015
 1026YOPC   PO415140   2.033   0.598   5.712 -0.1721  0.3673  0.3009
 1026YOPC   GL115141   2.232   0.671   6.068  0.0859  0.1370 -0.2373
 1026YOPC   GL215142   2.058   0.721   6.226 -0.1809  0.0223 -0.0635
 1026YOPC   C1A15143   2.401   0.739   6.543  0.0878 -0.1543 -0.2488
 1026YOPC   D2A15144   2.268   0.563   6.944  0.2712  0.5989 -0.1478
 1026YOPC   C3A15145   2.266   0.513   7.366  0.3584 -0.3047 -0.0786
 1026YOPC   C4A15146   2.140   0.834   7.634 -0.1977  0.1217 -0.1933
 1026YOPC   C1B15147   1.884   0.862   6.690 -0.2036 -0.0023  0.0582
 1026YOPC   C2B15148   1.971   0.890   7.156 -0.0107 -0.1192  0.1801
 1026YOPC   D3B15149   1.695   1.136   7.361 -0.0251  0.0907 -0.3731
 1026YOPC   C4B15150   1.355   1.113   7.819 -0.1097  0.1166 -0.1259
 1027YOPC   NC315151   3.254  17.312   5.455 -0.0821  0.2227  0.3132
 1027YOPC   PO415152   3.364  17.747   5.572  0.0269  0.0908 -0.0105
 1027YOPC   GL115153   3.397  17.548   5.884 -0.0440  0.0054  0.4409
 1027YOPC   GL215154   3.421  17.837   6.093 -0.3151 -0.0233  0.1742
 1027YOPC   C1A15155   3.336  17.382   6.302  0.0752 -0.2635  0.1572
 1027YOPC   D2A15156   3.217  17.324   6.655 -0.0916 -0.0659 -0.2217
 1027YOPC   C3A15157   2.864  17.085   6.779 -0.3875  0.2541 -0.3208
 1027YOPC   C4A15158   2.487  17.112   6.859 -0.1438  0.0534  0.1446
 1027YOPC   C1B15159   3.418  17.799   6.554 -0.0590  0.1691 -0.1488
 1027YOPC   C2B15160   3.229  17.791   6.892 -0.0425  0.2742  0.2025
 1027YOPC   D3B15161   3.224  17.433   7.154 -0.0599  0.0691  0.2402
 1027YOPC   C4B15162   2.899  17.151   7.285  0.0532 -0.2160 -0.2074
 1028YOPC   NC315163   3.661   0.203   5.326  0.1615 -0.0789 -0.2299
 1028YOPC   PO415164   3.551   0.656   5.529  0.0982 -0.0680  0.0429
 1028YOPC   GL115165   3.552   0.770   5.970  0.3471  0.2218  0.0966
 1028YOPC   GL215166   3.750   0.894   6.107  0.2026  0.1121 -0.1795
 1028YOPC   C1A15167   3.340   0.947   6.366  0.0797  0.1260  0.0097
 1028YOPC   D2A15168   3.432   1.129   6.737  0.0181  0.0997  0.2184
 1028YOPC   C3A15169   3.455   1.509   6.989  0.0449  0.1321 -0.0259
 1028YOPC   C4A15170   3.408   1.685   7.485  0.0228  0.2953  0.2918
 1028YOPC   C1B15171   3.767   0.753   6.549 -0.2054 -0.0013  0.3772
 1028YOPC   C2B15172   3.447   0.608   6.801  0.0229 -0.1100 -0.0158
 1028YOPC   D3B15173   3.342   0.734   7.161  0.2413 -0.2144 -0.0482
 1028YOPC   C4B15174   3.519   1.053   7.253  0.1081 -0.0606  0.1648
 1029YOPC   NC315175   9.333  10.312   5.921  0.3833  0.1059  0.0250
 1029YOPC   PO415176   9.754  10.652   5.790 -0.0883  0.1622  0.0935
 1029YOPC   GL115177   9.808  10.451   6.124 -0.1550  0.1868 -0.2732
 1029YOPC   GL215178   9.824  10.219   6.137  0.2832  0.0976  0.4065
 1029YOPC   C1A15179   9.821  10.419   6.591 -0.1231  0.1900 -0.1742
 1029YOPC   D2A15180   9.921  10.414   6.916  0.1018 -0.0221 -0.0866
 1029YOPC   C3A15181   9.739  10.137   7.231  0.2876  0.0288  0.1186
 1029YOPC   C4A15182   9.534   9.840   7.478 -0.1280  0.2504  0.0722
 1029YOPC   C1B15183   9.576   9.964   6.408 -0.1108 -0.1006 -0.0700
 1029YOPC   C2B15184   9.646   9.909   6.791  0.1303 -0.0957 -0.0549
 1029YOPC   D3B15185   9.355   9.917   6.985  0.1276 -0.0266 -0.1406
 1029YOPC   C4B15186   9.092   9.702   7.241 -0.0239  0.1077 -0.2023
 1030YOPC   NC315187   5.768  16.371   5.806 -0.0331 -0.0734  0.1865
 1030YOPC   PO415188   5.572  16.030   5.897 -0.0620  0.1879 -0.1168
 1030YOPC   GL115189   5.441  16.304   6.212  0.2960 -0.0963 -0.4681
 1030YOPC   GL215190   5.144  16.485   6.295  0.2658  0.2328 -0.1194
 1030YOPC   C1A15191   5.425  16.246   6.610 -0.2767 -0.3500  0.1601
 1030YOPC   D2A15192   5.420  16.174   6.994 -0.0063  0.2096  0.4137
 1030YOPC   C3A15193   5.654  16.253   7.326 -0.0974  0.3173 -0.1840
 1030YOPC   C4A15194   5.785  16.344   7.688  0.1193 -0.0239  0.1174
 1030YOPC   C1B15195   5.058  16.461   6.862  0.1757 -0.4949 -0.0872
 1030YOPC   C2B15196   5.033  16.941   7.047  0.3026  0.0106 -0.0971
 1030YOPC   D3B15197   5.073  16.958   7.495 -0.3283 -0.1342 -0.0910
 1030YOPC   C4B15198   5.029  16.725   7.850 -0.0211 -0.2082 -0.2340
 1031YOPC   NC315199   7.878  11.596   5.493 -0.1162 -0.0669 -0.2897
 1031YOPC   PO415200   8.165  11.733   5.861  0.1396 -0.2038 -0.0834
 1031YOPC   GL115201   8.242  11.821   6.353 -0.4373  0.1601 -0.0673
 1031YOPC   GL215202   7.984  11.940   6.455 -0.0121  0.1445 -0.4001
 1031YOPC   C1A15203   8.516  11.600   6.705 -0.0488 -0.2622 -0.0740
 1031YOPC   D2A15204   8.895  11.350   6.752  0.1650  0.3195 -0.0090
 1031YOPC   C3A15205   9.172  11.525   6.996  0.0365  0.4412 -0.0929
 1031YOPC   C4A15206   9.621  11.351   6.903 -0.1811 -0.0667  0.0464
 1031YOPC   C1B15207   7.954  11.867   6.858 -0.1588  0.3407  0.1769
 1031YOPC   C2B15208   8.077  11.994   7.286 -0.0920  0.0745  0.1988
 1031YOPC   D3B15209   7.952  12.387   7.563 -0.0828 -0.1603  0.0554
 1031YOPC   C4B15210   7.715  12.689   7.780  0.1402 -0.2092  0.0376
 1032YOPC   NC315211  12.173  11.480   5.743  0.1132  0.1413 -0.1589
 1032YOPC   PO415212  11.733  11.535   5.790  0.0007 -0.0965  0.0899
 1032YOPC   GL115213  11.882  11.433   6.191 -0.4295  0.0630 -0.1840
 1032YOPC   GL215214  12.231  11.359   6.285 -0.1931 -0.0428 -0.3171
 1032YOPC   C1A15215  11.974  11.583   6.690 -0.0317 -0.2480  0.0594
 1032YOPC   D2A15216  12.136  11.737   6.968 -0.1944 -0.1121  0.1931
 1032YOPC   C3A15217  11.914  11.904   7.271  0.1082 -0.1015 -0.1716
 1032YOPC   C4A15218  11.776  11.925   7.682  0.1912  0.0599 -0.1469
 1032YOPC   C1B15219  12.372  11.226   6.684  0.1389 -0.1083 -0.0818
 1032YOPC   C2B15220  12.412  11.258   7.136  0.0730 -0.2441 -0.1524
 1032YOPC   D3B15221  12.021  11.424   7.348  0.0514  0.1757  0.2126
 1032YOPC   C4B15222  12.048  11.516   7.795  0.2211 -0.0336  0.0025
 1033YOPC   NC315223   9.890   4.360   5.280 -0.1101  0.0124 -0.1471
 1033YOPC   PO415224   9.778   4.657   5.651  0.3601  0.2639  0.1805
 1033YOPC   GL115225   9.805   4.781   6.105  0.1384 -0.1627  0.0155
 1033YOPC   GL215226   9.529   4.815   6.179  0.1628  0.1336 -0.0470
 1033YOPC   C1A15227  10.022   5.014   6.543  0.3162 -0.2147 -0.1283
 1033YOPC   D2A15228  10.400   5.107   6.776  0.1255 -0.0187 -0.0970
 1033YOPC   C3A15229  10.615   4.983   7.191 -0.0132  0.1283 -0.0183
 1033YOPC   C4A15230  10.666   4.903   7.578  0.1327  0.1767 -0.1322
 1033YOPC   C1B15231   9.534   4.745   6.557 -0.4166  0.1865  0.1154
 1033YOPC   C2B15232   9.716   4.870   6.959  0.1244 -0.1853  0.2772
 1033YOPC   D3B15233   9.600   4.715   7.344  0.1790  0.0634  0.0453
 1033YOPC   C4B15234   9.743   4.486   7.707  0.0748  0.1453  0.2408
 1034YOPC   NC315235   2.351  17.146   5.574 -0.2884 -0.2189  0.3024
 1034YOPC   PO415236   1.944  17.184   5.457  0.0885  0.0886 -0.0004
 1034YOPC   GL115237   1.890  17.101   5.840  0.2057  0.1914  0.0020
 1034YOPC   GL215238   1.564  17.125   5.991  0.1434 -0.1200 -0.2708
 1034YOPC   C1A15239   1.905  17.310   6.294  0.0330  0.1162  0.2716
 1034YOPC   D2A15240   2.272  17.137   6.434  0.1416 -0.2213 -0.1567
 1034YOPC   C3A15241   2.231  16.904   6.075 -0.1009 -0.0007  0.1731
 1034YOPC   C4A15242   1.995  16.535   6.112 -0.0354 -0.1939  0.1029
 1034YOPC   C1B15243   1.673  16.885   6.399 -0.1885  0.0753 -0.0362
 1034YOPC   C2B15244   1.849  17.039   6.756 -0.0629  0.1987  0.0213
 1034YOPC   D3B15245   1.482  17.289   7.040 -0.2459  0.3349 -0.0352
 1034YOPC   C4B15246   1.214  17.352   7.408  0.0497  0.0225 -0.0423
 1035YOPC   NC315247  13.319   7.236   5.954 -0.2550  0.0811 -0.3579
 1035YOPC   PO415248  13.466   7.599   6.300 -0.1618  0.0264  0.2970
 1035YOPC   GL115249  13.268   7.844   6.474  0.0290 -0.1433 -0.1133
 1035YOPC   GL215250  13.426   8.075   6.572  0.1670  0.2417  0.0161
 1035YOPC   C1A15251  13.220   7.807   6.952  0.0315 -0.1521  0.2807
 1035YOPC   D2A15252  13.321   8.005   7.311  0.1241 -0.1360 -0.3646
 1035YOPC   C3A15253  13.291   7.831   7.770  0.1922 -0.0925 -0.0464
 1035YOPC   C4A15254  13.200   7.839   8.187  0.2438  0.1137  0.1703
 1035YOPC   C1B15255  13.659   8.110   6.936 -0.3402  0.1255  0.0407
 1035YOPC   C2B15256  13.824   8.138   7.372 -0.0950 -0.0986  0.2437
 1035YOPC   D3B15257  14.283   8.242   7.261  0.1432 -0.0767  0.0115
 1035YOPC   C4B15258  14.444   8.673   7.170  0.0615 -0.0990  0.1769
 1036YOPC   NC315259  16.019   9.568   6.023 -0.0546 -0.2721 -0.2189
 1036YOPC   PO415260  15.852   9.107   6.044  0.0606 -0.0407  0.0792
 1036YOPC   GL115261  15.824   8.865   6.463 -0.0667  0.1688 -0.1384
 1036YOPC   GL215262  15.880   8.519   6.416  0.3083 -0.2037  0.2350
 1036YOPC   C1A15263  15.901   8.917   6.807  0.0855  0.0322 -0.0525
 1036YOPC   D2A15264  15.857   8.992   7.206  0.0552  0.0090 -0.0147
 1036YOPC   C3A15265  15.932   8.661   7.401  0.1266  0.2541 -0.0743
 1036YOPC   C4A15266  15.823   8.236   7.416  0.0934 -0.2462 -0.0642
 1036YOPC   C1B15267  15.854   8.444   6.784 -0.3000  0.0394 -0.1830
 1036YOPC   C2B15268  16.087   8.172   6.891  0.1798 -0.0341 -0.0122
 1036YOPC   D3B15269  16.315   8.190   7.270  0.3925 -0.0505  0.2037
 1036YOPC   C4B15270  16.223   8.233   7.725  0.1170  0.3368  0.0307
 1037YOPC   NC315271   2.449  12.076   5.970 -0.0928 -0.1951 -0.0088
 1037YOPC   PO415272   2.736  12.069   6.150  0.0605 -0.0610 -0.0575
 1037YOPC   GL115273   2.839  12.338   6.505  0.0670  0.1657 -0.2483
 1037YOPC   GL215274   2.708  12.628   6.567  0.0811 -0.1166  0.1979
 1037YOPC   C1A15275   2.885  12.313   6.943 -0.3216  0.0070 -0.1662
 1037YOPC   D2A15276   2.899  12.006   7.198  0.1854 -0.3670 -0.0570
 1037YOPC   C3A15277   3.052  12.026   7.568  0.0841 -0.2031  0.3673
 1037YOPC   C4A15278   3.268  12.023   7.916 -0.1770 -0.1202  0.3139
 1037YOPC   C1B15279   2.590  12.771   7.043  0.3306 -0.2138  0.2405
 1037YOPC   C2B15280   2.640  12.563   7.429 -0.0809  0.0232 -0.0135
 1037YOPC   D3B15281   2.570  12.615   7.933  0.1022  0.1120  0.0531
 1037YOPC   C4B15282   2.385  12.766   8.413 -0.1020  0.1389 -0.1536
 1038YOPC   NC315283  17.250   3.921   5.798  0.2489  0.1465 -0.2816
 1038YOPC   PO415284  17.514   3.671   5.742  0.1794  0.1596  0.0928
 1038YOPC   GL115285  17.487   3.415   5.986  0.3219  0.1168  0.3389
 1038YOPC   GL215286  17.655   3.137   5.946 -0.1448  0.2706  0.0767
 1038YOPC   C1A15287  17.266   3.181   6.262  0.0194  0.0907 -0.1851
 1038YOPC   D2A15288  17.036   3.091   6.665 -0.1426 -0.2344  0.1006
 1038YOPC   C3A15289  16.861   3.419   6.867  0.2130  0.0772 -0.2735
 1038YOPC   C4A15290  16.881   3.611   7.247  0.2709 -0.1350 -0.0732
 1038YOPC   C1B15291  17.770   2.775   6.284  0.0174  0.1351  0.0140
 1038YOPC   C2B15292  17.752   2.502   6.614 -0.1049  0.1143 -0.1071
 1038YOPC   D3B15293  17.736   2.622   7.013  0.1690 -0.1516  0.1904
 1038YOPC   C4B15294  17.642   3.022   7.204  0.1928  0.0768 -0.2669
 1039YOPC   NC315295  15.684   1.179   6.057  0.0133 -0.0236 -0.0335
 1039YOPC   PO415296  15.194   1.093   6.099  0.0717 -0.1280 -0.0944
 1039YOPC   GL115297  15.124   1.276   6.530 -0.3688 -0.3164  0.1417
 1039YOPC   GL215298  14.899   1.157   6.639 -0.0599 -0.0538 -0.1263
 1039YOPC   C1A15299  15.408   1.431   6.780 -0.3180 -0.0329  0.1907
 1039YOPC   D2A15300  15.586   1.760   7.122  0.2935 -0.0601 -0.0272
 1039YOPC   C3A15301  15.474   2.205   7.225  0.2052 -0.2838  0.1445
 1039YOPC   C4A15302  15.212   2.546   7.565 -0.4127 -0.2253 -0.0146
 1039YOPC   C1B15303  14.959   1.333   7.084  0.0384  0.0536  0.0258
 1039YOPC   C2B15304  15.300   1.393   7.329 -0.0757 -0.4215 -0.2623
 1039YOPC   D3B15305  15.460   1.721   7.654  0.0131 -0.0930  0.2101
 1039YOPC   C4B15306  15.626   2.145   7.811  0.1175 -0.2572  0.0898
 1040YOPC   NC315307  14.962   2.412   5.659 -0.1956  0.3121  0.2124
 1040YOPC   PO415308  14.695   2.124   5.759 -0.0285  0.0317 -0.0340
 1040YOPC   GL115309  14.747   1.899   6.090 -0.0915  0.0044  0.2869
 1040YOPC   GL215310  14.398   1.761   6.215  0.0592 -0.0376 -0.2000
 1040YOPC   C1A15311  14.908   1.724   6.472 -0.0296  0.1444 -0.1626
 1040YOPC   D2A15312  15.105   1.811   6.872 -0.0920  0.3644  0.0440
 1040YOPC   C3A15313  15.018   1.824   7.314  0.2159 -0.1682  0.1428
 1040YOPC   C4A15314  14.838   1.752   7.755  0.2274  0.0107  0.4318
 1040YOPC   C1B15315  14.502   1.553   6.635 -0.0927  0.1100 -0.1864
 1040YOPC   C2B15316  14.547   1.628   7.060 -0.1487 -0.3814 -0.1592
 1040YOPC   D3B15317  14.442   2.002   7.406  0.1283  0.1336  0.2070
 1040YOPC   C4B15318  14.500   2.109   7.889  0.3604 -0.0323 -0.0617
 1041YOPC   NC315319  11.976   3.886   5.723  0.1195 -0.0761 -0.3286
 1041YOPC   PO415320  12.274   3.691   5.686 -0.0981  0.0311  0.0502
 1041YOPC   GL115321  12.522   3.744   6.159  0.4182  0.2388  0.0994
 1041YOPC   GL215322  12.716   3.984   6.338 -0.2208  0.1890  0.2789
 1041YOPC   C1A15323  12.416   3.434   6.514  0.2283  0.1919  0.2236
 1041YOPC   D2A15324  12.148   3.340   6.896  0.1409  0.0196 -0.0798
 1041YOPC   C3A15325  12.130   3.007   7.078 -0.0406 -0.2299  0.0452
 1041YOPC   C4A15326  12.034   3.105   7.494  0.2321 -0.0662 -0.2458
 1041YOPC   C1B15327  12.752   4.018   6.763  0.0425 -0.2234 -0.1296
 1041YOPC   C2B15328  12.722   4.040   7.251  0.0923 -0.1618 -0.3333
 1041YOPC   D3B15329  12.770   3.874   7.528 -0.3285  0.0431  0.1507
 1041YOPC   C4B15330  12.679   3.837   7.918 -0.4842  0.1581 -0.2112
 1042YOPC   NC315331   4.971  13.997   6.294 -0.1365  0.4376  0.1961
 1042YOPC   PO415332   4.539  14.092   6.250  0.1365  0.0002  0.0288
 1042YOPC   GL115333   4.665  14.282   6.698 -0.1586  0.2228 -0.0462
 1042YOPC   GL215334   4.880  14.454   6.748  0.1051 -0.1336  0.0208
 1042YOPC   C1A15335   4.481  14.380   7.095  0.1759  0.0494 -0.2875
 1042YOPC   D2A15336   4.901  14.447   7.289  0.0340  0.0868  0.1682
 1042YOPC   C3A15337   5.016  14.662   7.706 -0.2572 -0.3705 -0.1269
 1042YOPC   C4A15338   5.201  14.973   8.104  0.1263 -0.1209 -0.0294
 1042YOPC   C1B15339   4.617  14.826   6.924  0.0064  0.1569  0.0031
 1042YOPC   C2B15340   4.452  14.874   7.299 -0.1496  0.1635  0.2197
 1042YOPC   D3B15341   4.514  14.481   7.688 -0.0732 -0.2892  0.1406
 1042YOPC   C4B15342   4.590  14.541   8.157 -0.0460 -0.1179 -0.1320
 1043YOPC   NC315343  14.620   7.232   5.663 -0.1366 -0.0543  0.0957
 1043YOPC   PO415344  14.767   7.573   5.952  0.1724 -0.0607  0.0145
 1043YOPC   GL115345  14.824   7.640   6.302 -0.0788  0.1338  0.0967
 1043YOPC   GL215346  14.708   7.484   6.522  0.1108  0.1031  0.2146
 1043YOPC   C1A15347  15.184   7.626   6.649  0.0048 -0.0342  0.0392
 1043YOPC   D2A15348  15.292   7.598   7.023  0.0330  0.0416 -0.4133
 1043YOPC   C3A15349  15.506   7.339   7.167 -0.1443 -0.1045 -0.2090
 1043YOPC   C4A15350  15.782   7.323   7.597  0.0974  0.2855 -0.2007
 1043YOPC   C1B15351  14.859   7.374   6.939 -0.1094 -0.0492 -0.0500
 1043YOPC   C2B15352  15.017   7.334   7.352 -0.1176 -0.2567  0.0612
 1043YOPC   D3B15353  15.253   7.619   7.537 -0.0535  0.3453 -0.1984
 1043YOPC   C4B15354  15.330   8.018   7.722 -0.0868 -0.0438  0.0805
 1044YOPC   NC315355   4.548  13.521   6.258 -0.2176  0.0824  0.0869
 1044YOPC   PO415356   4.150  13.767   6.140 -0.1584 -0.1736 -0.2372
 1044YOPC   GL115357   4.119  13.785   6.509  0.3067 -0.3922  0.1356
 1044YOPC   GL215358   4.145  14.076   6.580  0.0467  0.3678 -0.2244
 1044YOPC   C1A15359   4.208  13.719   6.905  0.1810  0.2504  0.1372
 1044YOPC   D2A15360   4.157  13.603   7.385  0.2987  0.0482 -0.0563
 1044YOPC   C3A15361   4.300  13.396   7.740  0.3084  0.1192 -0.1184
 1044YOPC   C4A15362   4.458  13.458   8.104  0.1149  0.0438 -0.3336
 1044YOPC   C1B15363   4.077  14.141   7.111  0.0305  0.0323  0.2063
 1044YOPC   C2B15364   4.147  14.146   7.520  0.0652  0.0311 -0.0478
 1044YOPC   D3B15365   3.995  14.414   7.946  0.1025  0.0332  0.3687
 1044YOPC   C4B15366   3.652  14.750   7.915 -0.3369  0.2654  0.1785
 1045YOPC   NC315367  10.990  17.277   5.860  0.2398 -0.4498 -0.0281
 1045YOPC   PO415368  11.153  16.961   6.143 -0.1102  0.1904 -0.0773
 1045YOPC   GL115369  10.916  17.173   6.459  0.1830  0.1002 -0.0083
 1045YOPC   GL215370  11.097  17.468   6.484 -0.3690  0.0922  0.0716
 1045YOPC   C1A15371  10.937  17.126   6.913 -0.2188 -0.2245  0.1683
 1045YOPC   D2A15372  11.201  17.266   7.333 -0.0947  0.2079 -0.1722
 1045YOPC   C3A15373  11.202  17.618   7.702  0.1735 -0.1510 -0.0201
 1045YOPC   C4A15374  11.473  17.775   7.825 -0.0076  0.1850 -0.0177
 1045YOPC   C1B15375  11.288  17.496   6.802 -0.1164  0.1814 -0.0292
 1045YOPC   C2B15376  11.260  17.735   7.185  0.1783  0.2134 -0.0571
 1045YOPC   D3B15377  11.606  17.901   7.360  0.1336  0.1869  0.2099
 1045YOPC   C4B15378  11.864  18.209   7.421 -0.1765 -0.0455 -0.3179
 1046YOPC   NC315379   7.349   1.151   5.852  0.0822 -0.1678  0.0982
 1046YOPC   PO415380   7.683   0.933   5.830  0.4322  0.0120  0.1371
 1046YOPC   GL115381   7.696   0.775   6.190  0.2428  0.0464 -0.1285
 1046YOPC   GL215382   7.435   0.724   6.308  0.0544 -0.2647 -0.1847
 1046YOPC   C1A15383   7.900   0.623   6.633 -0.1428 -0.1911  0.2031
 1046YOPC   D2A15384   8.205   0.783   6.904  0.1013 -0.2654 -0.1659
 1046YOPC   C3A15385   8.005   0.689   7.292 -0.0002  0.2190 -0.1306
 1046YOPC   C4A15386   8.121   0.504   7.632  0.1197 -0.0446 -0.0836
 1046YOPC   C1B15387   7.271   0.840   6.580 -0.3432 -0.2828 -0.2264
 1046YOPC   C2B15388   7.116   0.772   6.990  0.0229  0.2997  0.0842
 1046YOPC   D3B15389   7.236   0.697   7.385  0.0562  0.0304 -0.0421
 1046YOPC   C4B15390   7.582   0.598   7.553 -0.0377  0.1153 -0.0557
 1047YOPC   NC315391   0.541   9.517   5.523  0.4585  0.2281  0.3698
 1047YOPC   PO415392   0.018   9.489   5.617  0.3404  0.1524 -0.2823
 1047YOPC   GL115393   0.219   9.616   5.977  0.0010  0.1121 -0.0998
 1047YOPC   GL215394   0.412   9.388   6.088 -0.3447  0.1086  0.1485
 1047YOPC   C1A15395   0.308  10.016   6.226 -0.1736 -0.1131 -0.2758
 1047YOPC   D2A15396   0.489  10.352   6.309  0.0246 -0.0918 -0.0062
 1047YOPC   C3A15397   0.465  10.339   6.703  0.0431 -0.3995  0.1019
 1047YOPC   C4A15398   0.328  10.355   7.098 -0.0436 -0.3537 -0.0959
 1047YOPC   C1B15399   0.264   9.475   6.449 -0.0706  0.1038 -0.0511
 1047YOPC   C2B15400   0.392   9.419   6.865  0.1779  0.1994  0.0930
 1047YOPC   D3B15401   0.233   9.543   7.222  0.1943 -0.0153  0.4009
 1047YOPC   C4B15402   0.220   9.941   7.504  0.1026 -0.4856  0.1372
 1048YOPC   NC315403  11.278   1.573   5.769  0.2788 -0.2166  0.0282
 1048YOPC   PO415404  11.393   1.077   5.969 -0.0970  0.0339 -0.2449
 1048YOPC   GL115405  11.386   1.366   6.247 -0.3508 -0.2292 -0.0098
 1048YOPC   GL215406  11.593   1.297   6.487  0.1569 -0.0997  0.0657
 1048YOPC   C1A15407  11.110   1.453   6.591 -0.0113  0.1809 -0.0553
 1048YOPC   D2A15408  11.157   1.501   6.987  0.1127 -0.2939  0.2354
 1048YOPC   C3A15409  10.903   1.829   7.053 -0.0620 -0.0023 -0.0112
 1048YOPC   C4A15410  10.516   1.891   7.388 -0.0382 -0.1175 -0.0788
 1048YOPC   C1B15411  11.852   1.094   6.745  0.2936  0.1695  0.0423
 1048YOPC   C2B15412  12.215   0.828   6.936 -0.0357 -0.0313  0.0777
 1048YOPC   D3B15413  12.315   0.885   7.352 -0.0537 -0.1424 -0.2746
 1048YOPC   C4B15414  12.145   0.907   7.770 -0.0995  0.1212  0.1330
 1049YOPC   NC315415   0.468   1.410   5.585 -0.1395  0.2840 -0.1183
 1049YOPC   PO415416   0.207   1.050   5.828 -0.0060  0.2591 -0.2799
 1049YOPC   GL115417   0.207   0.960   6.196 -0.0178  0.1951 -0.0372
 1049YOPC   GL215418   0.452   0.825   6.460 -0.3408  0.1556  0.3301
 1049YOPC   C1A15419   0.011   1.149   6.592 -0.0007  0.0284 -0.1080
 1049YOPC   D2A15420  -0.124   1.240   6.999 -0.1416  0.1726  0.1286
 1049YOPC   C3A15421  -0.007   1.660   7.185  0.1376 -0.3580 -0.0853
 1049YOPC   C4A15422  -0.071   2.065   7.463 -0.1055 -0.1167 -0.1284
 1049YOPC   C1B15423   0.549   1.138   6.701  0.1877  0.1134 -0.2321
 1049YOPC   C2B15424   0.365   1.390   6.930  0.0066  0.0522  0.0555
 1049YOPC   D3B15425   0.526   1.470   7.264 -0.0485  0.1074 -0.2541
 1049YOPC   C4B15426   0.555   1.798   7.567  0.1478 -0.0801  0.1370
 1050YOPC   NC315427   8.570   6.938   6.197 -0.2116 -0.0802 -0.1878
 1050YOPC   PO415428   8.148   6.853   6.108 -0.0625 -0.1662 -0.0468
 1050YOPC   GL115429   8.068   6.730   6.592  0.0414  0.1553  0.1489
 1050YOPC   GL215430   8.048   6.537   6.869  0.2292  0.1915  0.4388
 1050YOPC   C1A15431   8.045   6.996   6.993 -0.0749  0.0128 -0.1905
 1050YOPC   D2A15432   7.910   6.978   7.375 -0.1014  0.0161  0.0180
 1050YOPC   C3A15433   7.965   7.148   7.784 -0.0210 -0.3357 -0.1653
 1050YOPC   C4A15434   7.610   7.199   8.180 -0.1517  0.0840  0.1268
 1050YOPC   C1B15435   7.955   6.470   7.299  0.1281 -0.2125  0.3971
 1050YOPC   C2B15436   7.860   6.470   7.661 -0.2751  0.5200 -0.0193
 1050YOPC   D3B15437   7.664   6.275   7.991  0.1801 -0.0713  0.0842
 1050YOPC   C4B15438   7.534   6.245   8.322  0.2285 -0.0804 -0.2719
 1051YOPC   NC315439  12.505   3.288   5.920 -0.1864 -0.0044  0.2794
 1051YOPC   PO415440  12.741   2.907   6.064 -0.1513 -0.0300 -0.1193
 1051YOPC   GL115441  13.094   2.787   6.351 -0.0854 -0.2324 -0.3225
 1051YOPC   GL215442  13.192   2.425   6.350  0.0913 -0.0196  0.3898
 1051YOPC   C1A15443  13.499   2.804   6.617  0.2476  0.0607  0.2195
 1051YOPC   D2A15444  13.699   2.742   6.988  0.0889  0.0392  0.2234
 1051YOPC   C3A15445  13.484   2.740   7.419 -0.1406  0.2469  0.0092
 1051YOPC   C4A15446  13.548   2.324   7.665 -0.1777 -0.1364  0.2630
 1051YOPC   C1B15447  13.166   2.305   6.671 -0.1019 -0.2695 -0.0672
 1051YOPC   C2B15448  12.843   2.060   6.842  0.0140 -0.3986 -0.0133
 1051YOPC   D3B15449  13.016   1.812   7.169  0.0640  0.0632  0.0912
 1051YOPC   C4B15450  13.012   1.552   7.486 -0.2858 -0.3370  0.2371
 1052YOPC   NC315451  11.540   8.289   6.033  0.0707  0.1145  0.2541
 1052YOPC   PO415452  11.439   8.185   6.383  0.1723 -0.0792  0.4577
 1052YOPC   GL115453  11.563   7.983   6.725  0.1500  0.1654  0.0570
 1052YOPC   GL215454  11.694   7.616   6.734 -0.1746 -0.0217 -0.2310
 1052YOPC   C1A15455  11.835   8.016   6.944  0.2574  0.0637  0.3155
 1052YOPC   D2A15456  11.899   8.034   7.418  0.0591  0.3687  0.1813
 1052YOPC   C3A15457  12.111   8.115   7.722  0.0231 -0.0372  0.0567
 1052YOPC   C4A15458  12.213   8.251   8.176 -0.2576  0.0009  0.0443
 1052YOPC   C1B15459  11.708   7.526   7.115  0.0034 -0.2600 -0.3751
 1052YOPC   C2B15460  11.547   7.512   7.537  0.2254  0.2135  0.1096
 1052YOPC   D3B15461  11.616   7.866   7.805 -0.1628  0.0509 -0.3415
 1052YOPC   C4B15462  11.774   7.949   8.280 -0.0036  0.0633  0.1802
 1053YOPC   NC315463   9.209  12.763   6.321  0.0888  0.0904 -0.0628
 1053YOPC   PO415464   9.424  12.439   6.073 -0.0281  0.2216 -0.0307
 1053YOPC   GL115465   9.477  12.324   6.447  0.0866  0.0721  0.2140
 1053YOPC   GL215466   9.244  12.263   6.575  0.1636  0.1382 -0.0208
 1053YOPC   C1A15467   9.704  12.245   6.807 -0.1232 -0.0102 -0.3150
 1053YOPC   D2A15468   9.922  12.144   7.222 -0.0372 -0.2264  0.0857
 1053YOPC   C3A15469   9.615  12.100   7.581 -0.2469 -0.2440 -0.0232
 1053YOPC   C4A15470   9.398  12.259   7.808  0.2762  0.2099 -0.1138
 1053YOPC   C1B15471   9.274  12.057   6.901 -0.1999  0.1329  0.0491
 1053YOPC   C2B15472   9.534  11.767   7.176  0.3178  0.0383 -0.0038
 1053YOPC   D3B15473   9.590  11.459   7.503 -0.1637  0.1271 -0.0254
 1053YOPC   C4B15474   9.576  11.310   7.875 -0.0169 -0.3554  0.0299
 1054YOPC   NC315475   4.968   8.914   5.718  0.0386 -0.0613 -0.2145
 1054YOPC   PO415476   4.922   9.374   5.729 -0.2319 -0.0156 -0.0213
 1054YOPC   GL115477   4.972   9.469   6.247 -0.1741 -0.0830 -0.2002
 1054YOPC   GL215478   4.908   9.788   6.348 -0.0543 -0.1517  0.0860
 1054YOPC   C1A15479   4.766   9.263   6.611  0.3981  0.0987 -0.1090
 1054YOPC   D2A15480   4.566   9.406   7.012  0.0133 -0.0755 -0.0816
 1054YOPC   C3A15481   4.456   9.296   7.380  0.1412  0.0518 -0.0584
 1054YOPC   C4A15482   4.510   9.269   7.871  0.5930  0.0241 -0.0560
 1054YOPC   C1B15483   4.654   9.824   6.692 -0.2350  0.0277 -0.0603
 1054YOPC   C2B15484   4.742  10.014   7.062 -0.1305 -0.0688  0.1279
 1054YOPC   D3B15485   4.733   9.703   7.401 -0.0384  0.2082  0.0035
 1054YOPC   C4B15486   4.401   9.748   7.651  0.1510 -0.2981 -0.1987
 1055YOPC   NC315487  14.789  11.572   6.010  0.1414 -0.0669  0.1314
 1055YOPC   PO415488  14.327  11.648   6.125 -0.3742 -0.0006  0.2048
 1055YOPC   GL115489  14.261  11.308   6.302 -0.0971  0.0842 -0.2978
 1055YOPC   GL215490  14.251  10.957   6.279  0.2014  0.1701  0.0022
 1055YOPC   C1A15491  14.068  11.108   6.760 -0.0195 -0.2156  0.0292
 1055YOPC   D2A15492  13.914  11.015   7.169  0.0332 -0.0076  0.2153
 1055YOPC   C3A15493  13.677  10.719   7.356 -0.1675 -0.1229  0.1014
 1055YOPC   C4A15494  13.590  10.449   7.782 -0.1436 -0.1634 -0.0014
 1055YOPC   C1B15495  14.256  10.663   6.640 -0.1727 -0.0124  0.0011
 1055YOPC   C2B15496  14.448  10.272   6.774 -0.1078  0.1390  0.1849
 1055YOPC   D3B15497  14.511  10.197   7.266  0.0045  0.1023  0.0295
 1055YOPC   C4B15498  14.488  10.249   7.717 -0.2289  0.0102  0.1009
 1056YOPC   NC315499   2.254   3.170   5.355 -0.2148  0.0913 -0.0155
 1056YOPC   PO415500   2.362   3.408   5.779  0.0857 -0.1916  0.0604
 1056YOPC   GL115501   2.234   3.244   6.161  0.1283 -0.1809 -0.3920
 1056YOPC   GL215502   2.333   3.449   6.385  0.0282  0.0159 -0.0262
 1056YOPC   C1A15503   1.989   3.073   6.391  0.2361  0.1944  0.1426
 1056YOPC   D2A15504   1.705   2.991   6.681 -0.3335 -0.0691  0.1877
 1056YOPC   C3A15505   1.665   3.132   7.089 -0.1390  0.2177  0.0579
 1056YOPC   C4A15506   1.515   3.127   7.520  0.2050 -0.1696  0.0371
 1056YOPC   C1B15507   2.429   3.053   6.658 -0.1216 -0.1461  0.1619
 1056YOPC   C2B15508   2.180   2.866   6.871  0.1311 -0.0445 -0.0334
 1056YOPC   D3B15509   2.155   2.735   7.193  0.2509 -0.2268 -0.1227
 1056YOPC   C4B15510   1.951   2.954   7.442 -0.2782  0.3555 -0.1627
 1057YOPC   NC315511   1.279   6.833   5.675  0.2397  0.0116  0.1234
 1057YOPC   PO415512   1.567   7.069   5.883  0.0755  0.0287 -0.0563
 1057YOPC   GL115513   1.788   7.280   6.265  0.0356 -0.0989  0.0484
 1057YOPC   GL215514   1.582   7.616   6.244  0.0294 -0.1195  0.0357
 1057YOPC   C1A15515   1.973   7.190   6.624 -0.4634 -0.1359  0.1153
 1057YOPC   D2A15516   1.911   7.316   7.073 -0.0121  0.0016  0.0445
 1057YOPC   C3A15517   1.779   7.098   7.526  0.3769 -0.1839 -0.2057
 1057YOPC   C4A15518   2.009   7.121   7.852 -0.1528  0.2245  0.1128
 1057YOPC   C1B15519   1.461   7.459   6.651  0.0139 -0.0030 -0.2149
 1057YOPC   C2B15520   1.289   7.386   7.099  0.0127  0.0538 -0.0092
 1057YOPC   D3B15521   1.339   7.450   7.492  0.3088 -0.0759  0.3418
 1057YOPC   C4B15522   1.179   7.597   7.880 -0.0221 -0.2801  0.0911
 1058YOPC   NC315523  14.880  15.521   6.061  0.1837  0.0578  0.0934
 1058YOPC   PO415524  14.491  15.299   5.911 -0.0761 -0.0015  0.1661
 1058YOPC   GL115525  14.559  15.258   6.368 -0.1354  0.2168 -0.1474
 1058YOPC   GL215526  14.335  15.423   6.414 -0.0040 -0.0064 -0.0495
 1058YOPC   C1A15527  14.649  15.234   6.856 -0.1801  0.0982 -0.2624
 1058YOPC   D2A15528  14.763  15.446   7.297  0.0901  0.0541  0.0059
 1058YOPC   C3A15529  15.159  15.771   7.319 -0.1492 -0.0551 -0.2006
 1058YOPC   C4A15530  15.495  15.722   7.133 -0.2471  0.0550  0.2380
 1058YOPC   C1B15531  14.503  15.701   6.609 -0.3266  0.0775 -0.0486
 1058YOPC   C2B15532  14.824  15.728   6.901 -0.0227 -0.2334 -0.0206
 1058YOPC   D3B15533  15.226  15.896   6.793  0.0342  0.3283  0.1827
 1058YOPC   C4B15534  15.334  16.292   6.677  0.0457 -0.2445  0.0044
 1059YOPC   NC315535   6.782   7.229   6.606 -0.0958 -0.1186 -0.1286
 1059YOPC   PO415536   6.871   7.565   6.398 -0.1408 -0.1683  0.2328
 1059YOPC   GL115537   6.827   7.718   6.830  0.0406 -0.0823  0.0093
 1059YOPC   GL215538   6.847   7.421   7.044  0.1382  0.4499 -0.1110
 1059YOPC   C1A15539   6.810   7.935   7.196 -0.2870  0.3048  0.1560
 1059YOPC   D2A15540   6.902   7.955   7.569  0.0676  0.0847  0.0096
 1059YOPC   C3A15541   7.095   7.875   7.964  0.0962  0.1600  0.1032
 1059YOPC   C4A15542   6.914   7.949   8.388  0.0494 -0.0576  0.0248
 1059YOPC   C1B15543   6.927   7.184   7.484 -0.0864 -0.1252 -0.0787
 1059YOPC   C2B15544   7.165   7.359   7.809  0.2265 -0.1281 -0.0687
 1059YOPC   D3B15545   6.923   7.477   8.179 -0.1126 -0.2091 -0.1789
 1059YOPC   C4B15546   6.651   7.414   8.487 -0.3190 -0.0102 -0.0343
 1060YOPC   NC315547  12.714  17.251   5.850  0.2431 -0.0573  0.0391
 1060YOPC   PO415548  12.663  17.456   6.294 -0.0655 -0.0451 -0.1404
 1060YOPC   GL115549  12.781  17.372   6.765  0.0107  0.1561  0.2461
 1060YOPC   GL215550  12.942  17.491   6.853  0.0405 -0.0697  0.1040
 1060YOPC   C1A15551  12.596  17.388   7.238 -0.0397 -0.0063  0.0523
 1060YOPC   D2A15552  12.611  17.524   7.682 -0.2245  0.2934 -0.0010
 1060YOPC   C3A15553  12.378  17.330   7.915  0.0181  0.3508 -0.1364
 1060YOPC   C4A15554  11.921  17.353   7.976  0.0098 -0.2705  0.1034
 1060YOPC   C1B15555  13.119  17.141   7.082  0.0822 -0.1352 -0.1121
 1060YOPC   C2B15556  13.148  16.675   7.326 -0.1379 -0.1105 -0.1692
 1060YOPC   D3B15557  13.116  16.641   7.725  0.0784  0.1483 -0.2544
 1060YOPC   C4B15558  12.900  16.514   8.014  0.0746 -0.4465  0.1973
 1061YOPC   NC315559   6.751  15.402   6.119  0.3342  0.0739  0.2479
 1061YOPC   PO415560   6.752  14.962   6.247 -0.1549  0.0998  0.3010
 1061YOPC   GL115561   6.888  15.140   6.578  0.2547  0.0734  0.0384
 1061YOPC   GL215562   7.144  15.386   6.506  0.0640  0.0111 -0.0725
 1061YOPC   C1A15563   7.034  15.008   6.937 -0.2350  0.0362  0.0150
 1061YOPC   D2A15564   7.143  14.919   7.247  0.0392  0.1097 -0.3783
 1061YOPC   C3A15565   6.994  15.032   7.729  0.0566 -0.0204 -0.0505
 1061YOPC   C4A15566   7.071  15.281   8.109  0.1706  0.3873  0.0351
 1061YOPC   C1B15567   7.158  15.511   6.902  0.1566 -0.0838 -0.2248
 1061YOPC   C2B15568   7.127  15.531   7.292 -0.0827  0.3792  0.1935
 1061YOPC   D3B15569   6.873  15.642   7.582  0.1423 -0.0193 -0.2199
 1061YOPC   C4B15570   6.638  15.995   7.712  0.0658  0.1066  0.3614
 1062YOPC   NC315571  10.147   6.778   5.844  0.1769  0.2790  0.0957
 1062YOPC   PO415572  10.395   6.461   5.867  0.1107 -0.0391 -0.2641
 1062YOPC   GL115573  10.531   6.566   6.209  0.0135  0.2183  0.1976
 1062YOPC   GL215574  10.299   6.504   6.424  0.0390 -0.0732  0.3406
 1062YOPC   C1A15575  10.572   6.854   6.601 -0.1350  0.0040 -0.1337
 1062YOPC   D2A15576  10.589   6.924   7.074  0.0478 -0.1051  0.1180
 1062YOPC   C3A15577  10.464   6.942   7.492  0.1468 -0.3858  0.0556
 1062YOPC   C4A15578  10.462   6.764   7.926 -0.0932 -0.1857 -0.0575
 1062YOPC   C1B15579  10.340   6.406   6.806 -0.1019 -0.0568 -0.1096
 1062YOPC   C2B15580  10.365   6.417   7.193 -0.3229  0.1866  0.0263
 1062YOPC   D3B15581  10.588   6.428   7.595  0.0183 -0.0021  0.0722
 1062YOPC   C4B15582  10.788   6.059   7.857  0.0981  0.1323 -0.3004
 1063YOPC   NC315583   3.158   0.923   5.454  0.0740  0.2169 -0.2826
 1063YOPC   PO415584   3.479   1.243   5.741  0.1836  0.1747  0.2868
 1063YOPC   GL115585   3.748   1.477   6.051 -0.2118 -0.0095 -0.0984
 1063YOPC   GL215586   3.980   1.347   6.205  0.0724  0.1738 -0.1277
 1063YOPC   C1A15587   3.724   1.787   6.380  0.2118 -0.0851  0.0022
 1063YOPC   D2A15588   3.805   1.901   6.831  0.0830  0.0910  0.1032
 1063YOPC   C3A15589   3.627   2.011   7.188 -0.0223  0.1397 -0.0772
 1063YOPC   C4A15590   3.449   2.291   7.456 -0.2294 -0.3335 -0.1833
 1063YOPC   C1B15591   3.862   1.237   6.629  0.0169  0.3778  0.0431
 1063YOPC   C2B15592   3.938   1.172   6.973  0.1803 -0.1530  0.0082
 1063YOPC   D3B15593   3.931   1.553   7.231  0.0224 -0.1414  0.0210
 1063YOPC   C4B15594   3.902   1.691   7.673  0.1795  0.1434 -0.0210
 1064YOPC   NC315595  10.865   2.288   6.059  0.1803  0.0770  0.1234
 1064YOPC   PO415596  10.831   1.833   5.983  0.0591  0.4958  0.2735
 1064YOPC   GL115597  10.423   1.592   6.245 -0.1787  0.1607  0.0706
 1064YOPC   GL215598  10.407   1.298   6.152 -0.1164  0.0506 -0.3221
 1064YOPC   C1A15599  10.102   1.649   6.441  0.1471  0.0337  0.2403
 1064YOPC   D2A15600  10.004   1.990   6.560  0.0361  0.0663 -0.0379
 1064YOPC   C3A15601  10.181   2.086   6.926  0.3016  0.2429 -0.1263
 1064YOPC   C4A15602  10.585   2.191   7.042  0.2499 -0.0878 -0.0492
 1064YOPC   C1B15603  10.774   1.187   6.320  0.2901  0.0212  0.0530
 1064YOPC   C2B15604  11.058   0.900   6.453 -0.1044 -0.1955 -0.2315
 1064YOPC   D3B15605  11.317   1.027   6.828  0.0474 -0.1319  0.0490
 1064YOPC   C4B15606  11.342   1.173   7.293 -0.0201 -0.0477 -0.1566
 1065YOPC   NC315607  16.833   1.987   5.619 -0.0289  0.0232 -0.0069
 1065YOPC   PO415608  16.388   2.241   5.707 -0.2222 -0.2330  0.1381
 1065YOPC   GL115609  16.650   2.059   6.087  0.0519 -0.0377 -0.3137
 1065YOPC   GL215610  16.634   2.247   6.245  0.0600  0.0719  0.1287
 1065YOPC   C1A15611  16.582   1.757   6.425 -0.0102 -0.1961  0.2231
 1065YOPC   D2A15612  16.462   1.461   6.681 -0.1068 -0.4350 -0.1684
 1065YOPC   C3A15613  16.502   1.532   7.118  0.2149  0.0413  0.0515
 1065YOPC   C4A15614  16.379   1.485   7.568  0.0803  0.1663 -0.1023
 1065YOPC   C1B15615  16.602   2.169   6.686 -0.1028 -0.1027  0.1226
 1065YOPC   C2B15616  16.629   2.056   6.990 -0.1494  0.0162  0.2294
 1065YOPC   D3B15617  16.561   1.951   7.393 -0.3806  0.1685  0.1270
 1065YOPC   C4B15618  16.843   2.009   7.775  0.0811  0.4132 -0.0505
 1066YOPC   NC315619  16.493   9.368   5.871 -0.0776  0.1351 -0.0162
 1066YOPC   PO415620  16.606   9.071   5.936 -0.0405  0.1674 -0.0663
 1066YOPC   GL115621  16.680   9.103   6.314  0.1737 -0.1529  0.0567
 1066YOPC   GL215622  16.982   9.023   6.403  0.0799  0.3644 -0.3392
 1066YOPC   C1A15623  16.477   8.980   6.723 -0.1127  0.1132 -0.0990
 1066YOPC   D2A15624  16.400   9.242   7.055 -0.1439 -0.2111 -0.0019
 1066YOPC   C3A15625  16.412   9.215   7.492 -0.0095  0.0640  0.4317
 1066YOPC   C4A15626  16.411   9.312   7.932 -0.1571 -0.2003  0.1220
 1066YOPC   C1B15627  16.923   9.041   6.864 -0.0356 -0.1713  0.0099
 1066YOPC   C2B15628  16.710   8.905   7.251 -0.1877  0.0377 -0.1686
 1066YOPC   D3B15629  16.960   9.060   7.529  0.1118 -0.2463 -0.2008
 1066YOPC   C4B15630  16.896   9.086   7.885  0.0823  0.0531  0.1153
 1067YOPC   NC315631  12.610  12.729   5.923  0.2217 -0.2139 -0.1385
 1067YOPC   PO415632  12.457  13.146   6.057  0.0589  0.6357 -0.2898
 1067YOPC   GL115633  12.170  12.793   6.291 -0.4005 -0.2627  0.0967
 1067YOPC   GL215634  11.850  12.849   6.332 -0.2229  0.2520  0.1420
 1067YOPC   C1A15635  12.133  12.574   6.783  0.0295  0.1827 -0.0307
 1067YOPC   D2A15636  12.115  12.372   7.140  0.0820 -0.2063  0.4916
 1067YOPC   C3A15637  12.056  12.327   7.500  0.1045 -0.4169  0.1769
 1067YOPC   C4A15638  12.232  12.321   7.898  0.2164 -0.0457 -0.0178
 1067YOPC   C1B15639  11.710  12.798   6.796  0.0338 -0.2747  0.0526
 1067YOPC   C2B15640  11.703  12.617   7.121  0.0239  0.2125  0.1115
 1067YOPC   D3B15641  11.508  12.824   7.468  0.0225 -0.1552  0.0707
 1067YOPC   C4B15642  11.575  13.115   7.798  0.1416  0.4091 -0.1186
 1068YOPC   NC315643   1.083  10.878   5.572  0.0917 -0.1492 -0.1221
 1068YOPC   PO415644   0.618  10.855   5.665 -0.2018 -0.1801 -0.0009
 1068YOPC   GL115645   0.481  10.889   6.170 -0.0163 -0.3009  0.1351
 1068YOPC   GL215646   0.197  10.855   6.191 -0.4005  0.1955  0.1059
 1068YOPC   C1A15647   0.641  10.797   6.509 -0.1414  0.2206  0.0931
 1068YOPC   D2A15648   0.862  10.910   6.805 -0.2315  0.0796  0.0635
 1068YOPC   C3A15649   1.317  10.851   6.836 -0.1521  0.5144 -0.1566
 1068YOPC   C4A15650   1.654  10.599   7.127  0.0834 -0.0040  0.1073
 1068YOPC   C1B15651   0.066  10.594   6.526 -0.1177  0.0611 -0.1102
 1068YOPC   C2B15652  -0.106  10.311   6.752  0.1480 -0.0292  0.2568
 1068YOPC   D3B15653  -0.206   9.960   6.535 -0.1754 -0.0236 -0.2894
 1068YOPC   C4B15654  -0.166   9.484   6.718  0.0088  0.0041  0.1655
 1069YOPC   NC315655   7.562   0.170   5.312  0.0180 -0.0087 -0.0234
 1069YOPC   PO415656   7.895   0.206   5.644 -0.1438 -0.0670 -0.0502
 1069YOPC   GL115657   7.821   0.265   6.080 -0.0639 -0.2541 -0.1795
 1069YOPC   GL215658   8.125   0.322   6.205 -0.0594  0.2188  0.0982
 1069YOPC   C1A15659   7.585   0.241   6.547  0.0976 -0.2304 -0.1949
 1069YOPC   D2A15660   7.551   0.449   6.905 -0.0249  0.0661 -0.1071
 1069YOPC   C3A15661   7.626   0.837   7.037 -0.1052  0.0397 -0.0339
 1069YOPC   C4A15662   7.884   1.144   7.228  0.2064  0.0082  0.2915
 1069YOPC   C1B15663   7.984  -0.038   6.591  0.0726 -0.1296  0.0428
 1069YOPC   C2B15664   8.196  -0.416   6.823  0.0488  0.1900  0.0221
 1069YOPC   D3B15665   8.394  -0.489   7.210  0.1926 -0.0915  0.1735
 1069YOPC   C4B15666   8.578  -0.537   7.690  0.2821  0.0315  0.2266
 1070YOPC   NC315667   4.705   5.787   5.926  0.1899 -0.1334  0.0286
 1070YOPC   PO415668   4.672   5.392   6.114 -0.2609  0.0799 -0.2532
 1070YOPC   GL115669   4.499   5.611   6.414  0.2692 -0.1922 -0.2153
 1070YOPC   GL215670   4.252   5.846   6.414 -0.2795 -0.2259  0.1112
 1070YOPC   C1A15671   4.498   5.831   6.877  0.1088  0.0268 -0.3096
 1070YOPC   D2A15672   4.442   5.981   7.261  0.0233 -0.0317 -0.4782
 1070YOPC   C3A15673   4.462   5.809   7.694 -0.2383 -0.0513 -0.0171
 1070YOPC   C4A15674   4.421   5.481   7.886 -0.0197  0.3978 -0.0169
 1070YOPC   C1B15675   3.887   5.723   6.500  0.1853  0.1333 -0.1015
 1070YOPC   C2B15676   3.615   5.545   6.780  0.0741 -0.0085 -0.0529
 1070YOPC   D3B15677   3.698   5.731   7.130  0.0915 -0.0978  0.2247
 1070YOPC   C4B15678   3.928   5.762   7.601 -0.0249 -0.0122 -0.0191
 1071YOPC   NC315679   6.511  12.263   6.413  0.0504  0.0189  0.2233
 1071YOPC   PO415680   6.731  12.678   6.391 -0.1447  0.0080 -0.5047
 1071YOPC   GL115681   6.820  12.566   6.725  0.0099  0.1025 -0.2493
 1071YOPC   GL215682   6.606  12.642   6.821  0.0551 -0.1275  0.0401
 1071YOPC   C1A15683   7.041  12.588   7.104 -0.3544 -0.0617 -0.2259
 1071YOPC   D2A15684   7.270  12.377   7.445  0.1789  0.0282  0.1164
 1071YOPC   C3A15685   7.101  12.191   7.833 -0.2439 -0.2448  0.0689
 1071YOPC   C4A15686   6.837  11.963   8.024  0.0880  0.0780  0.1449
 1071YOPC   C1B15687   6.533  12.711   7.220  0.0578 -0.0971 -0.1708
 1071YOPC   C2B15688   6.560  12.763   7.619  0.1230  0.1525 -0.0066
 1071YOPC   D3B15689   6.676  12.530   7.963  0.1013  0.1742 -0.0118
 1071YOPC   C4B15690   6.933  12.422   8.287 -0.3118  0.0202 -0.3238
 1072YOPC   NC315691  13.181   1.562   5.989  0.1566 -0.0758  0.2456
 1072YOPC   PO415692  13.397   1.255   5.916  0.0055  0.4411 -0.1162
 1072YOPC   GL115693  13.729   1.321   6.070 -0.0449 -0.1884 -0.0678
 1072YOPC   GL215694  13.506   1.431   6.381 -0.0493  0.1020 -0.0434
 1072YOPC   C1A15695  14.097   1.325   6.378 -0.1917  0.0356  0.0892
 1072YOPC   D2A15696  14.439   1.027   6.579  0.1420  0.0368 -0.0063
 1072YOPC   C3A15697  14.462   1.099   7.017 -0.1717  0.0262 -0.1888
 1072YOPC   C4A15698  14.468   0.927   7.466 -0.2401  0.3723 -0.3272
 1072YOPC   C1B15699  13.684   1.452   6.708 -0.1697 -0.3204 -0.3823
 1072YOPC   C2B15700  14.105   1.416   6.908  0.2015  0.4900 -0.0653
 1072YOPC   D3B15701  14.222   1.442   7.360  0.0732  0.2764 -0.0962
 1072YOPC   C4B15702  14.565   1.417   7.556  0.0350  0.2406 -0.0232
 1073YOPC   NC315703   6.211  15.238   5.898 -0.1181  0.0256 -0.1077
 1073YOPC   PO415704   6.420  15.668   5.851 -0.0134  0.1206 -0.0247
 1073YOPC   GL115705   6.421  15.823   6.324 -0.1941  0.3107  0.0057
 1073YOPC   GL215706   6.599  16.202   6.348 -0.1619 -0.0731 -0.0615
 1073YOPC   C1A15707   6.576  15.586   6.693  0.1637  0.1673 -0.4043
 1073YOPC   D2A15708   6.710  15.325   7.060  0.0525  0.0813  0.0330
 1073YOPC   C3A15709   6.636  15.230   7.438 -0.1275 -0.3158  0.2394
 1073YOPC   C4A15710   6.598  15.221   7.861 -0.0776 -0.0909 -0.0117
 1073YOPC   C1B15711   7.051  16.348   6.494  0.0473  0.1088  0.0312
 1073YOPC   C2B15712   7.311  16.491   6.828 -0.2338  0.1838 -0.0755
 1073YOPC   D3B15713   7.344  16.528   7.323  0.1232 -0.3831 -0.3265
 1073YOPC   C4B15714   7.277  16.843   7.607 -0.1688  0.0165 -0.0667
 1074YOPC   NC315715   6.105   7.110   6.566 -0.0259  0.0192  0.2068
 1074YOPC   PO415716   6.209   6.650   6.386 -0.1974 -0.3759 -0.5009
 1074YOPC   GL115717   6.172   6.480   6.692 -0.0337  0.0467 -0.1020
 1074YOPC   GL215718   5.919   6.695   6.846  0.0530  0.1592 -0.1098
 1074YOPC   C1A15719   6.051   6.301   7.103 -0.1559 -0.0215  0.0044
 1074YOPC   D2A15720   5.934   6.387   7.491  0.0689 -0.3713  0.1893
 1074YOPC   C3A15721   5.684   6.473   7.823  0.0224  0.1780  0.1351
 1074YOPC   C4A15722   5.716   6.444   8.274  0.0100  0.0407 -0.2264
 1074YOPC   C1B15723   6.042   6.808   7.291  0.0316 -0.0204 -0.0509
 1074YOPC   C2B15724   6.008   6.813   7.738  0.0748  0.1335  0.1002
 1074YOPC   D3B15725   5.930   6.937   8.128 -0.2538 -0.0288  0.0518
 1074YOPC   C4B15726   5.810   6.878   8.490 -0.0072 -0.0755 -0.0355
 1075YOPC   NC315727  14.267   0.704   5.646  0.1037  0.1744 -0.0838
 1075YOPC   PO415728  14.399   0.736   6.125  0.1645 -0.0053  0.0667
 1075YOPC   GL115729  14.481   0.507   6.554  0.1534 -0.3178 -0.0813
 1075YOPC   GL215730  14.429   0.189   6.707  0.0165  0.0102 -0.2613
 1075YOPC   C1A15731  14.461   0.609   6.964  0.0049  0.0871 -0.2844
 1075YOPC   D2A15732  14.602   0.424   7.388  0.0638 -0.1138  0.0548
 1075YOPC   C3A15733  14.798   0.533   7.731  0.4140  0.3247 -0.0430
 1075YOPC   C4A15734  14.779   0.585   8.187 -0.0316 -0.0510  0.1167
 1075YOPC   C1B15735  14.036   0.319   6.822 -0.0622  0.3187  0.0543
 1075YOPC   C2B15736  13.912   0.431   7.181 -0.2343 -0.1428 -0.0715
 1075YOPC   D3B15737  14.016   0.515   7.483  0.2241  0.3158  0.1472
 1075YOPC   C4B15738  14.309   0.541   7.892  0.2501 -0.1110  0.1439
 1076YOPC   NC315739  17.658   6.060   5.694  0.0317 -0.2000  0.0304
 1076YOPC   PO415740  17.971   6.373   5.750 -0.0908 -0.0776  0.0878
 1076YOPC   GL115741  18.190   6.665   6.075  0.3331 -0.1220 -0.0581
 1076YOPC   GL215742  18.029   6.847   6.283  0.1420  0.2518  0.1841
 1076YOPC   C1A15743  18.426   6.596   6.443  0.1203  0.0294 -0.2399
 1076YOPC   D2A15744  18.652   6.750   6.693  0.1271  0.3592 -0.0456
 1076YOPC   C3A15745  18.573   6.491   7.098 -0.0582 -0.2953 -0.0648
 1076YOPC   C4A15746  18.699   6.292   7.540 -0.0543 -0.2480  0.0928
 1076YOPC   C1B15747  17.916   6.518   6.468 -0.1028 -0.0079  0.1932
 1076YOPC   C2B15748  18.147   6.358   6.777  0.0675 -0.0939 -0.0227
 1076YOPC   D3B15749  18.108   6.413   7.212 -0.1937  0.1423  0.0440
 1076YOPC   C4B15750  17.710   6.437   7.581  0.3073  0.0149 -0.0065
 1077YOPC   NC315751  11.765   7.028   5.861 -0.0744 -0.1953 -0.0132
 1077YOPC   PO415752  11.556   7.277   6.122 -0.0942  0.1147  0.0265
 1077YOPC   GL115753  11.614   7.197   6.557  0.1601 -0.1978  0.3250
 1077YOPC   GL215754  11.731   6.924   6.650 -0.2001 -0.1512  0.0549
 1077YOPC   C1A15755  11.440   7.176   6.942 -0.2472  0.0355 -0.1010
 1077YOPC   D2A15756  11.248   7.270   7.306  0.1442  0.2130 -0.1445
 1077YOPC   C3A15757  11.346   7.056   7.708 -0.0672 -0.2389  0.2938
 1077YOPC   C4A15758  11.177   6.956   8.044 -0.1484 -0.1700 -0.1278
 1077YOPC   C1B15759  11.805   6.834   7.076 -0.0305  0.1530  0.1023
 1077YOPC   C2B15760  11.769   7.078   7.442  0.1703  0.0412  0.0880
 1077YOPC   D3B15761  11.956   7.256   7.728  0.3392 -0.1085 -0.1215
 1077YOPC   C4B15762  12.108   7.299   8.126 -0.0666  0.0621  0.2042
 1078YOPC   NC315763  11.732   5.183   6.165  0.0755 -0.0291  0.2790
 1078YOPC   PO415764  11.320   5.316   6.266 -0.0896 -0.0620  0.2568
 1078YOPC   GL115765  11.511   5.312   6.634 -0.2699 -0.1786  0.1955
 1078YOPC   GL215766  11.765   5.349   6.653  0.1930 -0.2030  0.1596
 1078YOPC   C1A15767  11.513   5.239   7.130  0.2675 -0.3098  0.0039
 1078YOPC   D2A15768  11.652   5.390   7.518 -0.0365  0.1414 -0.0429
 1078YOPC   C3A15769  11.473   5.473   7.924 -0.1819 -0.0303  0.0534
 1078YOPC   C4A15770  11.483   5.482   8.349  0.1652  0.1701 -0.2990
 1078YOPC   C1B15771  12.094   5.350   7.083  0.0222 -0.0085  0.1786
 1078YOPC   C2B15772  12.277   5.244   7.496  0.0998  0.0527 -0.1548
 1078YOPC   D3B15773  12.346   4.872   7.694 -0.1032  0.2066 -0.1848
 1078YOPC   C4B15774  12.258   4.762   8.023 -0.1518 -0.3214  0.0591
 1079YOPC   NC315775  16.514  13.309   6.264  0.2178  0.0774  0.2793
 1079YOPC   PO415776  16.785  12.945   6.283 -0.1220  0.1443  0.2421
 1079YOPC   GL115777  16.680  13.048   6.686  0.1812  0.3214  0.1684
 1079YOPC   GL215778  16.382  13.094   6.853  0.0741  0.0170  0.2806
 1079YOPC   C1A15779  16.781  13.219   7.058  0.1239 -0.0075  0.0982
 1079YOPC   D2A15780  16.966  13.474   7.284  0.0119 -0.1189 -0.4513
 1079YOPC   C3A15781  16.880  13.402   7.707 -0.1605 -0.0209 -0.2324
 1079YOPC   C4A15782  16.903  13.359   8.114 -0.1393  0.1659 -0.5200
 1079YOPC   C1B15783  16.332  12.925   7.265 -0.0991 -0.0595  0.2780
 1079YOPC   C2B15784  16.642  12.975   7.604  0.0917 -0.1600 -0.0583
 1079YOPC   D3B15785  16.621  12.962   8.006 -0.2507 -0.1782 -0.1439
 1079YOPC   C4B15786  16.620  12.554   8.230 -0.0980 -0.0886  0.1010
 1080YOPC   NC315787   8.682   7.321   5.299  0.0672  0.3115  0.0117
 1080YOPC   PO415788   9.044   7.411   5.542  0.0936 -0.2448 -0.2479
 1080YOPC   GL115789   8.827   7.426   6.054  0.1456 -0.0891  0.0601
 1080YOPC   GL215790   8.885   7.323   6.380  0.1168  0.0994  0.1160
 1080YOPC   C1A15791   8.714   7.776   6.393  0.0099  0.1815  0.2008
 1080YOPC   D2A15792   8.528   8.092   6.549  0.2144 -0.0851 -0.0764
 1080YOPC   C3A15793   8.539   8.168   6.925  0.2589  0.2194 -0.0608
 1080YOPC   C4A15794   8.681   8.321   7.287  0.1102  0.0522 -0.0338
 1080YOPC   C1B15795   8.879   7.492   6.809  0.1229  0.0291 -0.1054
 1080YOPC   C2B15796   8.919   7.340   7.206 -0.0358  0.0768 -0.0542
 1080YOPC   D3B15797   8.889   7.566   7.506  0.0341  0.0328  0.1113
 1080YOPC   C4B15798   8.609   7.921   7.564  0.0058 -0.1355 -0.0141
 1081YOPC   NC315799   9.995  15.572   5.816  0.2167 -0.1607  0.0937
 1081YOPC   PO415800  10.245  15.286   5.990 -0.0070  0.0921 -0.1673
 1081YOPC   GL115801  10.477  15.329   6.409 -0.3462  0.0803 -0.6317
 1081YOPC   GL215802  10.678  15.664   6.521  0.3032  0.0191 -0.4605
 1081YOPC   C1A15803  10.827  15.250   6.737 -0.2427  0.1273  0.0595
 1081YOPC   D2A15804  11.132  15.300   6.947  0.1500 -0.0141  0.3413
 1081YOPC   C3A15805  11.547  14.968   6.957  0.1689 -0.1010 -0.3017
 1081YOPC   C4A15806  11.605  14.546   6.793 -0.0136  0.2557  0.0102
 1081YOPC   C1B15807  10.294  15.653   6.777  0.0943  0.2618 -0.0627
 1081YOPC   C2B15808  10.172  15.902   7.194  0.0057  0.1925  0.1252
 1081YOPC   D3B15809   9.836  15.768   7.458  0.4373 -0.0729 -0.3112
 1081YOPC   C4B15810   9.767  15.478   7.832 -0.0145 -0.3361  0.0424
 1082YOPC   NC315811   8.223  10.028   6.184 -0.0272 -0.0080  0.0811
 1082YOPC   PO415812   8.223   9.653   6.102  0.1218 -0.0586  0.1931
 1082YOPC   GL115813   8.241   9.465   6.369 -0.0155  0.0256 -0.3721
 1082YOPC   GL215814   8.057   9.581   6.577  0.0128  0.0809  0.2808
 1082YOPC   C1A15815   8.391   9.197   6.750 -0.0981 -0.0491  0.1896
 1082YOPC   D2A15816   8.417   9.210   7.267 -0.0559 -0.3596 -0.0980
 1082YOPC   C3A15817   8.744   9.276   7.505  0.0010 -0.2468 -0.0139
 1082YOPC   C4A15818   8.890   9.124   7.878 -0.2500 -0.2501  0.2728
 1082YOPC   C1B15819   8.094   9.598   6.969 -0.1643  0.2474  0.1841
 1082YOPC   C2B15820   8.126   9.608   7.336 -0.0803  0.0888  0.0851
 1082YOPC   D3B15821   8.182   9.886   7.692  0.2674  0.0687  0.2847
 1082YOPC   C4B15822   8.106  10.199   7.958 -0.0366  0.4974  0.3121
 1083YOPC   NC315823  12.024   4.588   5.950 -0.2439 -0.1430  0.0405
 1083YOPC   PO415824  12.279   4.298   5.654  0.0569 -0.2668 -0.1501
 1083YOPC   GL115825  12.225   4.152   6.102  0.1888  0.0170 -0.1000
 1083YOPC   GL215826  12.028   3.845   6.197 -0.0623 -0.1437  0.1736
 1083YOPC   C1A15827  12.391   4.332   6.539  0.2305 -0.1889 -0.0478
 1083YOPC   D2A15828  12.551   4.549   6.913 -0.0528 -0.0096  0.0110
 1083YOPC   C3A15829  12.379   4.416   7.267 -0.0727  0.0371  0.4526
 1083YOPC   C4A15830  12.438   4.301   7.664  0.0255 -0.0506  0.0943
 1083YOPC   C1B15831  12.153   3.837   6.707 -0.0592  0.1535 -0.0643
 1083YOPC   C2B15832  12.406   3.738   7.057  0.1134 -0.1609 -0.2360
 1083YOPC   D3B15833  12.400   3.376   7.356  0.2479 -0.2336 -0.0650
 1083YOPC   C4B15834  12.634   3.417   7.696 -0.3753  0.0461 -0.0841
 1084YOPC   NC315835   8.851   6.456   5.623 -0.0098  0.2313 -0.1076
 1084YOPC   PO415836   8.448   6.477   5.988  0.0270  0.0401  0.0279
 1084YOPC   GL115837   8.494   6.507   6.432 -0.2735  0.0976  0.1505
 1084YOPC   GL215838   8.535   6.725   6.732 -0.5853  0.0089  0.0941
 1084YOPC   C1A15839   8.980   6.542   6.658  0.1491 -0.0612  0.0648
 1084YOPC   D2A15840   9.294   6.557   6.905  0.2475 -0.1208  0.1571
 1084YOPC   C3A15841   9.371   6.540   7.306 -0.2608 -0.1902 -0.2223
 1084YOPC   C4A15842   9.422   6.758   7.699 -0.0677  0.2675 -0.0894
 1084YOPC   C1B15843   8.412   6.711   7.188  0.0662 -0.0201 -0.0709
 1084YOPC   C2B15844   8.300   6.678   7.612  0.2013  0.1139 -0.1624
 1084YOPC   D3B15845   8.300   6.387   7.973 -0.1064 -0.1904 -0.1151
 1084YOPC   C4B15846   8.186   6.306   8.407  0.1044  0.1562  0.1182
 1085YOPC   NC315847   5.909   6.197   6.352 -0.0590 -0.2752  0.0631
 1085YOPC   PO415848   6.296   6.088   6.162  0.2563  0.2169  0.0522
 1085YOPC   GL115849   6.306   5.963   6.542 -0.3123  0.1070 -0.0330
 1085YOPC   GL215850   6.028   5.891   6.729 -0.0481  0.2206  0.2288
 1085YOPC   C1A15851   6.415   5.981   7.020  0.1469  0.3406  0.0054
 1085YOPC   D2A15852   6.406   5.656   7.446 -0.1279  0.2646 -0.1503
 1085YOPC   C3A15853   6.279   5.772   7.828  0.2030  0.0714 -0.0864
 1085YOPC   C4A15854   5.992   5.714   8.077 -0.0711  0.2425  0.0128
 1085YOPC   C1B15855   5.952   5.769   7.061 -0.0409  0.0427  0.0053
 1085YOPC   C2B15856   5.981   5.911   7.509  0.1148 -0.1056 -0.0505
 1085YOPC   D3B15857   5.599   5.927   7.752 -0.0907  0.0242  0.3788
 1085YOPC   C4B15858   5.203   5.906   7.874 -0.0694  0.1798 -0.3379
 1086YOPC   NC315859   5.375  17.798   5.780 -0.2221  0.3397 -0.2174
 1086YOPC   PO415860   5.044  17.988   5.491 -0.0653 -0.0891  0.1872
 1086YOPC   GL115861   4.856  17.976   5.841  0.3462  0.3358 -0.0361
 1086YOPC   GL215862   4.955  17.723   5.935 -0.3247 -0.3944 -0.2845
 1086YOPC   C1A15863   4.778  18.212   6.208 -0.0187  0.0608 -0.0980
 1086YOPC   D2A15864   4.635  18.554   6.648 -0.2890 -0.0692  0.1532
 1086YOPC   C3A15865   4.594  18.427   7.045 -0.2383  0.1772 -0.2895
 1086YOPC   C4A15866   4.347  18.161   7.331 -0.1892  0.1603  0.0341
 1086YOPC   C1B15867   4.847  17.812   6.412  0.3497 -0.1824  0.2197
 1086YOPC   C2B15868   4.708  18.027   6.727  0.2395  0.0979  0.0622
 1086YOPC   D3B15869   4.624  17.817   7.106 -0.0038  0.1544  0.4146
 1086YOPC   C4B15870   4.714  17.729   7.517 -0.1470  0.0947 -0.1062
 1087YOPC   NC315871   1.128  12.142   5.995 -0.0239 -0.1367 -0.0824
 1087YOPC   PO415872   1.030  12.560   6.053  0.0476 -0.4733 -0.0230
 1087YOPC   GL115873   0.994  12.558   6.597 -0.1309  0.0716  0.0392
 1087YOPC   GL215874   0.881  12.809   6.663 -0.0670  0.2912 -0.2581
 1087YOPC   C1A15875   1.157  12.259   6.891  0.3124 -0.2197 -0.0160
 1087YOPC   D2A15876   1.146  12.256   7.304  0.1386 -0.3232  0.1915
 1087YOPC   C3A15877   1.076  12.471   7.617  0.1807 -0.2959 -0.0578
 1087YOPC   C4A15878   0.949  12.585   8.013  0.0507  0.2788 -0.3265
 1087YOPC   C1B15879   0.868  12.669   7.089  0.0053  0.2139  0.0379
 1087YOPC   C2B15880   0.701  12.804   7.399 -0.0686 -0.1179 -0.0545
 1087YOPC   D3B15881   0.519  12.802   7.706  0.2137 -0.1614  0.0036
 1087YOPC   C4B15882   0.345  12.513   8.088 -0.2277  0.0703  0.0521
 1088YOPC   NC315883   1.370   1.006   5.214  0.1701 -0.0329 -0.0107
 1088YOPC   PO415884   0.974   1.246   5.391 -0.0015 -0.0205 -0.0760
 1088YOPC   GL115885   0.924   1.164   5.827 -0.2293  0.4250 -0.1343
 1088YOPC   GL215886   0.638   1.199   6.051  0.1080 -0.1197  0.0444
 1088YOPC   C1A15887   0.941   1.142   6.376 -0.2321 -0.0674  0.0882
 1088YOPC   D2A15888   1.039   1.023   6.800  0.1076  0.2652  0.2447
 1088YOPC   C3A15889   0.888   1.143   7.214  0.1506  0.0347 -0.1384
 1088YOPC   C4A15890   0.966   0.854   7.689 -0.3758  0.0267  0.0108
 1088YOPC   C1B15891   0.401   1.487   6.399  0.2963 -0.1343 -0.4577
 1088YOPC   C2B15892   0.025   1.628   6.599 -0.1699  0.1041 -0.0058
 1088YOPC   D3B15893  -0.149   2.044   6.832  0.1203 -0.1010 -0.0940
 1088YOPC   C4B15894  -0.489   2.171   7.120 -0.1081  0.0630  0.0015
 1089YOPC   NC315895  13.984   9.259   5.738 -0.1088 -0.0080  0.0773
 1089YOPC   PO415896  13.627   9.075   5.836 -0.0465 -0.2974 -0.1433
 1089YOPC   GL115897  13.396   9.315   6.095  0.0492 -0.0249  0.1737
 1089YOPC   GL215898  13.275   9.527   6.409  0.0422 -0.2359 -0.1868
 1089YOPC   C1A15899  13.732   9.330   6.512  0.1288 -0.0942 -0.0783
 1089YOPC   D2A15900  13.895   8.967   6.733 -0.0450 -0.0508  0.2764
 1089YOPC   C3A15901  14.221   8.730   6.540 -0.1409  0.1094 -0.0867
 1089YOPC   C4A15902  14.383   8.448   6.728  0.1707 -0.0803 -0.0359
 1089YOPC   C1B15903  13.285   9.498   6.877 -0.0616  0.1809 -0.1915
 1089YOPC   C2B15904  13.398   9.152   7.109 -0.0658 -0.2363 -0.2067
 1089YOPC   D3B15905  13.537   9.241   7.587  0.0374  0.3764  0.3063
 1089YOPC   C4B15906  13.507   9.426   7.920  0.2208 -0.0562  0.0635
 1090YOPC   NC315907   7.019   9.105   6.297 -0.0220 -0.0183  0.1604
 1090YOPC   PO415908   6.935   9.519   6.524 -0.1002 -0.0005 -0.0495
 1090YOPC   GL115909   6.828   9.488   7.011  0.0433  0.0866 -0.1454
 1090YOPC   GL215910   7.114   9.682   7.060 -0.0466  0.3082 -0.2255
 1090YOPC   C1A15911   6.780   9.389   7.381 -0.0224  0.0541 -0.0353
 1090YOPC   D2A15912   6.928   9.398   7.730 -0.2658 -0.2220  0.0492
 1090YOPC   C3A15913   6.982   9.043   7.944 -0.3095  0.0113 -0.2443
 1090YOPC   C4A15914   7.036   8.894   8.340  0.2771 -0.3724  0.1294
 1090YOPC   C1B15915   7.201   9.675   7.373 -0.1813  0.0537  0.2730
 1090YOPC   C2B15916   7.260   9.775   7.703 -0.0549 -0.1897  0.0574
 1090YOPC   D3B15917   7.290   9.539   8.053  0.1021  0.1042 -0.0804
 1090YOPC   C4B15918   7.648   9.340   8.303  0.0727 -0.0373 -0.0202
 1091YOPC   NC315919   5.970   5.226   6.186 -0.2627 -0.0589  0.2223
 1091YOPC   PO415920   5.891   5.652   6.295 -0.0523 -0.2637 -0.0376
 1091YOPC   GL115921   5.873   5.315   6.671  0.0940 -0.1460 -0.3451
 1091YOPC   GL215922   5.623   5.179   6.601 -0.2540  0.2701  0.1524
 1091YOPC   C1A15923   5.930   5.294   7.103  0.0031  0.0664 -0.0292
 1091YOPC   D2A15924   5.970   5.365   7.523 -0.2858  0.1744  0.1693
 1091YOPC   C3A15925   6.279   5.236   7.705  0.0680  0.0151 -0.0108
 1091YOPC   C4A15926   6.704   5.363   7.740  0.1970  0.0719 -0.0443
 1091YOPC   C1B15927   5.477   5.010   7.023 -0.1103  0.3896 -0.1716
 1091YOPC   C2B15928   5.515   4.921   7.507  0.1164 -0.1838 -0.0269
 1091YOPC   D3B15929   5.218   5.049   7.825  0.1502 -0.1860 -0.2471
 1091YOPC   C4B15930   5.258   5.266   8.300 -0.0179 -0.1616 -0.1541
 1092YOPC   NC315931   4.858   2.721   5.698  0.0899 -0.1986 -0.3313
 1092YOPC   PO415932   4.758   2.283   5.627 -0.1494  0.0253  0.0581
 1092YOPC   GL115933   4.779   2.266   6.028  0.1213 -0.0270 -0.1519
 1092YOPC   GL215934   4.837   2.515   6.234  0.0571  0.1034  0.0528
 1092YOPC   C1A15935   4.406   2.264   6.325  0.2672  0.0918 -0.1702
 1092YOPC   D2A15936   3.992   2.305   6.527  0.0885  0.2871  0.0810
 1092YOPC   C3A15937   3.985   2.426   6.924  0.0589  0.1176  0.0167
 1092YOPC   C4A15938   4.203   2.479   7.259 -0.1311 -0.0290  0.1308
 1092YOPC   C1B15939   4.928   2.278   6.601 -0.3163 -0.2711  0.2612
 1092YOPC   C2B15940   5.036   1.940   7.070 -0.3383 -0.0631  0.1046
 1092YOPC   D3B15941   5.441   2.075   7.227 -0.0807  0.4064 -0.0342
 1092YOPC   C4B15942   5.596   2.440   7.376 -0.3219 -0.1377 -0.0539
 1093YOPC   NC315943  16.205  14.059   6.046  0.0316  0.2077  0.5374
 1093YOPC   PO415944  16.537  13.826   6.196 -0.1313  0.2827  0.2923
 1093YOPC   GL115945  16.481  14.090   6.459 -0.2341  0.1254  0.1595
 1093YOPC   GL215946  16.760  13.983   6.729  0.0724 -0.2243 -0.0194
 1093YOPC   C1A15947  16.338  14.150   6.808  0.2026  0.0597 -0.0245
 1093YOPC   D2A15948  15.980  14.083   7.131 -0.0772 -0.1676 -0.2209
 1093YOPC   C3A15949  15.983  13.740   7.448 -0.0101 -0.2926  0.0657
 1093YOPC   C4A15950  16.015  13.240   7.482  0.2632  0.1405  0.1463
 1093YOPC   C1B15951  16.891  13.932   7.161  0.2875 -0.1313  0.2710
 1093YOPC   C2B15952  17.030  13.937   7.527 -0.1469  0.3416  0.2019
 1093YOPC   D3B15953  17.003  14.287   7.798  0.0118 -0.2886 -0.2260
 1093YOPC   C4B15954  16.648  14.433   7.940 -0.3593  0.0383  0.1393
 1094YOPC   NC315955  13.026   0.846   5.915  0.0381  0.0707 -0.1739
 1094YOPC   PO415956  12.708   1.199   5.972  0.0207 -0.4005  0.1715
 1094YOPC   GL115957  12.789   1.338   6.396  0.2757  0.2533 -0.2089
 1094YOPC   GL215958  13.050   1.207   6.336  0.1427  0.0655 -0.0984
 1094YOPC   C1A15959  12.644   1.598   6.751 -0.0748  0.0743  0.0065
 1094YOPC   D2A15960  12.545   1.674   7.192 -0.1589 -0.3982  0.1386
 1094YOPC   C3A15961  12.343   1.824   7.542 -0.1182 -0.0731 -0.1085
 1094YOPC   C4A15962  12.550   1.915   7.951  0.0252 -0.0926 -0.0417
 1094YOPC   C1B15963  13.262   1.024   6.632  0.0541  0.1565  0.3769
 1094YOPC   C2B15964  13.226   0.704   6.949  0.0680  0.2963 -0.0269
 1094YOPC   D3B15965  13.254   0.830   7.399 -0.0894 -0.2686  0.0998
 1094YOPC   C4B15966  13.058   1.026   7.738 -0.0977  0.0776  0.2467
 1095YOPC   NC315967   8.539  12.508   6.006 -0.0267  0.0027  0.1113
 1095YOPC   PO415968   8.853  12.387   6.320  0.0342  0.0034 -0.3358
 1095YOPC   GL115969   8.810  12.444   6.700  0.1682 -0.0086  0.0564
 1095YOPC   GL215970   8.955  12.728   6.812 -0.1255  0.2331 -0.0046
 1095YOPC   C1A15971   9.000  12.362   7.144 -0.4298 -0.2465  0.3089
 1095YOPC   D2A15972   9.065  12.100   7.424 -0.0261 -0.0615  0.0477
 1095YOPC   C3A15973   8.927  12.185   7.775 -0.5449  0.1135  0.1032
 1095YOPC   C4A15974   8.982  12.068   8.220  0.1938  0.2513  0.2064
 1095YOPC   C1B15975   9.335  12.587   6.904 -0.0453 -0.2698 -0.0844
 1095YOPC   C2B15976   9.464  12.406   7.262  0.0233 -0.0967  0.2259
 1095YOPC   D3B15977   9.641  12.702   7.588  0.4227  0.2227 -0.2024
 1095YOPC   C4B15978   9.776  12.680   8.102  0.2516  0.0297 -0.2937
 1096YOPC   NC315979  15.119   5.170   5.184 -0.3108 -0.0183 -0.2945
 1096YOPC   PO415980  15.086   5.446   5.561 -0.0767  0.0368  0.3674
 1096YOPC   GL115981  15.249   5.304   6.051  0.1151 -0.1087  0.2199
 1096YOPC   GL215982  14.976   5.204   6.146 -0.2514 -0.0345  0.0510
 1096YOPC   C1A15983  15.431   5.506   6.463  0.0378  0.0542 -0.2856
 1096YOPC   D2A15984  15.686   5.678   6.704  0.0180  0.2042 -0.0302
 1096YOPC   C3A15985  15.606   5.519   7.053 -0.0080 -0.1781  0.0356
 1096YOPC   C4A15986  15.716   5.427   7.461  0.3091  0.0236  0.0743
 1096YOPC   C1B15987  15.036   5.116   6.567  0.0400  0.2564 -0.2097
 1096YOPC   C2B15988  15.061   5.145   7.064 -0.2080  0.0134 -0.0384
 1096YOPC   D3B15989  15.313   5.073   7.397  0.1677  0.1343  0.2631
 1096YOPC   C4B15990  15.544   4.892   7.755  0.2695  0.0182  0.0438
 1097YOPC   NC315991   2.775   3.672   5.638  0.0408  0.1481  0.0043
 1097YOPC   PO415992   3.054   3.893   5.903 -0.0619  0.2400  0.1067
 1097YOPC   GL115993   3.017   3.861   6.335  0.0417 -0.0859 -0.2582
 1097YOPC   GL215994   2.712   3.878   6.492  0.1355 -0.2075  0.2166
 1097YOPC   C1A15995   3.352   3.983   6.641  0.0537 -0.1217  0.0758
 1097YOPC   D2A15996   3.622   4.276   6.694 -0.0095  0.0584 -0.2414
 1097YOPC   C3A15997   3.475   4.609   6.976  0.1488  0.1877 -0.1201
 1097YOPC   C4A15998   3.327   4.621   7.401  0.0171  0.1071  0.3174
 1097YOPC   C1B15999   2.399   3.717   6.807 -0.0671 -0.0470 -0.4044
 1097YOPC   C2B16000   2.392   3.838   7.285 -0.0402  0.1634 -0.0411
 1097YOPC   D3B16001   1.892   3.891   7.478  0.1489  0.1862 -0.0353
 1097YOPC   C4B16002   1.489   4.042   7.536 -0.1932  0.1240 -0.2515
 1098YOPC   NC316003   7.138  11.088   5.712  0.0564 -0.0446  0.3613
 1098YOPC   PO416004   7.018  11.367   5.928  0.1108  0.0654 -0.0427
 1098YOPC   GL116005   7.063  11.384   6.397  0.1414  0.2209 -0.0509
 1098YOPC   GL216006   7.200  11.209   6.621 -0.0533  0.0563  0.1544
 1098YOPC   C1A16007   6.976  11.834   6.636 -0.2515 -0.2115  0.1164
 1098YOPC   D2A16008   6.604  11.921   6.786 -0.0632  0.3680 -0.1618
 1098YOPC   C3A16009   6.639  12.244   7.125 -0.5278 -0.0701  0.1589
 1098YOPC   C4A16010   6.747  12.372   7.500  0.0552  0.1228  0.3363
 1098YOPC   C1B16011   7.155  11.007   6.978  0.1087 -0.1915 -0.0548
 1098YOPC   C2B16012   7.262  11.000   7.350 -0.2058  0.0049 -0.1256
 1098YOPC   D3B16013   7.067  10.822   7.785  0.3178  0.4190 -0.1650
 1098YOPC   C4B16014   6.982  10.879   8.201 -0.0048  0.0527  0.1709
 1099YOPC   NC316015  11.235  10.305   5.975  0.0641 -0.1777  0.3732
 1099YOPC   PO416016  11.690  10.107   5.887  0.3133 -0.1051 -0.3997
 1099YOPC   GL116017  11.725  10.220   6.316 -0.0534 -0.2182  0.1028
 1099YOPC   GL216018  11.434  10.413   6.450  0.1836 -0.0076 -0.1516
 1099YOPC   C1A16019  11.679   9.956   6.667  0.1534 -0.0053 -0.1952
 1099YOPC   D2A16020  11.793   9.595   6.976 -0.0430  0.1398 -0.1228
 1099YOPC   C3A16021  11.703   9.673   7.453  0.2027 -0.0894  0.1066
 1099YOPC   C4A16022  11.681   9.883   7.809 -0.1895  0.0831  0.1119
 1099YOPC   C1B16023  11.308  10.328   6.797 -0.1252 -0.3468  0.0562
 1099YOPC   C2B16024  11.084  10.424   7.213  0.0910 -0.1406  0.2062
 1099YOPC   D3B16025  11.253  10.111   7.548 -0.0790  0.2492 -0.0181
 1099YOPC   C4B16026  11.216   9.882   7.979  0.1894  0.0663 -0.2996
 1100YOPC   NC316027   3.147   6.757   5.467 -0.1259  0.1014  0.0502
 1100YOPC   PO416028   2.833   6.650   5.805 -0.2201 -0.0806  0.1252
 1100YOPC   GL116029   2.892   6.833   6.144 -0.3105 -0.2371 -0.1068
 1100YOPC   GL216030   3.059   6.776   6.289  0.0108  0.0315  0.1986
 1100YOPC   C1A16031   2.543   6.876   6.425  0.0467 -0.2289  0.2338
 1100YOPC   D2A16032   2.483   7.016   6.887  0.0553  0.0864  0.1061
 1100YOPC   C3A16033   2.421   7.293   7.159  0.1042  0.0283 -0.0606
 1100YOPC   C4A16034   2.175   7.454   7.463  0.0044  0.0667  0.0292
 1100YOPC   C1B16035   2.956   6.997   6.687  0.4721 -0.0191  0.0768
 1100YOPC   C2B16036   2.905   7.016   7.139 -0.0062 -0.1691  0.0194
 1100YOPC   D3B16037   2.642   6.822   7.350 -0.0875 -0.1042 -0.0362
 1100YOPC   C4B16038   2.399   6.858   7.755 -0.1437 -0.2104 -0.2516
 1101YOPC   NC316039   2.549  13.351   6.030 -0.0360  0.0529 -0.1053
 1101YOPC   PO416040   2.060  13.243   6.072 -0.2073 -0.0425  0.1657
 1101YOPC   GL116041   2.264  13.272   6.452  0.0655 -0.0942  0.1523
 1101YOPC   GL216042   2.320  13.564   6.525 -0.2486 -0.0472 -0.0647
 1101YOPC   C1A16043   2.187  13.103   6.894  0.0382 -0.2322 -0.0094
 1101YOPC   D2A16044   2.287  13.245   7.318 -0.2513  0.4086  0.3266
 1101YOPC   C3A16045   2.568  12.972   7.576 -0.2770 -0.1252 -0.1341
 1101YOPC   C4A16046   2.990  12.885   7.721  0.0885  0.1807 -0.1669
 1101YOPC   C1B16047   2.066  13.623   6.860  0.0418  0.0853 -0.0890
 1101YOPC   C2B16048   2.034  13.640   7.270 -0.0261 -0.0640 -0.0848
 1101YOPC   D3B16049   1.860  13.835   7.449  0.2117  0.0099  0.1011
 1101YOPC   C4B16050   1.673  13.819   7.710  0.2337 -0.1272 -0.1775
 1102YOPC   NC316051   6.271  13.368   6.026 -0.0432 -0.5965 -0.1126
 1102YOPC   PO416052   6.121  13.825   5.960  0.1361 -0.0839 -0.0858
 1102YOPC   GL116053   6.067  14.141   6.305  0.0848 -0.0458 -0.0387
 1102YOPC   GL216054   5.788  14.086   6.379  0.0396 -0.1063  0.0716
 1102YOPC   C1A16055   6.194  14.395   6.714  0.1842 -0.0368 -0.0249
 1102YOPC   D2A16056   6.198  14.347   7.159  0.1336 -0.3410  0.1900
 1102YOPC   C3A16057   5.896  14.495   7.589 -0.4786 -0.2257 -0.2114
 1102YOPC   C4A16058   5.548  14.209   7.749 -0.1570 -0.1395  0.5141
 1102YOPC   C1B16059   5.760  14.144   6.805 -0.3011 -0.4711 -0.3141
 1102YOPC   C2B16060   5.728  14.224   7.170  0.2136 -0.1654 -0.0269
 1102YOPC   D3B16061   5.449  14.565   7.310  0.2329 -0.0577  0.1480
 1102YOPC   C4B16062   5.493  14.747   7.735  0.2731 -0.1518  0.1805
 1103YOPC   NC316063  10.997   5.714   6.250  0.0150 -0.0071  0.0030
 1103YOPC   PO416064  10.580   5.647   6.140  0.1839 -0.1386  0.0095
 1103YOPC   GL116065  10.632   5.747   6.590  0.1797 -0.0512  0.1308
 1103YOPC   GL216066  10.371   5.971   6.594 -0.1082 -0.0901  0.1037
 1103YOPC   C1A16067  10.686   5.525   6.975 -0.0206 -0.1199 -0.0696
 1103YOPC   D2A16068  10.554   5.415   7.425 -0.1134 -0.0205  0.2128
 1103YOPC   C3A16069  10.563   5.674   7.822  0.3649  0.0088  0.0603
 1103YOPC   C4A16070  10.275   5.703   8.045  0.4301 -0.0845 -0.1151
 1103YOPC   C1B16071  10.253   5.852   7.044  0.0806  0.1672 -0.0104
 1103YOPC   C2B16072   9.910   5.633   7.351  0.2228  0.0138 -0.0689
 1103YOPC   D3B16073  10.071   5.436   7.626  0.1073 -0.1827  0.0416
 1103YOPC   C4B16074  10.312   5.143   7.727 -0.2209 -0.2772  0.3979
 1104YOPC   NC316075   9.771  15.129   5.781  0.0723  0.1899 -0.1783
 1104YOPC   PO416076   9.868  14.748   5.994 -0.1868 -0.0832 -0.2713
 1104YOPC   GL116077  10.076  14.486   6.392  0.1696 -0.0826  0.2953
 1104YOPC   GL216078  10.001  14.202   6.356  0.1452 -0.1825 -0.2332
 1104YOPC   C1A16079  10.232  14.638   6.871 -0.0696  0.0574  0.2407
 1104YOPC   D2A16080  10.356  14.582   7.232 -0.1430 -0.1126  0.2175
 1104YOPC   C3A16081  10.301  14.977   7.502 -0.1714 -0.1164 -0.2045
 1104YOPC   C4A16082  10.133  15.340   7.576 -0.0096 -0.0795  0.2018
 1104YOPC   C1B16083   9.837  14.307   6.829 -0.1633  0.0748 -0.1819
 1104YOPC   C2B16084   9.910  14.326   7.239 -0.1031 -0.0993  0.1228
 1104YOPC   D3B16085   9.896  14.110   7.594  0.1733  0.2251  0.1195
 1104YOPC   C4B16086  10.078  14.059   8.011 -0.0723 -0.2607  0.0663
 1105YOPC   NC316087   7.817  13.092   6.072 -0.3348  0.3053  0.1140
 1105YOPC   PO416088   7.723  12.944   6.501  0.0401  0.0991 -0.1185
 1105YOPC   GL116089   7.899  12.958   6.831  0.0225 -0.1368 -0.1319
 1105YOPC   GL216090   8.043  13.275   6.842  0.0939  0.0557 -0.3175
 1105YOPC   C1A16091   7.941  12.802   7.286 -0.1847  0.2627  0.1220
 1105YOPC   D2A16092   8.224  12.837   7.619  0.4464 -0.1289  0.2162
 1105YOPC   C3A16093   8.524  12.742   7.901  0.1580 -0.1918  0.1334
 1105YOPC   C4A16094   8.787  12.929   8.244 -0.0415 -0.0611 -0.0560
 1105YOPC   C1B16095   8.184  13.257   7.258  0.2016 -0.1549 -0.0590
 1105YOPC   C2B16096   8.362  13.396   7.705  0.0946 -0.0332 -0.2500
 1105YOPC   D3B16097   8.239  13.076   8.096  0.1924 -0.0443 -0.2291
 1105YOPC   C4B16098   8.312  12.829   8.379  0.2341 -0.1983 -0.1986
 1106YOPC   NC316099   2.098   4.627   6.060  0.1133  0.1245  0.0898
 1106YOPC   PO416100   2.576   4.510   6.029 -0.0345 -0.1382  0.0753
 1106YOPC   GL116101   2.727   4.582   6.411  0.0694  0.1032  0.1558
 1106YOPC   GL216102   2.541   4.664   6.595  0.0547 -0.1633 -0.1129
 1106YOPC   C1A16103   2.940   4.876   6.773  0.1926  0.0590  0.4260
 1106YOPC   D2A16104   3.076   5.050   7.128  0.1688  0.2513  0.2078
 1106YOPC   C3A16105   2.970   4.997   7.586 -0.1687 -0.0928 -0.0260
 1106YOPC   C4A16106   3.084   5.209   7.937 -0.0185 -0.2118  0.1203
 1106YOPC   C1B16107   2.527   4.754   7.060  0.1656 -0.1254  0.1646
 1106YOPC   C2B16108   2.448   4.764   7.519  0.2941 -0.0810 -0.1817
 1106YOPC   D3B16109   2.605   4.428   7.769 -0.1497  0.0856 -0.0990
 1106YOPC   C4B16110   2.472   4.412   8.183 -0.0146  0.0327  0.0949
 1107YOPC   NC316111   9.164  17.081   5.928 -0.3100 -0.1570 -0.1055
 1107YOPC   PO416112   8.701  16.942   5.884  0.3455 -0.3141 -0.4226
 1107YOPC   GL116113   8.892  16.994   6.326 -0.1126  0.0223  0.0472
 1107YOPC   GL216114   9.061  17.212   6.455  0.1958  0.2612  0.0611
 1107YOPC   C1A16115   8.967  16.745   6.748  0.1187 -0.1485 -0.0069
 1107YOPC   D2A16116   9.183  16.604   7.187 -0.1227  0.1316 -0.1407
 1107YOPC   C3A16117   9.299  16.222   7.268  0.0419  0.1482 -0.0441
 1107YOPC   C4A16118   9.468  16.201   7.612  0.0235 -0.0953  0.0227
 1107YOPC   C1B16119   9.170  17.740   6.574  0.0214 -0.0082 -0.2118
 1107YOPC   C2B16120   9.404  17.865   7.008  0.2029 -0.1825 -0.0999
 1107YOPC   D3B16121   9.380  18.284   7.127  0.0977  0.0082  0.1544
 1107YOPC   C4B16122   9.581  18.494   7.309  0.0099 -0.2090  0.0374
 1108YOPC   NC316123   8.667   4.907   5.216 -0.0868  0.3912 -0.1005
 1108YOPC   PO416124   8.423   4.798   5.623 -0.0179 -0.1641  0.0166
 1108YOPC   GL116125   8.644   4.768   6.003  0.1247  0.1093  0.3681
 1108YOPC   GL216126   9.017   4.831   6.073  0.0443  0.1139  0.3657
 1108YOPC   C1A16127   8.605   4.731   6.451  0.3166 -0.1833  0.1053
 1108YOPC   D2A16128   8.497   4.662   6.839  0.0210 -0.4316 -0.0774
 1108YOPC   C3A16129   8.595   4.761   7.278 -0.1561 -0.2542  0.1232
 1108YOPC   C4A16130   8.627   4.780   7.751  0.0190 -0.0746 -0.3512
 1108YOPC   C1B16131   9.044   4.927   6.506  0.2524 -0.2041 -0.0208
 1108YOPC   C2B16132   9.404   5.222   6.677 -0.1751 -0.2295 -0.2012
 1108YOPC   D3B16133   9.482   5.322   7.122  0.0210 -0.0044 -0.0420
 1108YOPC   C4B16134   9.510   5.315   7.628  0.4974 -0.1406 -0.1063
 1109YOPC   NC316135   2.208   6.350   5.982 -0.1579 -0.1821 -0.1644
 1109YOPC   PO416136   1.834   6.131   6.045  0.0388 -0.0669  0.0368
 1109YOPC   GL116137   1.910   6.252   6.421 -0.0127  0.2425 -0.0682
 1109YOPC   GL216138   2.113   6.442   6.506  0.0834 -0.1770 -0.1018
 1109YOPC   C1A16139   1.649   6.252   6.792  0.0297 -0.1536  0.1183
 1109YOPC   D2A16140   1.614   6.283   7.143 -0.2008  0.1480  0.0768
 1109YOPC   C3A16141   1.589   6.036   7.413  0.3250 -0.2218  0.1174
 1109YOPC   C4A16142   1.706   6.025   7.850  0.2746 -0.0143  0.0817
 1109YOPC   C1B16143   2.096   6.712   6.789 -0.0376  0.0207  0.0120
 1109YOPC   C2B16144   2.136   6.835   7.200 -0.0006 -0.1080 -0.0546
 1109YOPC   D3B16145   1.842   6.611   7.488  0.1889  0.0019  0.1675
 1109YOPC   C4B16146   1.864   6.645   7.865 -0.0039 -0.1710 -0.0806
 1110YOPC   NC316147   4.573   0.249   5.487 -0.2087 -0.3135  0.0005
 1110YOPC   PO416148   4.209   0.007   5.377 -0.1203 -0.1782  0.2414
 1110YOPC   GL116149   4.386   0.050   5.958 -0.0104 -0.0022  0.0807
 1110YOPC   GL216150   4.429  -0.265   6.037 -0.2313  0.6256 -0.2943
 1110YOPC   C1A16151   4.353   0.189   6.368  0.0474  0.1913 -0.1329
 1110YOPC   D2A16152   4.246   0.182   6.754  0.1315 -0.2382 -0.2792
 1110YOPC   C3A16153   3.793   0.185   6.889 -0.3081 -0.2916 -0.2760
 1110YOPC   C4A16154   3.516   0.130   7.164  0.1707  0.0315 -0.0628
 1110YOPC   C1B16155   4.370  -0.348   6.471  0.0882  0.1186  0.0034
 1110YOPC   C2B16156   4.232  -0.391   6.890 -0.3394 -0.4906 -0.0730
 1110YOPC   D3B16157   4.104  -0.223   7.205 -0.2754 -0.0972 -0.1745
 1110YOPC   C4B16158   4.089  -0.304   7.679  0.0454  0.0720  0.1979
 1111YOPC   NC316159   3.427   1.837   5.055  0.1884 -0.0138  0.2677
 1111YOPC   PO416160   3.154   1.938   5.438 -0.0304 -0.1617  0.2704
 1111YOPC   GL116161   3.193   2.240   5.829  0.0563 -0.0546 -0.2249
 1111YOPC   GL216162   3.115   2.035   6.144 -0.3416  0.0130 -0.0350
 1111YOPC   C1A16163   3.143   2.545   6.113  0.0725  0.1614 -0.0270
 1111YOPC   D2A16164   3.142   2.541   6.528  0.0486  0.1124 -0.0491
 1111YOPC   C3A16165   2.942   2.283   6.864  0.2774 -0.2694  0.2145
 1111YOPC   C4A16166   2.605   2.053   6.952 -0.0259  0.1742 -0.1128
 1111YOPC   C1B16167   3.397   2.183   6.307  0.0443  0.1408 -0.2477
 1111YOPC   C2B16168   3.544   2.312   6.726  0.0124  0.0689  0.0077
 1111YOPC   D3B16169   3.321   2.602   7.028  0.1935  0.0533 -0.0925
 1111YOPC   C4B16170   3.270   2.912   7.239  0.4000 -0.1460 -0.1163
 1112YOPC   NC316171   6.648   3.734   5.380 -0.1627  0.1903  0.3285
 1112YOPC   PO416172   6.830   4.212   5.372  0.1119  0.0364 -0.0641
 1112YOPC   GL116173   6.761   3.950   5.815  0.0605  0.3369  0.0355
 1112YOPC   GL216174   6.521   3.879   6.191 -0.1878  0.1542 -0.1337
 1112YOPC   C1A16175   7.033   4.107   6.194  0.0896 -0.0546 -0.2254
 1112YOPC   D2A16176   6.903   4.007   6.546 -0.1811  0.1913 -0.4240
 1112YOPC   C3A16177   7.247   3.900   6.773  0.0567  0.1127  0.0368
 1112YOPC   C4A16178   7.400   3.486   6.879 -0.1596  0.1100 -0.0409
 1112YOPC   C1B16179   6.384   3.540   6.552 -0.0190  0.0789  0.2777
 1112YOPC   C2B16180   6.371   3.202   6.676 -0.4448  0.1511  0.0867
 1112YOPC   D3B16181   6.568   2.989   6.957 -0.2681  0.0140 -0.2002
 1112YOPC   C4B16182   6.490   3.041   7.497 -0.0502  0.2491  0.1749
 1113YOPC   NC316183   9.556   6.191   6.002 -0.0702  0.1363  0.2652
 1113YOPC   PO416184   9.909   6.422   6.088  0.1889  0.3064  0.1501
 1113YOPC   GL116185   9.897   6.194   6.480 -0.1423  0.1656  0.0127
 1113YOPC   GL216186   9.839   5.883   6.496  0.1871 -0.0319  0.2561
 1113YOPC   C1A16187   9.800   6.299   6.915  0.2828  0.0666 -0.1008
 1113YOPC   D2A16188   9.858   6.151   7.288  0.0561 -0.2062 -0.0095
 1113YOPC   C3A16189   9.805   6.442   7.563 -0.2353 -0.0704  0.0397
 1113YOPC   C4A16190  10.130   6.588   7.603  0.1609  0.1397  0.0378
 1113YOPC   C1B16191   9.711   5.729   6.894 -0.0634 -0.0615  0.0931
 1113YOPC   C2B16192  10.049   5.352   6.954  0.1766 -0.0480 -0.3443
 1113YOPC   D3B16193  10.046   5.096   7.277  0.0931 -0.0201  0.0682
 1113YOPC   C4B16194   9.848   4.990   7.668 -0.0285  0.0336  0.0985
 1114YOPC   NC316195   6.986  14.002   6.184  0.4808 -0.0703  0.1321
 1114YOPC   PO416196   6.976  13.583   6.324  0.1252 -0.2313  0.2206
 1114YOPC   GL116197   6.950  13.805   6.739 -0.0100  0.1697  0.1161
 1114YOPC   GL216198   6.790  13.539   6.803 -0.5047 -0.0640 -0.1907
 1114YOPC   C1A16199   6.750  14.048   6.896  0.0636  0.2343  0.1275
 1114YOPC   D2A16200   6.665  14.273   7.320 -0.0437 -0.4284  0.0599
 1114YOPC   C3A16201   6.411  14.194   7.611  0.0974 -0.1786 -0.0922
 1114YOPC   C4A16202   6.482  13.900   7.888  0.0643 -0.1866 -0.2723
 1114YOPC   C1B16203   6.756  13.664   7.221 -0.2020 -0.1624  0.1459
 1114YOPC   C2B16204   6.745  13.579   7.593 -0.2155 -0.1448  0.1785
 1114YOPC   D3B16205   7.052  13.311   7.751 -0.2068 -0.0073  0.0149
 1114YOPC   C4B16206   7.362  13.164   7.984 -0.1027  0.0912 -0.3594
 1115YOPC   NC316207   5.492  13.265   6.146  0.2120  0.2897 -0.2863
 1115YOPC   PO416208   5.057  13.440   6.165 -0.0803  0.0583  0.0477
 1115YOPC   GL116209   5.003  13.116   6.458  0.1933 -0.2003  0.0774
 1115YOPC   GL216210   4.755  13.285   6.741 -0.0729 -0.0250  0.0359
 1115YOPC   C1A16211   5.099  12.897   6.885 -0.1121 -0.3034  0.1897
 1115YOPC   D2A16212   4.862  12.821   7.312  0.0286 -0.2559 -0.1565
 1115YOPC   C3A16213   4.423  12.886   7.445 -0.2441  0.2740 -0.0544
 1115YOPC   C4A16214   3.932  12.955   7.572 -0.1784 -0.1100  0.3212
 1115YOPC   C1B16215   4.828  13.281   7.141  0.1558 -0.0868 -0.2329
 1115YOPC   C2B16216   4.771  13.317   7.583 -0.0922  0.1263  0.0361
 1115YOPC   D3B16217   4.702  13.111   7.860 -0.3328  0.2516 -0.0686
 1115YOPC   C4B16218   4.282  12.908   7.943  0.1210  0.1280  0.0084
 1116YOPC   NC316219  17.043  13.873   6.220  0.0802 -0.0681  0.0338
 1116YOPC   PO416220  17.289  13.804   6.595  0.3872 -0.1156  0.1666
 1116YOPC   GL116221  17.264  13.968   6.825 -0.2293 -0.0770  0.1120
 1116YOPC   GL216222  17.251  14.279   6.837  0.1529  0.1617  0.1655
 1116YOPC   C1A16223  17.418  13.906   7.242 -0.1523  0.1562 -0.0393
 1116YOPC   D2A16224  17.488  14.067   7.690  0.0462 -0.0797  0.0651
 1116YOPC   C3A16225  17.325  14.019   8.123 -0.0639 -0.0991  0.1481
 1116YOPC   C4A16226  17.151  14.384   8.342  0.1891  0.1227  0.0523
 1116YOPC   C1B16227  17.134  14.355   7.288 -0.0382  0.1936  0.1071
 1116YOPC   C2B16228  17.320  14.690   7.626  0.2526 -0.0450  0.0953
 1116YOPC   D3B16229  17.490  14.512   7.989 -0.0518  0.0932 -0.0103
 1116YOPC   C4B16230  17.616  14.698   8.417  0.1366  0.1365  0.3233
 1117YOPC   NC316231   0.811   4.188   5.574 -0.1547  0.0567 -0.2342
 1117YOPC   PO416232   0.342   4.220   5.403  0.1044  0.3529  0.1988
 1117YOPC   GL116233   0.383   3.934   5.795 -0.1383 -0.0637  0.1629
 1117YOPC   GL216234   0.573   3.762   5.970 -0.2477  0.0318 -0.1310
 1117YOPC   C1A16235   0.371   4.058   6.263  0.1595 -0.1714 -0.0236
 1117YOPC   D2A16236   0.423   3.995   6.707  0.1111 -0.0365  0.0092
 1117YOPC   C3A16237   0.750   4.300   6.944  0.0578  0.3145  0.0044
 1117YOPC   C4A16238   0.983   4.564   7.286 -0.1400  0.2506  0.3028
 1117YOPC   C1B16239   0.438   3.500   6.366  0.1700  0.1879  0.4758
 1117YOPC   C2B16240   0.373   3.427   6.796 -0.1793 -0.1126  0.0130
 1117YOPC   D3B16241   0.386   3.661   7.122 -0.0530 -0.0908 -0.0947
 1117YOPC   C4B16242   0.683   3.887   7.387 -0.1171 -0.1823 -0.0578
 1118YOPC   NC316243   6.221   4.754   6.004 -0.0313  0.2682  0.0185
 1118YOPC   PO416244   5.927   4.639   6.332 -0.2964 -0.0186  0.1345
 1118YOPC   GL116245   6.182   4.460   6.562 -0.1436  0.3604  0.1142
 1118YOPC   GL216246   6.325   4.104   6.572  0.1604  0.1366 -0.1939
 1118YOPC   C1A16247   6.327   4.324   7.042 -0.2370 -0.2672 -0.0463
 1118YOPC   D2A16248   6.421   4.406   7.405 -0.2030  0.2255  0.1039
 1118YOPC   C3A16249   6.277   4.188   7.738  0.4037  0.1066  0.0698
 1118YOPC   C4A16250   6.090   4.107   8.143  0.4228 -0.0215  0.1127
 1118YOPC   C1B16251   6.508   3.884   6.929  0.2470 -0.1180  0.1954
 1118YOPC   C2B16252   6.861   4.110   7.083 -0.0648 -0.0667  0.0797
 1118YOPC   D3B16253   7.175   3.719   7.303 -0.1850  0.0193  0.1123
 1118YOPC   C4B16254   7.617   3.506   7.306  0.1027  0.2611  0.0202
 1119YOPC   NC316255   4.954  12.032   6.209  0.0627 -0.3354  0.0442
 1119YOPC   PO416256   4.601  11.762   6.092  0.2213 -0.2976  0.1105
 1119YOPC   GL116257   4.423  11.984   6.514 -0.0825 -0.2250  0.1916
 1119YOPC   GL216258   4.690  12.149   6.620 -0.1337 -0.0441 -0.1745
 1119YOPC   C1A16259   4.350  11.879   6.953  0.0235 -0.0809 -0.1077
 1119YOPC   D2A16260   4.622  11.826   7.296 -0.1525 -0.2771 -0.1632
 1119YOPC   C3A16261   4.563  12.032   7.668 -0.1472 -0.0694 -0.4031
 1119YOPC   C4A16262   4.200  11.932   8.027 -0.1323  0.2776 -0.0114
 1119YOPC   C1B16263   4.917  12.026   6.976 -0.0466  0.0086 -0.0069
 1119YOPC   C2B16264   5.184  11.931   7.239 -0.1817 -0.0357 -0.1738
 1119YOPC   D3B16265   5.177  11.710   7.551 -0.0480 -0.1617 -0.1917
 1119YOPC   C4B16266   5.199  11.286   7.779  0.0802 -0.0967 -0.1609
 1120YOPC   NC316267  11.873  16.565   6.011  0.0908  0.1083 -0.0639
 1120YOPC   PO416268  12.143  16.758   6.306  0.1677 -0.2676  0.2380
 1120YOPC   GL116269  12.152  16.840   6.689 -0.0275  0.1912  0.1957
 1120YOPC   GL216270  12.367  17.092   6.733  0.1126 -0.0832 -0.0380
 1120YOPC   C1A16271  12.147  16.755   7.165  0.0613 -0.2234 -0.3072
 1120YOPC   D2A16272  12.081  16.482   7.434  0.0498 -0.2439  0.4398
 1120YOPC   C3A16273  12.109  16.151   7.114  0.2772  0.0000 -0.0070
 1120YOPC   C4A16274  11.824  16.010   6.822 -0.0087 -0.0694 -0.1203
 1120YOPC   C1B16275  12.134  17.217   7.074 -0.1455 -0.1732  0.2532
 1120YOPC   C2B16276  12.107  17.214   7.476 -0.1026  0.1256 -0.2470
 1120YOPC   D3B16277  11.971  16.964   7.661  0.2303  0.0365 -0.6770
 1120YOPC   C4B16278  11.945  16.645   7.909 -0.2530 -0.1352  0.1239
 1121YOPC   NC316279  15.751   0.610   5.358  0.1971 -0.1020 -0.0933
 1121YOPC   PO416280  15.789   0.596   5.873 -0.2173  0.1692 -0.2334
 1121YOPC   GL116281  15.798   0.728   6.312  0.2990 -0.1101 -0.1209
 1121YOPC   GL216282  15.471   0.829   6.472  0.0394  0.2673 -0.1255
 1121YOPC   C1A16283  15.831   0.440   6.689  0.0041  0.3922  0.0714
 1121YOPC   D2A16284  15.871   0.047   6.944 -0.0369  0.1422  0.1630
 1121YOPC   C3A16285  15.800   0.081   7.438  0.1748  0.0909  0.2479
 1121YOPC   C4A16286  15.747   0.037   7.878  0.0700  0.0974 -0.1326
 1121YOPC   C1B16287  15.621   0.920   6.970 -0.1994  0.2540  0.3355
 1121YOPC   C2B16288  15.696   1.162   7.309  0.0111 -0.2473 -0.0736
 1121YOPC   D3B16289  15.558   1.198   7.743 -0.3068  0.2669 -0.4549
 1121YOPC   C4B16290  15.433   1.081   8.207  0.1769 -0.1156  0.3245
 1122YOPC   NC316291   0.199  11.751   6.032  0.0188 -0.1236 -0.0765
 1122YOPC   PO416292  -0.049  11.444   5.924  0.2466  0.0775 -0.0638
 1122YOPC   GL116293  -0.037  11.566   6.405 -0.4383 -0.0342 -0.1323
 1122YOPC   GL216294  -0.313  11.537   6.387  0.3243 -0.0431 -0.1154
 1122YOPC   C1A16295  -0.101  11.395   6.804  0.3089 -0.0030  0.1802
 1122YOPC   D2A16296  -0.055  11.246   7.217  0.1988  0.2513 -0.1134
 1122YOPC   C3A16297   0.283  11.152   7.570  0.0105 -0.0342  0.2117
 1122YOPC   C4A16298   0.503  11.141   7.999 -0.0724 -0.0485 -0.1334
 1122YOPC   C1B16299  -0.490  11.732   6.730 -0.0743 -0.2893 -0.0207
 1122YOPC   C2B16300  -0.341  11.719   7.080  0.0734  0.0442  0.0048
 1122YOPC   D3B16301  -0.437  11.889   7.458 -0.2375  0.0320  0.1308
 1122YOPC   C4B16302  -0.473  12.125   7.804 -0.3915 -0.1313  0.0343
 1123YOPC   NC316303  10.881  16.496   6.071  0.0790 -0.1255  0.3089
 1123YOPC   PO416304  11.139  16.197   6.102 -0.0900  0.0491 -0.2096
 1123YOPC   GL116305  11.450  16.290   6.486 -0.3761 -0.1709 -0.5076
 1123YOPC   GL216306  11.603  16.573   6.432 -0.3270  0.0370  0.0532
 1123YOPC   C1A16307  11.250  16.303   6.952  0.0627  0.0569 -0.0423
 1123YOPC   D2A16308  11.058  16.314   7.392  0.2901  0.0233  0.2588
 1123YOPC   C3A16309  11.278  16.261   7.646  0.3515  0.2966  0.4923
 1123YOPC   C4A16310  11.409  15.955   7.861  0.0642  0.0449  0.4222
 1123YOPC   C1B16311  11.748  16.462   6.946  0.0946 -0.3104  0.1957
 1123YOPC   C2B16312  11.584  16.219   7.265 -0.0679 -0.1248 -0.0126
 1123YOPC   D3B16313  11.837  16.092   7.650  0.1117  0.0068  0.0117
 1123YOPC   C4B16314  11.895  16.177   8.072  0.0796 -0.4372 -0.0218
 1124YOPC   NC316315   1.831  12.777   6.033  0.2102  0.0190 -0.2397
 1124YOPC   PO416316   1.412  12.726   6.343 -0.0983  0.0532  0.0720
 1124YOPC   GL116317   1.364  12.974   6.633  0.2505  0.2360 -0.1335
 1124YOPC   GL216318   1.480  12.688   6.836  0.1344 -0.0601  0.0721
 1124YOPC   C1A16319   1.130  13.043   6.975  0.2183  0.3588  0.1389
 1124YOPC   D2A16320   1.137  13.244   7.289 -0.0546 -0.1981  0.0593
 1124YOPC   C3A16321   1.147  12.938   7.685 -0.1241  0.1750 -0.0441
 1124YOPC   C4A16322   1.379  13.067   8.095  0.0419  0.2508 -0.1001
 1124YOPC   C1B16323   1.456  12.660   7.265  0.0590 -0.0836 -0.1693
 1124YOPC   C2B16324   1.665  12.744   7.731  0.2555  0.2187  0.0365
 1124YOPC   D3B16325   1.911  12.426   7.949 -0.0211 -0.0731 -0.0638
 1124YOPC   C4B16326   2.244  12.302   7.727  0.0648  0.0857 -0.1492
 1125YOPC   NC316327  10.725   7.955   5.925  0.0544 -0.1630 -0.1057
 1125YOPC   PO416328  10.601   7.549   5.982 -0.1004 -0.1387 -0.0025
 1125YOPC   GL116329  10.436   7.431   6.325  0.0425  0.1221 -0.1282
 1125YOPC   GL216330  10.268   7.144   6.255 -0.0686 -0.0141  0.1617
 1125YOPC   C1A16331  10.475   7.330   6.779  0.1480 -0.2869 -0.1208
 1125YOPC   D2A16332  10.278   7.321   7.179 -0.1177  0.0579  0.2149
 1125YOPC   C3A16333  10.322   7.432   7.564  0.2329 -0.1579  0.0590
 1125YOPC   C4A16334  10.499   7.909   7.689  0.0854  0.1275 -0.1646
 1125YOPC   C1B16335  10.047   7.350   6.601 -0.0549 -0.0486  0.2698
 1125YOPC   C2B16336   9.792   7.452   6.908 -0.0881  0.2666 -0.2555
 1125YOPC   D3B16337   9.774   7.373   7.249  0.3000  0.1085  0.1722
 1125YOPC   C4B16338   9.814   7.537   7.720  0.1039 -0.1465 -0.1099
 1126YOPC   NC316339   0.778   7.216   5.107  0.0472 -0.0128  0.1781
 1126YOPC   PO416340   0.639   7.663   5.263 -0.0343  0.0434 -0.0958
 1126YOPC   GL116341   0.719   7.774   5.766  0.0267  0.0060  0.0322
 1126YOPC   GL216342   0.860   8.113   5.782  0.2905  0.0026 -0.0396
 1126YOPC   C1A16343   0.633   7.848   6.281 -0.3664 -0.2285  0.2440
 1126YOPC   D2A16344   0.618   8.025   6.663 -0.0855 -0.1955  0.1887
 1126YOPC   C3A16345   0.489   7.811   7.061 -0.1115  0.2229  0.0837
 1126YOPC   C4A16346   0.240   7.842   7.351 -0.2610 -0.1043 -0.1754
 1126YOPC   C1B16347   0.545   8.261   5.988 -0.1664  0.1843 -0.2135
 1126YOPC   C2B16348   0.229   8.263   6.220  0.0082 -0.0034 -0.0041
 1126YOPC   D3B16349   0.065   8.107   6.685 -0.2716  0.0270  0.0600
 1126YOPC   C4B16350  -0.142   8.187   7.139  0.0609  0.1338 -0.1024
 1127YOPC   NC316351  15.820   3.547   5.723 -0.0848 -0.0141  0.2153
 1127YOPC   PO416352  16.138   3.256   5.657 -0.1119 -0.4691  0.3762
 1127YOPC   GL116353  15.802   3.054   5.984 -0.2883  0.0787 -0.1792
 1127YOPC   GL216354  15.489   3.097   6.227  0.1660 -0.1749  0.0010
 1127YOPC   C1A16355  15.903   2.783   6.369  0.0320  0.0559 -0.0227
 1127YOPC   D2A16356  16.226   2.639   6.604 -0.4316  0.1434  0.0884
 1127YOPC   C3A16357  16.142   2.854   7.081  0.2421  0.2141 -0.1851
 1127YOPC   C4A16358  16.118   3.165   7.208 -0.1469  0.1555  0.0337
 1127YOPC   C1B16359  15.401   2.840   6.613 -0.0067 -0.2338 -0.3391
 1127YOPC   C2B16360  15.367   2.732   7.086  0.1724 -0.0762  0.0792
 1127YOPC   D3B16361  15.674   2.880   7.416  0.1524 -0.2512 -0.0362
 1127YOPC   C4B16362  15.969   2.925   7.741 -0.0888  0.3516  0.0012
 1128YOPC   NC316363  11.194  13.570   5.951  0.1601 -0.0892 -0.2306
 1128YOPC   PO416364  11.110  13.948   5.712  0.1775 -0.0983  0.1471
 1128YOPC   GL116365  10.996  14.131   6.128  0.0291  0.1189 -0.0831
 1128YOPC   GL216366  10.862  14.054   6.465 -0.0791  0.2244  0.0685
 1128YOPC   C1A16367  11.228  14.278   6.622  0.0738 -0.0125  0.2132
 1128YOPC   D2A16368  11.193  14.139   7.038 -0.0660 -0.0149 -0.1498
 1128YOPC   C3A16369  11.359  14.533   7.273 -0.4023  0.3086  0.0779
 1128YOPC   C4A16370  11.588  14.740   7.587 -0.0372  0.0635 -0.1381
 1128YOPC   C1B16371  10.768  13.858   6.809 -0.1031  0.1170  0.0972
 1128YOPC   C2B16372  10.902  13.822   7.201  0.2988 -0.2553  0.1924
 1128YOPC   D3B16373  11.109  14.054   7.503 -0.1774  0.0384  0.0570
 1128YOPC   C4B16374  11.211  14.402   7.740  0.1297  0.1224  0.3263
 1129YOPC   NC316375   2.864   4.287   5.616 -0.0680  0.0879 -0.0654
 1129YOPC   PO416376   3.095   4.673   5.484 -0.0182 -0.1529  0.1898
 1129YOPC   GL116377   3.066   4.827   5.956 -0.1658 -0.1828  0.1132
 1129YOPC   GL216378   3.354   5.065   6.046 -0.1480  0.0679  0.1537
 1129YOPC   C1A16379   3.238   4.754   6.396 -0.3597  0.0868 -0.1622
 1129YOPC   D2A16380   3.032   4.382   6.745  0.1324  0.0479 -0.0371
 1129YOPC   C3A16381   3.348   4.151   7.131 -0.1617 -0.0378  0.2025
 1129YOPC   C4A16382   3.609   4.038   7.328 -0.2028 -0.0116  0.1018
 1129YOPC   C1B16383   3.303   5.383   6.396 -0.0142  0.0515 -0.0254
 1129YOPC   C2B16384   3.035   5.402   6.780  0.0144 -0.1492 -0.0465
 1129YOPC   D3B16385   3.188   5.543   7.197 -0.2561  0.3655 -0.1239
 1129YOPC   C4B16386   3.488   5.616   7.581 -0.1727  0.1068 -0.0871
 1130YOPC   NC316387  11.105   9.319   5.764 -0.0900  0.0303  0.0667
 1130YOPC   PO416388  11.221   8.900   5.887  0.1000 -0.0285  0.1894
 1130YOPC   GL116389  11.315   8.954   6.345 -0.1538  0.2242  0.0156
 1130YOPC   GL216390  11.107   8.733   6.307 -0.2127  0.3755 -0.3285
 1130YOPC   C1A16391  11.321   8.784   6.760  0.0464  0.1143  0.0372
 1130YOPC   D2A16392  11.248   8.359   6.852 -0.2702  0.1007  0.0959
 1130YOPC   C3A16393  10.933   8.069   6.896 -0.0940 -0.2100 -0.2459
 1130YOPC   C4A16394  10.690   7.780   6.750 -0.1959 -0.0101 -0.0360
 1130YOPC   C1B16395  10.903   8.582   6.635 -0.0201 -0.0755 -0.0307
 1130YOPC   C2B16396  10.864   8.518   7.138 -0.1083 -0.0092  0.1836
 1130YOPC   D3B16397  10.742   8.117   7.327 -0.2628  0.2142  0.0174
 1130YOPC   C4B16398  10.439   7.786   7.176 -0.0436 -0.0992 -0.1380
 1131YOPC   NC316399   8.974  13.642   5.616  0.3197 -0.5754  0.0720
 1131YOPC   PO416400   9.407  13.624   5.879 -0.0205 -0.0613 -0.0006
 1131YOPC   GL116401   9.231  13.589   6.298 -0.1963  0.3297  0.0131
 1131YOPC   GL216402   9.447  13.237   6.356 -0.1831  0.0842  0.1030
 1131YOPC   C1A16403   9.382  13.540   6.709 -0.1310  0.2321 -0.1462
 1131YOPC   D2A16404   9.432  13.472   7.176  0.2824 -0.1376  0.1874
 1131YOPC   C3A16405   9.525  13.717   7.536  0.0716  0.2364 -0.1867
 1131YOPC   C4A16406   9.624  13.554   7.985  0.0202  0.0981  0.0169
 1131YOPC   C1B16407   9.436  13.069   6.837 -0.0056 -0.0970  0.0444
 1131YOPC   C2B16408   9.194  13.044   7.153 -0.1649 -0.1077 -0.0950
 1131YOPC   D3B16409   9.138  12.743   7.388 -0.0787 -0.0128 -0.0126
 1131YOPC   C4B16410   8.984  12.736   7.686  0.0210  0.0601 -0.2299
 1132YOPC   NC316411   8.120  16.893   5.776  0.0439 -0.1626 -0.2604
 1132YOPC   PO416412   8.174  17.349   5.869  0.2449  0.1593  0.0602
 1132YOPC   GL116413   8.005  17.326   6.285  0.0060  0.1154  0.0198
 1132YOPC   GL216414   7.628  17.386   6.395  0.1333  0.0688 -0.0793
 1132YOPC   C1A16415   8.121  17.004   6.670  0.2021  0.0937 -0.1019
 1132YOPC   D2A16416   8.134  16.968   7.074 -0.1342 -0.1679 -0.2523
 1132YOPC   C3A16417   8.186  17.079   7.508 -0.1424 -0.0583 -0.0401
 1132YOPC   C4A16418   8.345  17.081   8.005 -0.2849  0.0435  0.2410
 1132YOPC   C1B16419   7.619  17.432   6.809  0.0227  0.0958  0.0500
 1132YOPC   C2B16420   7.863  17.332   7.277  0.0467 -0.0433  0.1002
 1132YOPC   D3B16421   7.666  17.225   7.579 -0.1900  0.3795 -0.1732
 1132YOPC   C4B16422   7.449  17.153   8.048  0.0625  0.1166 -0.0255
 1133YOPC   NC316423   6.049   1.509   5.472 -0.1312 -0.2837 -0.1296
 1133YOPC   PO416424   6.027   1.826   5.706 -0.1696 -0.1124 -0.0899
 1133YOPC   GL116425   5.807   1.527   5.992  0.0775  0.0925 -0.0144
 1133YOPC   GL216426   5.978   1.538   6.311 -0.0210  0.1515  0.3483
 1133YOPC   C1A16427   5.457   1.552   6.269 -0.0453  0.1155  0.0696
 1133YOPC   D2A16428   5.073   1.526   6.470  0.2226  0.2082 -0.2320
 1133YOPC   C3A16429   4.910   1.479   6.907 -0.1383 -0.2002 -0.1153
 1133YOPC   C4A16430   4.942   1.462   7.336 -0.0109 -0.2510 -0.0427
 1133YOPC   C1B16431   5.829   1.458   6.618 -0.3605  0.0994 -0.1578
 1133YOPC   C2B16432   5.754   1.206   6.998  0.0909  0.0646  0.0354
 1133YOPC   D3B16433   5.809   1.357   7.427 -0.0890 -0.0686 -0.0284
 1133YOPC   C4B16434   6.067   1.458   7.780 -0.0027 -0.0834  0.2127
 1134YOPC   NC316435   8.016   1.972   5.907  0.1303  0.3247 -0.0559
 1134YOPC   PO416436   7.552   1.966   5.892  0.0606 -0.1165 -0.1258
 1134YOPC   GL116437   7.286   2.206   6.260  0.0035  0.1104  0.1457
 1134YOPC   GL216438   7.087   2.264   6.257 -0.1385 -0.0698 -0.1970
 1134YOPC   C1A16439   7.324   2.203   6.719 -0.3170  0.4697  0.1016
 1134YOPC   D2A16440   7.028   2.137   7.136  0.1455 -0.0257 -0.1177
 1134YOPC   C3A16441   6.634   1.948   7.248  0.0943 -0.1441  0.1907
 1134YOPC   C4A16442   6.312   1.766   7.465 -0.0588 -0.1629 -0.0842
 1134YOPC   C1B16443   6.933   2.446   6.573  0.2239 -0.1206 -0.1126
 1134YOPC   C2B16444   6.859   2.551   6.937 -0.1684 -0.2951 -0.2141
 1134YOPC   D3B16445   6.957   2.813   7.214 -0.3930 -0.0148 -0.1716
 1134YOPC   C4B16446   7.109   3.143   7.467  0.0262  0.1892 -0.0897
 1135YOPC   NC316447   4.430  15.589   5.786  0.3066 -0.1508  0.0245
 1135YOPC   PO416448   4.126  15.986   5.759  0.0425 -0.0728 -0.0604
 1135YOPC   GL116449   4.138  16.168   6.107 -0.1782 -0.1784  0.0481
 1135YOPC   GL216450   4.047  16.573   6.228 -0.1710 -0.2775 -0.3011
 1135YOPC   C1A16451   3.927  16.189   6.580 -0.0584  0.1766  0.1540
 1135YOPC   D2A16452   3.853  16.207   6.990  0.0433  0.0131 -0.0501
 1135YOPC   C3A16453   3.909  16.260   7.347 -0.4270  0.1406  0.0516
 1135YOPC   C4A16454   4.034  16.186   7.719 -0.0272 -0.2068 -0.3714
 1135YOPC   C1B16455   4.066  16.670   6.703 -0.0120  0.2504  0.3133
 1135YOPC   C2B16456   3.930  16.698   7.136 -0.3617  0.0769 -0.3220
 1135YOPC   D3B16457   4.245  16.612   7.441 -0.0230 -0.0699 -0.1316
 1135YOPC   C4B16458   4.626  16.463   7.749  0.0173  0.1173 -0.2514
 1136YOPC   NC316459   1.450  17.464   5.614 -0.0832  0.1256  0.0711
 1136YOPC   PO416460   1.406  17.862   5.495 -0.0638  0.0726 -0.3241
 1136YOPC   GL116461   1.579  17.911   5.879 -0.2148  0.2211 -0.1676
 1136YOPC   GL216462   1.367  17.718   6.101  0.3908 -0.1517  0.0130
 1136YOPC   C1A16463   1.888  17.832   6.310 -0.0004 -0.1003  0.2848
 1136YOPC   D2A16464   2.173  18.020   6.534  0.1085 -0.0906  0.0064
 1136YOPC   C3A16465   2.239  18.023   6.926 -0.1525  0.0307 -0.0220
 1136YOPC   C4A16466   2.279  17.831   7.434  0.0400 -0.0149  0.0546
 1136YOPC   C1B16467   1.532  17.551   6.502  0.2053 -0.2144 -0.3194
 1136YOPC   C2B16468   1.752  17.790   6.797  0.2038 -0.2352 -0.1708
 1136YOPC   D3B16469   1.835  17.976   7.169  0.1338 -0.2266  0.2195
 1136YOPC   C4B16470   1.566  18.015   7.618 -0.3937  0.2935 -0.0054
 1137YOPC   NC316471   9.643   3.291   5.367 -0.1594 -0.3130 -0.2842
 1137YOPC   PO416472  10.107   3.438   5.532  0.1501  0.1462 -0.3054
 1137YOPC   GL116473   9.931   3.238   5.919 -0.1115 -0.0527 -0.0706
 1137YOPC   GL216474   9.706   3.058   5.824 -0.1328 -0.1222  0.3512
 1137YOPC   C1A16475   9.944   3.293   6.447  0.1383 -0.0099 -0.0544
 1137YOPC   D2A16476   9.986   3.297   6.945 -0.3358 -0.1675  0.0410
 1137YOPC   C3A16477   9.655   3.604   7.141 -0.0542 -0.1775 -0.1705
 1137YOPC   C4A16478   9.704   3.586   7.611  0.0572 -0.2732  0.1338
 1137YOPC   C1B16479   9.498   3.070   6.206 -0.0969  0.2968  0.0440
 1137YOPC   C2B16480   9.143   3.139   6.504  0.0815 -0.4586 -0.1776
 1137YOPC   D3B16481   8.787   3.329   6.644 -0.0199  0.1756  0.0997
 1137YOPC   C4B16482   8.383   3.368   6.919  0.0343  0.0387 -0.0721
 1138YOPC   NC316483  12.599  10.631   5.860  0.2285  0.1254  0.0232
 1138YOPC   PO416484  12.928  10.664   6.082 -0.0455  0.3540 -0.0248
 1138YOPC   GL116485  12.630  10.586   6.425  0.1397  0.0437  0.1393
 1138YOPC   GL216486  12.405  10.531   6.349 -0.2846  0.2100 -0.2415
 1138YOPC   C1A16487  12.696  10.768   6.728  0.1356  0.1117 -0.0577
 1138YOPC   D2A16488  12.687  10.755   7.182 -0.0278  0.1516 -0.2112
 1138YOPC   C3A16489  12.679  10.481   7.545  0.1047 -0.0490 -0.0149
 1138YOPC   C4A16490  12.430  10.508   7.905 -0.1924 -0.1438  0.0168
 1138YOPC   C1B16491  12.256  10.560   6.832 -0.1081  0.0602 -0.1595
 1138YOPC   C2B16492  12.258  10.576   7.249  0.4924  0.1384  0.0951
 1138YOPC   D3B16493  12.077  10.519   7.589  0.3107 -0.1721  0.1480
 1138YOPC   C4B16494  11.853  10.396   7.934  0.1813  0.4692  0.1178
 1139YOPC   NC316495  12.268  13.610   6.049 -0.0080  0.0894  0.1000
 1139YOPC   PO416496  11.846  13.820   6.022  0.0611  0.1963  0.0017
 1139YOPC   GL116497  11.982  13.705   6.449 -0.1629  0.0007  0.1274
 1139YOPC   GL216498  11.731  13.502   6.440  0.1844  0.1130  0.2295
 1139YOPC   C1A16499  12.269  13.950   6.743  0.2085  0.3161 -0.2021
 1139YOPC   D2A16500  12.294  14.102   7.170  0.0902  0.0986  0.0093
 1139YOPC   C3A16501  12.314  13.797   7.468 -0.3031 -0.1812  0.0906
 1139YOPC   C4A16502  11.969  13.756   7.696 -0.0132 -0.1551 -0.0834
 1139YOPC   C1B16503  11.783  13.390   6.815  0.2884  0.0485  0.0553
 1139YOPC   C2B16504  12.171  13.559   7.041  0.3219 -0.0623 -0.1126
 1139YOPC   D3B16505  12.601  13.544   6.872  0.0466  0.2581  0.2318
 1139YOPC   C4B16506  12.807  13.175   6.660  0.2401 -0.2005  0.1610
 1140YOPC   NC316507  13.180  14.271   6.081  0.1277  0.0664  0.1707
 1140YOPC   PO416508  13.518  14.469   6.144 -0.5929  0.1801 -0.1969
 1140YOPC   GL116509  13.350  14.591   6.470 -0.0517  0.3802  0.0789
 1140YOPC   GL216510  13.081  14.445   6.521  0.2144  0.1999  0.0602
 1140YOPC   C1A16511  13.447  14.815   6.868  0.2244  0.0664 -0.0406
 1140YOPC   D2A16512  13.429  14.804   7.347  0.2631  0.0257 -0.3886
 1140YOPC   C3A16513  13.356  15.247   7.556 -0.1466 -0.1183 -0.0521
 1140YOPC   C4A16514  13.193  15.499   7.893  0.0021 -0.2233  0.2740
 1140YOPC   C1B16515  13.066  14.511   6.971  0.0572 -0.0483 -0.1306
 1140YOPC   C2B16516  13.052  14.470   7.406 -0.0360  0.3764 -0.1479
 1140YOPC   D3B16517  12.777  14.484   7.768  0.0447  0.2337 -0.1029
 1140YOPC   C4B16518  12.621  14.414   8.220  0.1873 -0.1046  0.3459
 1141YOPC   NC316519   6.529  10.005   5.908  0.0143  0.0314  0.0335
 1141YOPC   PO416520   6.244  10.267   6.175  0.3818  0.0393 -0.3724
 1141YOPC   GL116521   6.236  10.373   6.629  0.0463 -0.0627  0.2377
 1141YOPC   GL216522   6.601  10.486   6.712  0.2313  0.2043  0.0314
 1141YOPC   C1A16523   6.016  10.398   7.022  0.3368 -0.2533  0.1550
 1141YOPC   D2A16524   5.977  10.456   7.441  0.1437  0.1732  0.3211
 1141YOPC   C3A16525   5.809  10.850   7.594  0.0554  0.2831 -0.0646
 1141YOPC   C4A16526   5.538  11.040   7.993 -0.0619  0.2445  0.0508
 1141YOPC   C1B16527   6.522  10.554   7.129  0.1978  0.2258 -0.1151
 1141YOPC   C2B16528   6.403  10.540   7.584 -0.0898  0.3332 -0.0880
 1141YOPC   D3B16529   6.053  10.540   7.893 -0.2047  0.1118 -0.0159
 1141YOPC   C4B16530   5.630  10.572   7.971  0.0289 -0.0241  0.4360
 1142YOPC   NC316531  14.250  14.157   5.568 -0.1817  0.3427  0.0692
 1142YOPC   PO416532  14.021  13.836   5.850 -0.1929  0.0895  0.1328
 1142YOPC   GL116533  14.076  13.630   6.303  0.2423  0.5059 -0.0831
 1142YOPC   GL216534  13.840  13.596   6.439  0.2903 -0.1754 -0.0780
 1142YOPC   C1A16535  14.366  13.780   6.666 -0.0829  0.0202 -0.0407
 1142YOPC   D2A16536  14.633  13.728   7.010  0.0586 -0.1991  0.1134
 1142YOPC   C3A16537  14.539  13.613   7.366 -0.1025  0.0917  0.1475
 1142YOPC   C4A16538  14.440  13.188   7.486 -0.2341 -0.1281  0.1700
 1142YOPC   C1B16539  13.800  13.426   6.751 -0.3618  0.1189 -0.1374
 1142YOPC   C2B16540  13.741  13.456   7.202 -0.1382  0.0471 -0.0530
 1142YOPC   D3B16541  13.984  13.449   7.506 -0.1846 -0.0836 -0.2793
 1142YOPC   C4B16542  14.225  13.317   7.973  0.0879  0.0125  0.1495
 1143YOPC   NC316543  10.496   0.965   5.745  0.1157  0.2893  0.1136
 1143YOPC   PO416544  10.479   0.539   5.891 -0.1666  0.0113 -0.0707
 1143YOPC   GL116545  10.718   0.323   6.237  0.0935 -0.2373  0.0794
 1143YOPC   GL216546  10.642   0.609   6.377 -0.3719  0.0815 -0.1736
 1143YOPC   C1A16547  10.589   0.176   6.640  0.0914 -0.1647  0.0771
 1143YOPC   D2A16548  10.271   0.081   6.914  0.1555 -0.1668  0.2502
 1143YOPC   C3A16549  10.336   0.019   7.370 -0.4580  0.0677 -0.1187
 1143YOPC   C4A16550  10.491   0.111   7.764 -0.0996 -0.2909  0.0650
 1143YOPC   C1B16551  10.534   0.942   6.744  0.1591  0.0896  0.0685
 1143YOPC   C2B16552  10.848   1.133   6.836  0.1219 -0.0403  0.1151
 1143YOPC   D3B16553  10.835   1.255   7.227 -0.0632  0.0457 -0.0014
 1143YOPC   C4B16554  10.602   1.460   7.501  0.1075 -0.1317  0.1300
 1144YOPC   NC316555  17.812   0.680   5.909 -0.0606  0.1253  0.0672
 1144YOPC   PO416556  17.435   0.554   6.150 -0.2415 -0.2292 -0.2434
 1144YOPC   GL116557  17.503   0.672   6.585 -0.3249 -0.1660 -0.0487
 1144YOPC   GL216558  17.209   0.637   6.690  0.0853  0.0627 -0.1979
 1144YOPC   C1A16559  17.652   0.767   6.985 -0.1450  0.3811 -0.1607
 1144YOPC   D2A16560  17.522   0.976   7.362 -0.0187 -0.1063  0.0705
 1144YOPC   C3A16561  17.177   1.130   7.641  0.3527 -0.0161 -0.1458
 1144YOPC   C4A16562  16.891   1.042   8.069  0.5439 -0.1665 -0.1257
 1144YOPC   C1B16563  17.165   0.671   6.984 -0.0671 -0.2205  0.0936
 1144YOPC   C2B16564  17.120   0.634   7.474  0.0824 -0.0028  0.1330
 1144YOPC   D3B16565  17.200   0.226   7.743 -0.0410  0.0884  0.1177
 1144YOPC   C4B16566  17.290   0.030   8.159 -0.0075  0.2188  0.1433
 1145YOPC   NC316567   2.075  14.102   6.193  0.0712  0.1266  0.0983
 1145YOPC   PO416568   2.435  14.092   6.566  0.1289  0.1910  0.0964
 1145YOPC   GL116569   2.398  13.959   6.929 -0.1618 -0.0729 -0.1614
 1145YOPC   GL216570   2.163  14.070   7.092  0.0929 -0.1181 -0.2927
 1145YOPC   C1A16571   2.674  14.154   7.165 -0.0176 -0.1359 -0.1198
 1145YOPC   D2A16572   2.696  14.277   7.774 -0.0913  0.1667  0.0773
 1145YOPC   C3A16573   2.796  14.388   8.194  0.0435 -0.1329  0.0674
 1145YOPC   C4A16574   2.884  14.365   8.650  0.1758 -0.0738 -0.1903
 1145YOPC   C1B16575   2.322  14.047   7.509  0.2102 -0.0604  0.1978
 1145YOPC   C2B16576   2.231  14.037   7.903  0.1057 -0.1547  0.2065
 1145YOPC   D3B16577   1.789  14.271   7.912  0.1850 -0.2139  0.1743
 1145YOPC   C4B16578   1.497  14.024   8.181  0.0313  0.0770 -0.2047
 1146ERGO   ROH16579   8.481  17.456  10.158  0.0825  0.0944 -0.1199
 1146ERGO    R116580   8.408  17.498   9.887  0.0818  0.1405 -0.1113
 1146ERGO    R216581   8.529  17.691   9.729  0.2241  0.0259 -0.1345
 1146ERGO    R316582   8.574  17.480   9.564  0.0209 -0.0200 -0.1363
 1146ERGO    R416583   8.566  17.712   9.386  0.2873  0.0077 -0.1299
 1146ERGO    R516584   8.449  17.530   9.366  0.0920  0.1265 -0.1510
 1146ERGO    C116585   8.630  17.526   9.031  0.1333 -0.0459 -0.1289
 1146ERGO    C216586   8.563  17.475   8.640  0.4487  0.0314 -0.1815
 1147ERGO   ROH16587   5.950  10.003   6.653  0.1897  0.2310 -0.0795
 1147ERGO    R116588   5.795   9.941   6.882  0.1456  0.1459 -0.1314
 1147ERGO    R216589   5.904   9.823   7.107  0.1223  0.1511 -0.1164
 1147ERGO    R316590   5.793  10.037   7.233  0.0136  0.0958 -0.1182
 1147ERGO    R416591   5.832   9.837   7.445  0.1422  0.1259 -0.1115
 1147ERGO    R516592   5.646   9.940   7.396  0.0804  0.0207 -0.1018
 1147ERGO    C116593   5.685  10.046   7.760  0.0516  0.0593 -0.1104
 1147ERGO    C216594   5.881  10.082   8.131  0.1181  0.1728 -0.0108
 1148ERGO   ROH16595   5.240  17.599   9.838  0.0580  0.1416  0.1076
 1148ERGO    R116596   5.151  17.689   9.585  0.0389  0.0807  0.0924
 1148ERGO    R216597   5.319  17.808   9.400  0.0295  0.0212  0.0430
 1148ERGO    R316598   5.223  17.614   9.236 -0.0003 -0.0174  0.1058
 1148ERGO    R416599   5.261  17.847   9.062  0.1399 -0.1169  0.0073
 1148ERGO    R516600   5.078  17.730   9.085  0.0888 -0.0327  0.0099
 1148ERGO    C116601   5.137  17.687   8.711  0.1762 -0.2333  0.0455
 1148ERGO    C216602   5.327  17.839   8.411 -0.2080 -0.1056  0.1114
 1149ERGO   ROH16603   4.617  13.787   6.657 -0.0644 -0.1735 -0.0039
 1149ERGO    R116604   4.724  13.752   6.917  0.0294  0.1070 -0.0025
 1149ERGO    R216605   4.719  13.952   7.108 -0.3011  0.1688 -0.0781
 1149ERGO    R316606   4.598  13.760   7.258  0.0531  0.0051  0.0110
 1149ERGO    R416607   4.639  13.986   7.442 -0.3628  0.1894 -0.0942
 1149ERGO    R516608   4.703  13.780   7.473  0.0286  0.3098  0.0056
 1149ERGO    C116609   4.478  13.827   7.778 -0.0664  0.0477 -0.0200
 1149ERGO    C216610   4.374  14.086   8.083  0.0398  0.1369  0.1141
 1150ERGO   ROH16611   3.561   8.423  10.309 -0.1270  0.0789  0.1943
 1150ERGO    R116612   3.624   8.385  10.035  0.1021  0.1627  0.2330
 1150ERGO    R216613   3.435   8.314   9.847  0.3210 -0.1332  0.1135
 1150ERGO    R316614   3.526   8.535   9.718  0.0699  0.0062  0.1691
 1150ERGO    R416615   3.437   8.356   9.504  0.3320 -0.0667  0.1224
 1150ERGO    R516616   3.633   8.450   9.522  0.2131  0.1751  0.1735
 1150ERGO    C116617   3.524   8.589   9.184  0.1027  0.1029  0.1797
 1150ERGO    C216618   3.591   8.704   8.890 -0.1718  0.0097 -0.1316
 1151ERGO   ROH16619  12.692  17.859   7.033 -0.0180 -0.1234 -0.0766
 1151ERGO    R116620  12.661  17.841   7.313 -0.0110 -0.1034 -0.0745
 1151ERGO    R216621  12.852  17.934   7.491 -0.0618  0.0223 -0.0844
 1151ERGO    R316622  12.642  18.074   7.593 -0.1380 -0.0762 -0.1054
 1151ERGO    R416623  12.834  18.058   7.813 -0.1138  0.0941 -0.1144
 1151ERGO    R516624  12.625  17.998   7.819 -0.0781 -0.0288 -0.0854
 1151ERGO    C116625  12.627  18.260   8.097 -0.2156  0.0436 -0.1516
 1151ERGO    C216626  12.521  18.113   8.392 -0.1774  0.0610 -0.0593
 1152ERGO   ROH16627   0.287   2.292   9.825  0.1406  0.2838  0.0913
 1152ERGO    R116628   0.211   2.326   9.554  0.1163  0.1288  0.0805
 1152ERGO    R216629   0.378   2.441   9.366  0.1197 -0.0492 -0.0078
 1152ERGO    R316630   0.330   2.211   9.230  0.0326 -0.1175  0.1312
 1152ERGO    R416631   0.458   2.387   9.034 -0.0232 -0.2076 -0.0200
 1152ERGO    R516632   0.268   2.284   9.011 -0.0584 -0.2059  0.1155
 1152ERGO    C116633   0.459   2.139   8.714 -0.1882 -0.3640  0.1033
 1152ERGO    C216634   0.412   2.099   8.409  0.0230 -0.0037  0.1019
 1153ERGO   ROH16635  16.095   2.344   6.149 -0.1734  0.1069  0.1209
 1153ERGO    R116636  15.979   2.215   6.373 -0.0942 -0.1439  0.0233
 1153ERGO    R216637  16.086   1.987   6.487  0.2527  0.0270  0.0604
 1153ERGO    R316638  16.079   2.137   6.714 -0.1740 -0.0103  0.0771
 1153ERGO    R416639  16.112   1.861   6.808  0.1343  0.0263  0.0690
 1153ERGO    R516640  15.957   2.001   6.870 -0.1273 -0.2027 -0.0541
 1153ERGO    C116641  16.119   1.927   7.207 -0.3351 -0.0092  0.0896
 1153ERGO    C216642  16.066   2.007   7.536  0.1430 -0.0709 -0.3903
 1154ERGO   ROH16643   0.658   1.954   5.941 -0.0449  0.1296 -0.1075
 1154ERGO    R116644   0.689   1.789   6.169 -0.2123  0.1139 -0.0943
 1154ERGO    R216645   0.928   1.769   6.307 -0.1774 -0.2495 -0.1934
 1154ERGO    R316646   0.773   1.837   6.520  0.0181  0.0402 -0.1386
 1154ERGO    R416647   0.992   1.680   6.634 -0.1522 -0.2403 -0.1964
 1154ERGO    R516648   0.779   1.644   6.661 -0.1932  0.0741 -0.0829
 1154ERGO    C116649   0.885   1.692   7.025  0.0460  0.0370 -0.1465
 1154ERGO    C216650   0.888   1.844   7.270  0.1011  0.1359  0.1492
 1155ERGO   ROH16651  10.519   1.204  10.082 -0.1040  0.1950  0.0474
 1155ERGO    R116652  10.606   1.265   9.820 -0.0822  0.1495  0.0419
 1155ERGO    R216653  10.653   1.071   9.629  0.2063  0.0864  0.1558
 1155ERGO    R316654  10.480   1.220   9.481  0.0787 -0.1866  0.0265
 1155ERGO    R416655  10.674   1.117   9.287  0.3598  0.1095  0.1690
 1155ERGO    R516656  10.618   1.326   9.317  0.0198  0.0188  0.1187
 1155ERGO    C116657  10.523   1.284   8.950  0.3293 -0.1333  0.0553
 1155ERGO    C216658  10.423   1.247   8.590  0.3059  0.2725  0.1531
 1156ERGO   ROH16659   9.676  12.767   6.359 -0.3362 -0.0487 -0.0561
 1156ERGO    R116660   9.761  12.665   6.609 -0.1665 -0.0995 -0.1334
 1156ERGO    R216661  10.026  12.662   6.686 -0.1387  0.0949 -0.2217
 1156ERGO    R316662   9.931  12.795   6.903 -0.1859 -0.0964 -0.1230
 1156ERGO    R416663  10.126  12.604   7.011  0.0224  0.0175 -0.2836
 1156ERGO    R516664   9.918  12.627   7.074  0.0190 -0.1970 -0.2015
 1156ERGO    C116665  10.095  12.694   7.405  0.0719 -0.2072 -0.2270
 1156ERGO    C216666  10.162  12.768   7.743  0.1025  0.1333 -0.1966
 1157ERGO   ROH16667   7.073   8.093   6.525 -0.2242  0.0685  0.0086
 1157ERGO    R116668   7.201   8.217   6.745 -0.2016  0.0557  0.0034
 1157ERGO    R216669   7.061   8.343   6.947 -0.1839  0.0036  0.0520
 1157ERGO    R316670   7.205   8.175   7.106 -0.1268  0.0000 -0.0042
 1157ERGO    R416671   7.105   8.382   7.288 -0.1042 -0.0396  0.0464
 1157ERGO    R516672   7.312   8.320   7.263 -0.1055 -0.0120 -0.0111
 1157ERGO    C116673   7.266   8.248   7.635 -0.0040 -0.0683 -0.0097
 1157ERGO    C216674   7.447   8.203   7.946 -0.2154 -0.0999  0.2995
 1158ERGO   ROH16675  13.795  11.491   6.819  0.1517  0.0033  0.0968
 1158ERGO    R116676  13.848  11.484   7.097  0.1521 -0.0420  0.0957
 1158ERGO    R216677  13.950  11.700   7.235  0.0684 -0.0343  0.1473
 1158ERGO    R316678  13.732  11.663   7.393  0.0808 -0.1549  0.1364
 1158ERGO    R416679  13.931  11.788   7.569 -0.1332  0.3337  0.0450
 1158ERGO    R516680  13.823  11.602   7.606  0.1177  0.2211  0.2345
 1158ERGO    C116681  13.715  11.803   7.911 -0.2391  0.4346 -0.0249
 1158ERGO    C216682  13.681  11.817   8.314 -0.1398 -0.0199 -0.3472
 1159ERGO   ROH16683   6.280   7.934   6.901 -0.0045  0.0243 -0.0557
 1159ERGO    R116684   6.277   7.837   7.167  0.1151  0.0651 -0.0379
 1159ERGO    R216685   6.310   8.002   7.387 -0.0691  0.1457 -0.0643
 1159ERGO    R316686   6.076   7.891   7.466  0.0583 -0.1133 -0.0443
 1159ERGO    R416687   6.177   8.024   7.705 -0.1474  0.1323 -0.0967
 1159ERGO    R516688   6.116   7.816   7.689  0.1179  0.0477 -0.0030
 1159ERGO    C116689   5.879   7.932   7.964 -0.0734 -0.1187 -0.0967
 1159ERGO    C216690   5.681   7.808   8.294 -0.1449 -0.0966  0.2653
 1160ERGO   ROH16691  13.119  10.328   6.399  0.1523  0.0974 -0.1255
 1160ERGO    R116692  13.231  10.408   6.647  0.1636  0.0777 -0.1244
 1160ERGO    R216693  13.200  10.663   6.749  0.0060  0.0142 -0.0121
 1160ERGO    R316694  13.107  10.529   6.966  0.1635 -0.1431 -0.0383
 1160ERGO    R416695  13.235  10.769   7.076 -0.0301 -0.0614  0.0167
 1160ERGO    R516696  13.275  10.563   7.133  0.1657 -0.0474 -0.0583
 1160ERGO    C116697  13.167  10.706   7.470  0.0971 -0.2531  0.0088
 1160ERGO    C216698  13.123  10.598   7.785  0.1520  0.1804 -0.1016
 1161ERGO   ROH16699   5.777   0.251   6.104  0.3080 -0.0936  0.2703
 1161ERGO    R116700   5.752   0.350   6.368  0.1972  0.0998  0.1881
 1161ERGO    R216701   5.810   0.612   6.435 -0.0872  0.2166 -0.0291
 1161ERGO    R316702   5.558   0.608   6.536 -0.0858  0.0348 -0.0244
 1161ERGO    R416703   5.710   0.779   6.720 -0.1553  0.0384  0.0542
 1161ERGO    R516704   5.590   0.605   6.774 -0.0673 -0.0591 -0.0206
 1161ERGO    C116705   5.415   0.873   6.982 -0.1936 -0.2360  0.1071
 1161ERGO    C216706   5.427   1.036   7.336 -0.0259  0.1053 -0.4405
 1162ERGO   ROH16707  17.010   7.012   6.503 -0.2110  0.0634  0.0392
 1162ERGO    R116708  17.034   6.971   6.782 -0.1087  0.1523  0.0434
 1162ERGO    R216709  17.224   6.803   6.891 -0.2794 -0.0673  0.0060
 1162ERGO    R316710  17.291   7.024   7.035  0.1147 -0.0926 -0.1261
 1162ERGO    R416711  17.341   6.799   7.216 -0.2292 -0.0841 -0.0120
 1162ERGO    R516712  17.218   6.974   7.257  0.0663  0.1496 -0.0844
 1162ERGO    C116713  17.472   7.003   7.541  0.1699 -0.1178 -0.1464
 1162ERGO    C216714  17.586   7.069   7.948 -0.1196  0.2813  0.1999
 1163ERGO   ROH16715   9.426  14.082   6.670 -0.1445  0.0132  0.0397
 1163ERGO    R116716   9.309  14.193   6.902 -0.0510  0.1040  0.0448
 1163ERGO    R216717   9.345  14.084   7.153 -0.1297  0.0705  0.0445
 1163ERGO    R316718   9.426  14.336   7.215  0.0732  0.0067  0.0421
 1163ERGO    R416719   9.399  14.200   7.474 -0.2251  0.0937  0.0524
 1163ERGO    R516720   9.307  14.389   7.416 -0.0044  0.1691 -0.0488
 1163ERGO    C116721   9.507  14.504   7.720 -0.0902  0.0474  0.0548
 1163ERGO    C216722   9.724  14.491   7.978 -0.2595  0.1848 -0.1156
 1164ERGO   ROH16723   6.805   5.997   6.650  0.1742  0.0303 -0.0998
 1164ERGO    R116724   6.819   5.724   6.726  0.3689  0.0078 -0.2076
 1164ERGO    R216725   7.051   5.609   6.825  0.3290  0.2612  0.2132
 1164ERGO    R316726   6.889   5.538   7.031 -0.0170 -0.0457 -0.1470
 1164ERGO    R416727   7.102   5.336   7.031  0.4817  0.4352  0.4080
 1164ERGO    R516728   6.887   5.299   7.026  0.5555 -0.0658 -0.0983
 1164ERGO    C116729   6.980   5.111   7.345  0.2458  0.2483  0.1834
 1164ERGO    C216730   7.214   4.866   7.472 -0.1828 -0.1590 -0.1093
 1165ERGO   ROH16731  14.780  10.522   6.435 -0.2008 -0.2413  0.1178
 1165ERGO    R116732  14.876  10.477   6.697 -0.0416 -0.0012  0.1049
 1165ERGO    R216733  15.031  10.662   6.833 -0.1698  0.2382 -0.0562
 1165ERGO    R316734  14.839  10.635   7.023 -0.0687  0.1404  0.0322
 1165ERGO    R416735  15.091  10.639   7.173 -0.0051  0.0763 -0.0950
 1165ERGO    R516736  14.936  10.487   7.185  0.0122  0.0698 -0.0870
 1165ERGO    C116737  14.946  10.601   7.549  0.1855 -0.1098 -0.0347
 1165ERGO    C216738  15.165  10.795   7.834  0.1384  0.1642 -0.3247
 1166ERGO   ROH16739   1.838  12.454   6.510 -0.0814  0.0270  0.1387
 1166ERGO    R116740   1.778  12.271   6.717 -0.3133  0.0224  0.0704
 1166ERGO    R216741   1.917  12.266   6.956 -0.1864 -0.3670 -0.0043
 1166ERGO    R316742   1.669  12.291   7.064 -0.0899  0.0441  0.1413
 1166ERGO    R416743   1.842  12.228   7.291 -0.0570 -0.2612  0.0372
 1166ERGO    R516744   1.660  12.123   7.234 -0.2729  0.0438  0.1342
 1166ERGO    C116745   1.566  12.229   7.588  0.1089  0.1864  0.1981
 1166ERGO    C216746   1.445  12.194   7.898 -0.3487 -0.0722 -0.1223
 1167ERGO   ROH16747   9.684  14.909   6.437  0.0096  0.0828 -0.1351
 1167ERGO    R116748   9.884  14.921   6.637  0.0844  0.0475 -0.2065
 1167ERGO    R216749  10.126  15.048   6.598 -0.0185  0.2530 -0.1981
 1167ERGO    R316750  10.056  15.182   6.823 -0.0219  0.0079 -0.0507
 1167ERGO    R416751  10.347  15.154   6.841 -0.0079  0.0819 -0.1328
 1167ERGO    R516752  10.202  15.095   6.992  0.0372 -0.1147 -0.1629
 1167ERGO    C116753  10.410  15.342   7.195 -0.0051 -0.2477  0.0437
 1167ERGO    C216754  10.608  15.590   7.182 -0.2991 -0.0311  0.2697
 1168ERGO   ROH16755   6.370   8.911   6.884  0.0514 -0.0726  0.0378
 1168ERGO    R116756   6.471   9.004   7.131  0.0233 -0.0665  0.0467
 1168ERGO    R216757   6.319   9.012   7.361  0.0336 -0.1754  0.0561
 1168ERGO    R316758   6.524   8.866   7.464  0.1076 -0.0970  0.0215
 1168ERGO    R416759   6.346   8.916   7.692  0.0188 -0.3394  0.0110
 1168ERGO    R516760   6.560   8.959   7.682 -0.0052 -0.1912  0.0827
 1168ERGO    C116761   6.554   8.723   7.981  0.0797 -0.3614 -0.0479
 1168ERGO    C216762   6.569   8.758   8.321 -0.0922  0.2813 -0.0697
 1169ERGO   ROH16763   5.123  15.938   6.322  0.0797  0.1203 -0.0088
 1169ERGO    R116764   4.985  16.007   6.560 -0.0078 -0.0040 -0.0232
 1169ERGO    R216765   4.841  15.822   6.707  0.0618 -0.1126 -0.0933
 1169ERGO    R316766   4.998  15.909   6.910 -0.0296 -0.0694 -0.0399
 1169ERGO    R416767   4.765  15.792   7.043 -0.1859  0.1354 -0.1227
 1169ERGO    R516768   4.844  15.992   7.074 -0.1007  0.1153 -0.1948
 1169ERGO    C116769   4.869  15.856   7.429 -0.4159  0.3203 -0.0897
 1169ERGO    C216770   4.994  15.931   7.748 -0.2225 -0.1067  0.5529
 1170ERGO   ROH16771  16.759  14.421   6.953 -0.3967  0.0099 -0.0141
 1170ERGO    R116772  16.651  14.382   7.212 -0.1280  0.0222  0.1036
 1170ERGO    R216773  16.381  14.341   7.257 -0.1103  0.1620  0.4024
 1170ERGO    R316774  16.470  14.119   7.385 -0.0795  0.0894  0.2543
 1170ERGO    R416775  16.230  14.197   7.532 -0.0901 -0.0626  0.2968
 1170ERGO    R516776  16.427  14.161   7.616 -0.0950 -0.0855  0.2793
 1170ERGO    C116777  16.224  13.904   7.812 -0.0492 -0.2616  0.0963
 1170ERGO    C216778  16.095  13.824   8.013  0.4833 -0.2081 -0.1677
 1171ERGO   ROH16779  17.011   4.691   6.398  0.1133  0.0494  0.1495
 1171ERGO    R116780  16.870   4.720   6.642  0.0965  0.0516  0.1405
 1171ERGO    R216781  16.801   4.505   6.801  0.0585  0.0480  0.1255
 1171ERGO    R316782  16.931   4.647   6.993  0.0618  0.0239  0.1398
 1171ERGO    R416783  16.745   4.476   7.141 -0.0140  0.0943  0.1170
 1171ERGO    R516784  16.763   4.692   7.158  0.0463  0.0870  0.1034
 1171ERGO    C116785  16.834   4.592   7.519 -0.0532  0.0986  0.1254
 1171ERGO    C216786  16.833   4.381   7.810 -0.1367  0.1569 -0.0312
 1172ERGO   ROH16787  11.534  17.132   6.534 -0.0737 -0.1971 -0.2253
 1172ERGO    R116788  11.551  16.949   6.750 -0.2117 -0.1266 -0.1544
 1172ERGO    R216789  11.717  16.990   6.967 -0.0145 -0.2722 -0.2804
 1172ERGO    R316790  11.488  16.957   7.108  0.0198  0.1302 -0.1142
 1172ERGO    R416791  11.700  16.882   7.295  0.0385 -0.3543 -0.3036
 1172ERGO    R516792  11.527  16.762   7.242 -0.2502 -0.0034 -0.2157
 1172ERGO    C116793  11.475  16.788   7.619  0.1016 -0.0244 -0.1611
 1172ERGO    C216794  11.403  16.596   7.987  0.0929 -0.2835 -0.0038
 1173ERGO   ROH16795   7.994   5.442   6.739  0.3368  0.5128 -0.0124
 1173ERGO    R116796   8.044   5.546   6.998  0.1193  0.2420  0.1437
 1173ERGO    R216797   7.851   5.553   7.195  0.0081 -0.1511  0.0565
 1173ERGO    R316798   8.039   5.419   7.339  0.0389 -0.1770 -0.0070
 1173ERGO    R416799   7.840   5.502   7.537  0.1186 -0.1495  0.0611
 1173ERGO    R516800   8.054   5.540   7.545  0.1266 -0.1791 -0.0119
 1173ERGO    C116801   8.010   5.347   7.871  0.2119 -0.1729  0.0041
 1173ERGO    C216802   8.089   5.321   8.178 -0.1632 -0.2896 -0.2499
 1174ERGO   ROH16803   3.825  17.859   5.772  0.0245  0.1169  0.0554
 1174ERGO    R116804   3.920  17.705   5.990 -0.0343  0.0834  0.0583
 1174ERGO    R216805   3.968  17.814   6.239 -0.0718  0.0523  0.0804
 1174ERGO    R316806   3.802  17.616   6.322 -0.1095  0.0610  0.0255
 1174ERGO    R416807   3.894  17.744   6.569 -0.0986 -0.0139  0.0602
 1174ERGO    R516808   3.905  17.531   6.521 -0.1331 -0.0041  0.0100
 1174ERGO    C116809   3.695  17.516   6.839 -0.1497 -0.0438 -0.0032
 1174ERGO    C216810   3.657  17.596   7.197 -0.2205 -0.0726  0.1766
 1175ERGO   ROH16811   1.557   2.714   9.789  0.1788 -0.0604 -0.1719
 1175ERGO    R116812   1.522   2.881   9.562  0.0826 -0.0506 -0.1498
 1175ERGO    R216813   1.723   2.927   9.379  0.0148 -0.0154 -0.2143
 1175ERGO    R316814   1.536   2.842   9.201 -0.0349 -0.0257 -0.1579
 1175ERGO    R416815   1.779   2.877   9.041 -0.1036  0.0666 -0.2471
 1175ERGO    R516816   1.584   2.964   9.001 -0.1428  0.0275 -0.1530
 1175ERGO    C116817   1.636   2.767   8.678 -0.2193  0.1046 -0.2133
 1175ERGO    C216818   1.672   2.757   8.393 -0.0597  0.0563  0.0747
 1176ERGO   ROH16819  17.047   3.189   9.458  0.0569 -0.0429  0.0229
 1176ERGO    R116820  17.205   3.206   9.224 -0.0642 -0.0516 -0.0608
 1176ERGO    R216821  17.112   3.129   8.975 -0.2666  0.1330 -0.0473
 1176ERGO    R316822  17.187   3.381   8.905 -0.1207  0.1121  0.0315
 1176ERGO    R416823  17.102   3.257   8.654 -0.0552  0.1974 -0.0291
 1176ERGO    R516824  17.293   3.355   8.692 -0.0310  0.1052  0.0786
 1176ERGO    C116825  17.167   3.567   8.401  0.2047  0.2154  0.0556
 1176ERGO    C216826  17.168   3.573   8.040  0.2008 -0.0842 -0.0048
 1177ERGO   ROH16827   4.937  16.466  10.031 -0.1700  0.0235 -0.0297
 1177ERGO    R116828   5.020  16.423   9.763  0.0047  0.1291  0.0056
 1177ERGO    R216829   4.905  16.232   9.601  0.2016  0.0988 -0.1046
 1177ERGO    R316830   4.868  16.443   9.433  0.1774  0.1173 -0.0754
 1177ERGO    R416831   4.884  16.209   9.256 -0.1182  0.1060 -0.0883
 1177ERGO    R516832   5.003  16.392   9.242 -0.0226  0.0346 -0.1964
 1177ERGO    C116833   4.837  16.394   8.899 -0.3272  0.1275 -0.0513
 1177ERGO    C216834   4.770  16.273   8.689  0.0337 -0.0373 -0.1989
 1178ERGO   ROH16835   2.315  14.670   6.574 -0.0173 -0.0162  0.1303
 1178ERGO    R116836   2.243  14.687   6.847 -0.0631 -0.0391  0.1204
 1178ERGO    R216837   2.339  14.512   7.038 -0.0349 -0.0106  0.1370
 1178ERGO    R316838   2.414  14.741   7.163 -0.1249  0.0146  0.1441
 1178ERGO    R416839   2.350  14.554   7.380  0.0275 -0.0400  0.1382
 1178ERGO    R516840   2.269  14.755   7.353 -0.0838 -0.0816  0.1806
 1178ERGO    C116841   2.427  14.794   7.698 -0.0207 -0.0335  0.1454
 1178ERGO    C216842   2.372  15.022   8.005 -0.0594 -0.2243 -0.0650
 1179ERGO   ROH16843   8.933   0.397  10.120 -0.0333 -0.0883  0.0126
 1179ERGO    R116844   8.977   0.287   9.863  0.0370 -0.0158 -0.0069
 1179ERGO    R216845   8.769   0.223   9.691  0.0757 -0.1205 -0.0171
 1179ERGO    R316846   8.906   0.383   9.519 -0.0275 -0.0002  0.0111
 1179ERGO    R416847   8.742   0.215   9.347  0.0316 -0.0229 -0.0166
 1179ERGO    R516848   8.957   0.242   9.333  0.0142  0.0853 -0.0409
 1179ERGO    C116849   8.854   0.360   8.985 -0.0911  0.1469  0.0102
 1179ERGO    C216850   8.810   0.351   8.646  0.2630 -0.0681 -0.0433
 1180ERGO   ROH16851  10.065  17.629   6.613 -0.0118 -0.2943  0.0111
 1180ERGO    R116852  10.038  17.507   6.866  0.1815 -0.1826  0.0881
 1180ERGO    R216853  10.204  17.567   7.078  0.0465  0.2697  0.0794
 1180ERGO    R316854   9.969  17.616   7.207 -0.0717 -0.0823  0.0063
 1180ERGO    R416855  10.139  17.486   7.408  0.0906  0.2427  0.0808
 1180ERGO    R516856   9.939  17.425   7.348  0.2030 -0.1012  0.0428
 1180ERGO    C116857   9.881  17.484   7.721  0.0054 -0.1033  0.0129
 1180ERGO    C216858   9.886  17.492   7.987 -0.2072 -0.0963 -0.5957
 1181ERGO   ROH16859   0.025   8.851   6.327  0.0525  0.1767 -0.0439
 1181ERGO    R116860  -0.013   9.019   6.552 -0.1651  0.0514  0.0149
 1181ERGO    R216861  -0.165   8.943   6.770  0.0170 -0.2671  0.0341
 1181ERGO    R316862   0.062   9.005   6.908 -0.0417  0.0699 -0.0096
 1181ERGO    R416863  -0.151   9.006   7.110  0.0351 -0.5774  0.0948
 1181ERGO    R516864  -0.010   9.167   7.070 -0.3135 -0.2322  0.1864
 1181ERGO    C116865   0.069   9.101   7.437 -0.0096 -0.4417  0.0891
 1181ERGO    C216866   0.190   9.105   7.805  0.4274  0.0655  0.1899
 1182ERGO   ROH16867  16.755  11.291   6.411  0.1299  0.0404  0.0099
 1182ERGO    R116868  16.709  11.204   6.676 -0.0182  0.1250  0.0140
 1182ERGO    R216869  16.864  11.010   6.798 -0.2130  0.0123  0.0938
 1182ERGO    R316870  16.896  11.200   6.989 -0.1057  0.0239  0.0643
 1182ERGO    R416871  16.946  10.948   7.128 -0.2287  0.0255  0.0997
 1182ERGO    R516872  16.804  11.102   7.187 -0.1442  0.1043  0.0834
 1182ERGO    C116873  17.023  11.090   7.499 -0.1371  0.0441  0.0754
 1182ERGO    C216874  17.134  11.116   7.803  0.4443 -0.0490 -0.0717
 1183ERGO   ROH16875  16.079   9.710   6.555  0.0667  0.0536  0.1168
 1183ERGO    R116876  16.189   9.659   6.811  0.0093 -0.0063  0.1296
 1183ERGO    R216877  16.379   9.824   6.926 -0.0073 -0.0417  0.2039
 1183ERGO    R316878  16.201   9.830   7.132 -0.0493 -0.0753  0.1694
 1183ERGO    R416879  16.464   9.821   7.261 -0.0557  0.2667  0.2218
 1183ERGO    R516880  16.296   9.686   7.297  0.0663  0.1260  0.2832
 1183ERGO    C116881  16.347   9.826   7.649 -0.1236  0.4147  0.1998
 1183ERGO    C216882  16.392   9.786   8.011  0.0644 -0.3154 -0.2497
 1184ERGO   ROH16883  11.800  14.121   6.533  0.0577  0.4598  0.0188
 1184ERGO    R116884  11.665  14.063   6.775 -0.0917  0.4840 -0.0592
 1184ERGO    R216885  11.789  13.945   6.991 -0.3473  0.0430 -0.1451
 1184ERGO    R316886  11.694  14.162   7.124  0.0360  0.1025  0.0420
 1184ERGO    R416887  11.805  13.991   7.333 -0.4066 -0.3597 -0.0819
 1184ERGO    R516888  11.604  14.073   7.327 -0.2409  0.0614 -0.0942
 1184ERGO    C116889  11.724  14.221   7.657 -0.0813 -0.5385  0.1306
 1184ERGO    C216890  11.607  14.229   7.994 -0.0617  0.1298 -0.0598
 1185ERGO   ROH16891  17.842  12.962   6.957  0.1162  0.0365  0.0317
 1185ERGO    R116892  17.642  12.866   7.133  0.0356 -0.1640 -0.1613
 1185ERGO    R216893  17.675  12.638   7.285  0.2341  0.0082  0.0779
 1185ERGO    R316894  17.612  12.805   7.491 -0.3348  0.0899 -0.1458
 1185ERGO    R416895  17.591  12.534   7.604  0.6095  0.1478  0.2265
 1185ERGO    R516896  17.437  12.689   7.609  0.0579 -0.3628  0.0128
 1185ERGO    C116897  17.483  12.629   7.983  0.2940  0.3059  0.1029
 1185ERGO    C216898  17.517  12.669   8.270  0.0597  0.1260  0.0088
 1186ERGO   ROH16899   9.991  11.830   6.597 -0.0577 -0.3982 -0.1256
 1186ERGO    R116900   9.955  11.773   6.872 -0.1275 -0.1509 -0.0807
 1186ERGO    R216901  10.061  11.548   6.992 -0.3930 -0.1902  0.0881
 1186ERGO    R316902  10.169  11.729   7.163 -0.1783 -0.1869 -0.0485
 1186ERGO    R416903  10.126  11.489   7.326 -0.4071 -0.0379  0.1182
 1186ERGO    R516904  10.055  11.691   7.370 -0.1909  0.0688 -0.0044
 1186ERGO    C116905  10.266  11.624   7.681 -0.2139  0.0539  0.0075
 1186ERGO    C216906  10.227  11.380   8.016 -0.2215  0.0872  0.0698
 1187ERGO   ROH16907   6.294   4.957   6.561  0.0976 -0.0105 -0.0895
 1187ERGO    R116908   6.179   4.986   6.818  0.0975  0.0359 -0.0943
 1187ERGO    R216909   5.996   4.806   6.920 -0.0694  0.1676 -0.1473
 1187ERGO    R316910   6.172   4.795   7.127 -0.0933 -0.0241 -0.1353
 1187ERGO    R416911   5.908   4.758   7.251 -0.1197  0.0792 -0.1734
 1187ERGO    R516912   6.058   4.906   7.307 -0.0391 -0.0349 -0.0977
 1187ERGO    C116913   6.021   4.720   7.638 -0.1714 -0.1523 -0.1775
 1187ERGO    C216914   6.171   4.695   7.925  0.1886 -0.0482  0.0302
 1188ERGO   ROH16915   8.406   2.572  10.027  0.0789 -0.0345  0.0535
 1188ERGO    R116916   8.502   2.617   9.764  0.0515 -0.1051  0.0312
 1188ERGO    R216917   8.565   2.411   9.591 -0.0007 -0.1507  0.0686
 1188ERGO    R316918   8.392   2.541   9.426 -0.0023 -0.1625  0.0606
 1188ERGO    R416919   8.580   2.406   9.246 -0.0015 -0.1800  0.0689
 1188ERGO    R516920   8.530   2.618   9.245 -0.0010 -0.1776  0.0531
 1188ERGO    C116921   8.428   2.525   8.889 -0.0035 -0.2081  0.0615
 1188ERGO    C216922   8.497   2.377   8.574 -0.1490 -0.1742  0.1088
 1189ERGO   ROH16923   5.447   6.644   6.727 -0.0562  0.1827  0.1185
 1189ERGO    R116924   5.393   6.740   6.987  0.0320  0.1114  0.1631
 1189ERGO    R216925   5.530   6.652   7.210  0.0221 -0.0415  0.1069
 1189ERGO    R316926   5.577   6.917   7.247  0.1597 -0.0769  0.2034
 1189ERGO    R416927   5.543   6.810   7.517  0.0438 -0.1489  0.1626
 1189ERGO    R516928   5.435   6.978   7.430  0.1528 -0.0600  0.1936
 1189ERGO    C116929   5.594   7.151   7.730  0.1856 -0.2447  0.2856
 1189ERGO    C216930   5.697   7.467   7.911  0.0023  0.0274  0.2427
 1190ERGO   ROH16931   3.769  16.883   8.186 -0.1673 -0.1926 -0.1662
 1190ERGO    R116932   3.527  16.969   8.067 -0.1447 -0.0377 -0.1024
 1190ERGO    R216933   3.409  17.211   8.127  0.0553  0.0621 -0.1112
 1190ERGO    R316934   3.420  17.247   7.858 -0.0098  0.0008 -0.1226
 1190ERGO    R416935   3.223  17.443   7.951  0.1170  0.1230 -0.0969
 1190ERGO    R516936   3.194  17.294   7.795 -0.0087  0.1038 -0.0592
 1190ERGO    C116937   3.125  17.611   7.595  0.0917  0.1011 -0.0992
 1190ERGO    C216938   2.972  17.873   7.322  0.0079  0.0361  0.1248
 1191ERGO   ROH16939   4.075  15.122   6.172 -0.1597 -0.0828 -0.0136
 1191ERGO    R116940   4.186  15.128   6.433 -0.1113  0.1296 -0.0375
 1191ERGO    R216941   4.114  15.317   6.620 -0.3285  0.0814 -0.0709
 1191ERGO    R316942   4.062  15.099   6.774 -0.0027  0.0441 -0.0044
 1191ERGO    R416943   4.023  15.328   6.954 -0.4689  0.0577 -0.1076
 1191ERGO    R516944   4.151  15.155   6.989 -0.1739  0.2903  0.0080
 1191ERGO    C116945   3.921  15.129   7.292 -0.2449  0.0088 -0.0664
 1191ERGO    C216946   3.694  15.052   7.493  0.3070  0.2871 -0.3171
 1192ERGO   ROH16947  11.203  15.833   6.440 -0.1266  0.1208  0.0742
 1192ERGO    R116948  11.191  15.715   6.697 -0.3350  0.0889  0.0510
 1192ERGO    R216949  11.305  15.833   6.920 -0.0161 -0.2083  0.0483
 1192ERGO    R316950  11.055  15.804   7.022 -0.0688  0.3318  0.1023
 1192ERGO    R416951  11.223  15.865   7.254  0.2037 -0.3472  0.1182
 1192ERGO    R516952  11.089  15.695   7.233 -0.2592  0.0078 -0.0222
 1192ERGO    C116953  10.941  15.858   7.545  0.2822  0.0790  0.2096
 1192ERGO    C216954  10.944  15.827   7.886 -0.1435  0.1781  0.1407
 1193ERGO   ROH16955   9.880   6.856   6.377 -0.2199  0.2805 -0.0382
 1193ERGO    R116956   9.871   6.769   6.647 -0.1136  0.1121 -0.0880
 1193ERGO    R216957  10.063   6.841   6.832 -0.0113 -0.0486 -0.1318
 1193ERGO    R316958   9.848   6.926   6.975  0.0740 -0.0893  0.0242
 1193ERGO    R416959  10.056   6.874   7.176  0.2645  0.0497 -0.1325
 1193ERGO    R516960   9.853   6.793   7.174  0.2922 -0.0293  0.0617
 1193ERGO    C116961   9.850   6.974   7.510  0.5053  0.0687  0.0135
 1193ERGO    C216962  10.046   7.073   7.818 -0.0029 -0.0874 -0.0482
 1194ERGO   ROH16963   0.233   5.073   6.311 -0.0898 -0.0282  0.2130
 1194ERGO    R116964   0.169   5.104   6.584  0.1262  0.1452  0.2470
 1194ERGO    R216965   0.098   4.892   6.746 -0.1973  0.3019  0.3209
 1194ERGO    R316966   0.300   4.985   6.903  0.0829 -0.0596  0.1896
 1194ERGO    R416967   0.110   4.864   7.090 -0.1361  0.4789  0.3337
 1194ERGO    R516968   0.190   5.067   7.099  0.3343  0.3129  0.1853
 1194ERGO    C116969   0.306   4.936   7.438  0.1626  0.2426  0.2177
 1194ERGO    C216970   0.217   4.810   7.665 -0.2716  0.2750 -0.0475
 1195ERGO   ROH16971   2.580   8.514   7.993 -0.2019 -0.2534 -0.2075
 1195ERGO    R116972   2.484   8.780   8.016 -0.0366 -0.2004 -0.0979
 1195ERGO    R216973   2.426   8.937   7.796 -0.0091 -0.0953 -0.0365
 1195ERGO    R316974   2.185   8.962   7.918  0.0422  0.0071  0.0440
 1195ERGO    R416975   2.189   9.175   7.718 -0.0975 -0.2435 -0.2237
 1195ERGO    R516976   2.148   9.198   7.930 -0.0035  0.0145 -0.2341
 1195ERGO    C116977   1.823   9.337   7.786 -0.1009 -0.2336 -0.2572
 1195ERGO    C216978   1.620   9.534   7.767  0.0681  0.1030  0.1374
 1196ERGO   ROH16979   2.950  17.649   6.135  0.0136 -0.1357 -0.1035
 1196ERGO    R116980   2.950  17.651   6.418  0.0883 -0.2461 -0.1021
 1196ERGO    R216981   2.766  17.794   6.566  0.3928  0.0519 -0.0001
 1196ERGO    R316982   2.719  17.554   6.683 -0.0382  0.0851 -0.0860
 1196ERGO    R416983   2.675  17.751   6.896  0.5731  0.0885  0.0553
 1196ERGO    R516984   2.808  17.578   6.904  0.2076 -0.2168 -0.1449
 1196ERGO    C116985   2.579  17.499   7.199  0.2735  0.1408  0.0068
 1196ERGO    C216986   2.631  17.487   7.628 -0.2788  0.2832 -0.0412
 1197ERGO   ROH16987  16.583  10.845   6.355  0.2184  0.0068 -0.3451
 1197ERGO    R116988  16.570  10.663   6.571  0.0223  0.0944 -0.2841
 1197ERGO    R216989  16.788  10.517   6.657 -0.0877  0.0530 -0.1001
 1197ERGO    R316990  16.727  10.628   6.897 -0.1903  0.1552 -0.1695
 1197ERGO    R416991  16.963  10.462   6.950 -0.3042  0.0175  0.0267
 1197ERGO    R516992  16.773  10.455   7.056 -0.3937  0.1556 -0.0941
 1197ERGO    C116993  17.008  10.534   7.346 -0.5267  0.0928  0.0352
 1197ERGO    C216994  17.297  10.548   7.639  0.0516  0.1446  0.0248
 1198ERGO   ROH16995  14.840  14.023   6.674  0.1861  0.0747 -0.0848
 1198ERGO    R116996  14.936  14.209   6.864  0.2085  0.0517 -0.0739
 1198ERGO    R216997  14.822  14.239   7.113  0.1279  0.1445 -0.1231
 1198ERGO    R316998  15.075  14.195   7.201  0.0730  0.0270 -0.0179
 1198ERGO    R416999  14.929  14.285   7.439  0.0485  0.2454 -0.1102
 1198ERGO    R517000  15.114  14.370   7.360  0.1304  0.0876 -0.0956
 1198ERGO    C117001  15.230  14.270   7.710 -0.0492  0.1939 -0.0040
 1198ERGO    C217002  15.177  14.337   8.077 -0.1025  0.0804  0.0985
 1199ERGO   ROH17003   7.102   1.792   9.905  0.1690  0.0345  0.1686
 1199ERGO    R117004   7.100   1.977   9.691 -0.1733 -0.0723  0.0741
 1199ERGO    R217005   7.310   2.001   9.513 -0.2119  0.2252  0.0700
 1199ERGO    R317006   7.114   1.961   9.328 -0.1428 -0.2288  0.0802
 1199ERGO    R417007   7.360   1.990   9.171 -0.1822  0.2033  0.0739
 1199ERGO    R517008   7.176   2.103   9.145 -0.4166 -0.1632  0.0304
 1199ERGO    C117009   7.206   1.946   8.799 -0.1001 -0.2356  0.0858
 1199ERGO    C217010   7.146   1.946   8.398 -0.0348 -0.4258  0.2723
 1200ERGO   ROH17011   6.799  17.754   6.299  0.2057 -0.0899  0.0419
 1200ERGO    R117012   6.780  17.832   6.570  0.0244  0.0520 -0.0098
 1200ERGO    R217013   6.577  17.992   6.665 -0.2292 -0.1743 -0.1648
 1200ERGO    R317014   6.542  17.788   6.842  0.0102 -0.1171 -0.0469
 1200ERGO    R417015   6.459  18.028   6.988 -0.3001 -0.1241 -0.1954
 1200ERGO    R517016   6.606  17.881   7.053 -0.1183  0.0922 -0.0947
 1200ERGO    C117017   6.359  17.858   7.342 -0.1168 -0.0410 -0.1025
 1200ERGO    C217018   6.131  18.020   7.535 -0.0009 -0.0099  0.0530
 1201ERGO   ROH17019  13.423   8.506   6.732 -0.3767  0.2079 -0.0341
 1201ERGO    R117020  13.374   8.619   6.987 -0.1407  0.0657  0.0787
 1201ERGO    R217021  13.398   8.474   7.221  0.1140 -0.0597 -0.0133
 1201ERGO    R317022  13.565   8.677   7.292  0.1585 -0.0741 -0.0803
 1201ERGO    R417023  13.469   8.567   7.546  0.0719  0.1032 -0.0504
 1201ERGO    R517024  13.461   8.776   7.483  0.1520  0.0649 -0.1619
 1201ERGO    C117025  13.668   8.812   7.802  0.0893  0.1846 -0.1349
 1201ERGO    C217026  13.784   9.053   8.054  0.0761 -0.1063  0.1416
 1202ERGO   ROH17027   4.373  10.980   6.659 -0.0171  0.1626 -0.0182
 1202ERGO    R117028   4.187  10.895   6.855  0.0259 -0.0030 -0.0468
 1202ERGO    R217029   4.237  10.683   7.024  0.1665  0.0045 -0.0717
 1202ERGO    R317030   4.181  10.865   7.218  0.0173 -0.0609 -0.0527
 1202ERGO    R417031   4.298  10.637   7.361  0.0952 -0.0177 -0.0619
 1202ERGO    R517032   4.106  10.733   7.404  0.0363 -0.1285 -0.0969
 1202ERGO    C117033   4.281  10.782   7.739 -0.0864 -0.0921 -0.0384
 1202ERGO    C217034   4.192  10.749   7.987  0.0660  0.1522 -0.1227
 1203ERGO   ROH17035  10.296  14.062   6.701  0.1273 -0.0399  0.0081
 1203ERGO    R117036  10.302  14.147   6.971 -0.1096 -0.0819  0.0289
 1203ERGO    R217037  10.259  13.974   7.182 -0.0398 -0.1681 -0.0287
 1203ERGO    R317038  10.498  14.070   7.267 -0.1858  0.0739  0.1219
 1203ERGO    R417039  10.373  13.959   7.508 -0.1341 -0.2737 -0.0000
 1203ERGO    R517040  10.453  14.160   7.484 -0.3788 -0.1476  0.1797
 1203ERGO    C117041  10.665  14.040   7.777 -0.3263 -0.1079  0.1580
 1203ERGO    C217042  11.004  14.110   8.080 -0.0872  0.2129 -0.0112
 1204ERGO   ROH17043  13.202  15.097   6.530 -0.0149 -0.0661  0.0847
 1204ERGO    R117044  13.060  15.176   6.762  0.0142 -0.0694  0.1038
 1204ERGO    R217045  12.892  15.004   6.899  0.0843 -0.0917  0.1618
 1204ERGO    R317046  13.047  15.073   7.111  0.1109 -0.0257  0.1211
 1204ERGO    R417047  12.837  14.904   7.225  0.2080 -0.1181  0.1746
 1204ERGO    R517048  12.892  15.104   7.291  0.1411 -0.0924  0.1608
 1204ERGO    C117049  12.950  14.910   7.614  0.3053 -0.0716  0.1440
 1204ERGO    C217050  13.108  15.045   7.969 -0.1981  0.3943 -0.0610
 1205ERGO   ROH17051   0.380   8.331   7.990 -0.1214 -0.0550  0.0322
 1205ERGO    R117052   0.429   8.558   8.152  0.3030 -0.1198  0.0041
 1205ERGO    R217053   0.246   8.650   8.338  0.3214  0.4350 -0.2446
 1205ERGO    R317054   0.457   8.627   8.508  0.0762 -0.0723  0.0172
 1205ERGO    R417055   0.242   8.743   8.671  0.1328  0.5079 -0.2647
 1205ERGO    R517056   0.444   8.823   8.646  0.3897  0.0054 -0.0419
 1205ERGO    C117057   0.438   8.776   9.024 -0.2072  0.0741 -0.0306
 1205ERGO    C217058   0.365   8.759   9.334  0.0279  0.0651 -0.0598
 1206ERGO   ROH17059   1.571   4.738   6.257  0.1332  0.0254  0.0205
 1206ERGO    R117060   1.524   4.707   6.534 -0.1723 -0.0463 -0.0383
 1206ERGO    R217061   1.651   4.861   6.724 -0.0253 -0.4150  0.1545
 1206ERGO    R317062   1.397   4.914   6.806  0.0014  0.0505 -0.0251
 1206ERGO    R417063   1.561   4.936   7.050 -0.1245 -0.4461  0.1366
 1206ERGO    R517064   1.383   4.812   7.023 -0.3741 -0.0778 -0.0935
 1206ERGO    C117065   1.270   5.029   7.316 -0.1572 -0.0271 -0.0424
 1206ERGO    C217066   1.437   5.093   7.624 -0.0411  0.0226 -0.0868
 1207ERGO   ROH17067   7.887   0.736  10.001 -0.0574  0.1076 -0.0528
 1207ERGO    R117068   7.987   0.806   9.746 -0.0428 -0.0059 -0.0782
 1207ERGO    R217069   8.018   0.621   9.543 -0.2240 -0.0582 -0.0581
 1207ERGO    R317070   7.865   0.797   9.403 -0.1061  0.0465 -0.0580
 1207ERGO    R417071   7.933   0.587   9.210 -0.3834 -0.0923 -0.0150
 1207ERGO    R517072   7.964   0.801   9.185 -0.1809 -0.1269 -0.0990
 1207ERGO    C117073   7.740   0.732   8.884 -0.3654 -0.0139  0.0101
 1207ERGO    C217074   7.789   0.662   8.561  0.0128  0.0899 -0.1843
 1208ERGO   ROH17075  12.317  17.648   6.815  0.1801 -0.1773  0.1074
 1208ERGO    R117076  12.244  17.768   7.061  0.1465 -0.1280  0.0734
 1208ERGO    R217077  12.072  17.648   7.241  0.0900 -0.0739  0.0557
 1208ERGO    R317078  12.277  17.689   7.414  0.0594 -0.0784  0.0932
 1208ERGO    R417079  12.035  17.704   7.580  0.0357 -0.2195  0.0746
 1208ERGO    R517080  12.193  17.853   7.567 -0.0090 -0.1642  0.1500
 1208ERGO    C117081  12.206  17.775   7.940 -0.0247 -0.3086  0.1209
 1208ERGO    C217082  12.159  17.801   8.296  0.3168 -0.1523 -0.2535
 1209ERGO   ROH17083  17.328   5.835   6.426  0.2232  0.1477  0.0827
 1209ERGO    R117084  17.201   5.712   6.647  0.1738  0.0020 -0.0258
 1209ERGO    R217085  17.341   5.579   6.844  0.1507  0.0777  0.0425
 1209ERGO    R317086  17.206   5.747   7.009 -0.0980 -0.0619 -0.0136
 1209ERGO    R417087  17.233   5.498   7.162  0.1550 -0.0151  0.0206
 1209ERGO    R517088  17.048   5.606   7.121  0.0360 -0.2383 -0.0438
 1209ERGO    C117089  17.044   5.608   7.502 -0.0760 -0.2001 -0.0449
 1209ERGO    C217090  17.110   5.574   7.802 -0.3526 -0.2389 -0.4243
 1210ERGO   ROH17091   5.784  15.975   6.410  0.1788  0.0307  0.0158
 1210ERGO    R117092   5.931  16.129   6.596  0.1002 -0.0601  0.1552
 1210ERGO    R217093   5.898  16.402   6.622  0.3652 -0.0108 -0.0017
 1210ERGO    R317094   5.856  16.340   6.883 -0.0602  0.1357 -0.0280
 1210ERGO    R417095   5.981  16.605   6.889  0.4154 -0.0822  0.0378
 1210ERGO    R517096   6.047  16.428   6.997 -0.0300 -0.1778  0.1736
 1210ERGO    C117097   5.989  16.665   7.290  0.0452  0.0138  0.0362
 1210ERGO    C217098   6.046  16.798   7.626  0.2055 -0.1263  0.1065
 1211ERGO   ROH17099  17.177   4.260   9.897  0.1387 -0.0410  0.0057
 1211ERGO    R117100  17.323   4.471   9.778  0.0862 -0.0091 -0.0034
 1211ERGO    R217101  17.518   4.428   9.587  0.1060  0.0305  0.0045
 1211ERGO    R317102  17.370   4.605   9.443  0.0610 -0.0201 -0.0107
 1211ERGO    R417103  17.615   4.568   9.286  0.0926  0.0748  0.0211
 1211ERGO    R517104  17.531   4.758   9.353  0.0152  0.0410  0.0140
 1211ERGO    C117105  17.533   4.815   8.976  0.0426  0.0531  0.0165
 1211ERGO    C217106  17.690   4.886   8.688 -0.0412  0.2051 -0.2801
 1212ERGO   ROH17107  15.834   5.457  10.265  0.2241  0.2691 -0.0517
 1212ERGO    R117108  15.705   5.422  10.016  0.0354  0.2877  0.0432
 1212ERGO    R217109  15.598   5.632   9.872  0.2489  0.3447 -0.0253
 1212ERGO    R317110  15.755   5.534   9.674  0.0023 -0.0007 -0.0608
 1212ERGO    R417111  15.534   5.666   9.534  0.1640  0.3549 -0.0095
 1212ERGO    R517112  15.601   5.461   9.506 -0.2066  0.2155  0.0249
 1212ERGO    C117113  15.645   5.593   9.151 -0.1170  0.0365 -0.0336
 1212ERGO    C217114  15.639   5.665   8.788  0.2326 -0.2655 -0.1599
 1213ERGO   ROH17115   3.666  13.926   6.671  0.4129  0.1663 -0.0647
 1213ERGO    R117116   3.564  13.900   6.934  0.2068  0.2321 -0.1367
 1213ERGO    R217117   3.714  13.798   7.143 -0.0360  0.0510 -0.0470
 1213ERGO    R317118   3.645  14.032   7.263  0.1168  0.1056 -0.0626
 1213ERGO    R417119   3.710  13.852   7.484 -0.0868  0.0471 -0.0465
 1213ERGO    R517120   3.526  13.966   7.460  0.0084  0.1954 -0.0957
 1213ERGO    C117121   3.644  14.103   7.796  0.0270  0.0961 -0.0608
 1213ERGO    C217122   3.676  14.139   8.203 -0.0781  0.0047  0.0587
 1214ERGO   ROH17123   9.898   2.388   9.809 -0.2409 -0.0474  0.0688
 1214ERGO    R117124   9.960   2.504   9.558 -0.1732 -0.0146  0.1014
 1214ERGO    R217125  10.028   2.353   9.337 -0.0421  0.0195  0.1222
 1214ERGO    R317126   9.825   2.490   9.220 -0.0333 -0.0305  0.0446
 1214ERGO    R417127   9.951   2.343   9.000 -0.0086 -0.1249  0.1171
 1214ERGO    R517128   9.913   2.558   9.008 -0.0114 -0.1190  0.0230
 1214ERGO    C117129   9.716   2.467   8.694  0.0192 -0.2559  0.0413
 1214ERGO    C217130   9.752   2.424   8.359  0.0612  0.0930  0.2550
 1215ERGO   ROH17131   8.390  12.838   6.783 -0.2557 -0.1023 -0.0281
 1215ERGO    R117132   8.463  12.626   6.955 -0.2671 -0.1541 -0.0884
 1215ERGO    R217133   8.602  12.667   7.191 -0.1523 -0.2421 -0.1475
 1215ERGO    R317134   8.394  12.530   7.300 -0.1564 -0.1770 -0.0702
 1215ERGO    R417135   8.618  12.484   7.484 -0.0359 -0.4041 -0.2519
 1215ERGO    R517136   8.493  12.332   7.389 -0.1982 -0.2864 -0.2480
 1215ERGO    C117137   8.431  12.250   7.757  0.0279 -0.4372 -0.2401
 1215ERGO    C217138   8.501  11.956   7.868  0.0853  0.0434  0.0329
 1216ERGO   ROH17139  11.786  13.223  10.537  0.1493  0.1328 -0.1153
 1216ERGO    R117140  11.803  13.129  10.270  0.2343  0.2398 -0.1478
 1216ERGO    R217141  11.581  13.102  10.108  0.2197 -0.1416 -0.0689
 1216ERGO    R317142  11.726  13.258   9.939 -0.1392  0.1924 -0.0849
 1216ERGO    R417143  11.566  13.086   9.763  0.2206 -0.1815 -0.0679
 1216ERGO    R517144  11.782  13.112   9.757  0.1750  0.3078 -0.0884
 1216ERGO    C117145  11.693  13.223   9.404 -0.1161  0.1089 -0.0822
 1216ERGO    C217146  11.777  13.135   9.100  0.1234 -0.0388  0.0438
 1217ERGO   ROH17147  10.877   9.350   6.220  0.1533  0.1115  0.0318
 1217ERGO    R117148  10.770   9.258   6.465  0.0926  0.1755  0.0305
 1217ERGO    R217149  10.901   9.074   6.624 -0.1049 -0.0479 -0.0563
 1217ERGO    R317150  10.869   9.264   6.815  0.1923 -0.0584  0.0081
 1217ERGO    R417151  10.914   9.015   6.964 -0.1984 -0.1858 -0.0763
 1217ERGO    R517152  10.747   9.153   6.989  0.0148  0.0713 -0.0319
 1217ERGO    C117153  10.891   9.160   7.342  0.0262 -0.2762 -0.0274
 1217ERGO    C217154  10.940   9.091   7.706 -0.2163 -0.1599 -0.1526
 1218ERGO   ROH17155  15.983   1.053   6.593  0.0927 -0.5981 -0.1016
 1218ERGO    R117156  16.090   0.901   6.807  0.1915 -0.3379  0.0385
 1218ERGO    R217157  16.261   1.009   6.995  0.0808 -0.0424 -0.0243
 1218ERGO    R317158  16.078   0.911   7.170  0.1378 -0.0503  0.0311
 1218ERGO    R417159  16.212   1.127   7.317 -0.0219  0.1435 -0.1061
 1218ERGO    R517160  16.188   0.920   7.383  0.1174  0.1713  0.0333
 1218ERGO    C117161  16.012   1.102   7.668 -0.0284  0.2445 -0.1018
 1218ERGO    C217162  15.942   1.085   8.023  0.1111  0.1505 -0.2916
 1219ERGO   ROH17163   7.938   9.103   6.477 -0.0614 -0.0360  0.0430
 1219ERGO    R117164   7.803   9.130   6.725 -0.0255  0.0430  0.0547
 1219ERGO    R217165   7.818   8.939   6.924 -0.1149  0.0383  0.0594
 1219ERGO    R317166   7.896   9.150   7.076  0.0156 -0.0028  0.0451
 1219ERGO    R417167   7.880   8.926   7.264 -0.0294  0.0046  0.0423
 1219ERGO    R517168   7.782   9.119   7.284  0.0612  0.0421  0.0737
 1219ERGO    C117169   7.990   9.117   7.604  0.1429 -0.0537  0.0190
 1219ERGO    C217170   8.128   9.393   7.898  0.2833 -0.0883  0.2681
 1220ERGO   ROH17171  11.730   9.178   6.437 -0.0925 -0.3469 -0.0020
 1220ERGO    R117172  11.713   9.183   6.719 -0.0269 -0.1163  0.0013
 1220ERGO    R217173  11.727   8.953   6.873 -0.1749 -0.0175  0.1745
 1220ERGO    R317174  11.927   9.089   6.998 -0.0345 -0.0742  0.0218
 1220ERGO    R417175  11.799   8.931   7.210 -0.0947  0.1679  0.1700
 1220ERGO    R517176  11.835   9.146   7.212  0.0676  0.1469  0.0092
 1220ERGO    C117177  12.028   9.045   7.524  0.0839  0.2227  0.0240
 1220ERGO    C217178  12.294   9.142   7.874 -0.2047  0.1713  0.3412
 1221ERGO   ROH17179   6.932  10.066   6.851  0.2314 -0.0480  0.1025
 1221ERGO    R117180   6.807  10.095   7.103  0.1983  0.0241  0.0777
 1221ERGO    R217181   6.750   9.880   7.267  0.0337  0.0552  0.0618
 1221ERGO    R317182   6.890  10.024   7.450  0.0851 -0.0338  0.0939
 1221ERGO    R417183   6.717   9.850   7.610 -0.1837  0.1875  0.0546
 1221ERGO    R517184   6.733  10.067   7.626  0.0304  0.1793 -0.0022
 1221ERGO    C117185   6.829   9.967   7.981 -0.2622  0.1809  0.0804
 1221ERGO    C217186   6.849   9.822   8.291 -0.0498 -0.0033 -0.0649
 1222ERGO   ROH17187   5.309  17.280   6.139  0.0308  0.0880 -0.2481
 1222ERGO    R117188   5.136  17.413   6.319 -0.0261  0.0401 -0.2687
 1222ERGO    R217189   4.883  17.320   6.378  0.0553 -0.1142 -0.1796
 1222ERGO    R317190   4.972  17.336   6.635  0.0924  0.0570 -0.2011
 1222ERGO    R417191   4.683  17.293   6.660  0.1611 -0.4655 -0.1322
 1222ERGO    R517192   4.799  17.454   6.751 -0.1005 -0.2455 -0.1659
 1222ERGO    C117193   4.651  17.293   7.064  0.2577 -0.5094 -0.1248
 1222ERGO    C217194   4.416  17.375   7.328 -0.2971 -0.1726  0.2087
 1223ERGO   ROH17195  10.801  17.144  10.339  0.0164 -0.0633 -0.0081
 1223ERGO    R117196  10.950  17.086  10.106  0.0261  0.1172 -0.0481
 1223ERGO    R217197  10.845  16.941   9.895  0.1528 -0.0360 -0.0068
 1223ERGO    R317198  10.922  17.157   9.750 -0.1742  0.0594 -0.0455
 1223ERGO    R417199  10.883  16.944   9.552  0.3055 -0.0921  0.0085
 1223ERGO    R517200  11.062  17.066   9.578  0.0766  0.2488  0.0510
 1223ERGO    C117201  10.976  17.149   9.215  0.0875 -0.0354 -0.0190
 1223ERGO    C217202  11.049  17.087   8.846 -0.1091 -0.0539 -0.0149
 1224ERGO   ROH17203   1.639   0.510   6.038 -0.0491  0.0937  0.0443
 1224ERGO    R117204   1.603   0.354   6.272 -0.0538  0.0259 -0.0035
 1224ERGO    R217205   1.786   0.351   6.479 -0.0703 -0.0235 -0.0022
 1224ERGO    R317206   1.569   0.416   6.629 -0.0782 -0.0842  0.0167
 1224ERGO    R417207   1.784   0.374   6.823  0.0627  0.3139 -0.0195
 1224ERGO    R517208   1.588   0.279   6.824  0.1437  0.1162  0.1508
 1224ERGO    C117209   1.579   0.449   7.165  0.1328  0.4533 -0.0119
 1224ERGO    C217210   1.688   0.634   7.497 -0.2318  0.0746  0.0636
 1225ERGO   ROH17211   0.253   7.761   5.981  0.1903  0.0397  0.1878
 1225ERGO    R117212   0.166   7.766   6.250  0.0529 -0.0967  0.1482
 1225ERGO    R217213   0.049   7.548   6.373  0.1338 -0.2140  0.0288
 1225ERGO    R317214   0.245   7.588   6.557  0.0206 -0.1362  0.1323
 1225ERGO    R417215   0.046   7.422   6.695 -0.0545 -0.0767  0.0818
 1225ERGO    R517216   0.127   7.612   6.765 -0.1007 -0.0506  0.0512
 1225ERGO    C117217   0.228   7.386   7.055 -0.2704  0.0763  0.2098
 1225ERGO    C217218   0.371   7.356   7.436 -0.1499 -0.1257  0.0815
 1226ERGO   ROH17219   5.926   3.266   6.426 -0.0858  0.1329  0.0511
 1226ERGO    R117220   5.896   3.414   6.666  0.1278  0.0820  0.1130
 1226ERGO    R217221   5.652   3.445   6.791  0.1094  0.5934 -0.0120
 1226ERGO    R317222   5.787   3.347   7.006 -0.2339  0.1445  0.0116
 1226ERGO    R417223   5.558   3.492   7.121 -0.0521  0.4531 -0.0374
 1226ERGO    R517224   5.769   3.520   7.171 -0.0391  0.0215  0.1577
 1226ERGO    C117225   5.630   3.427   7.515 -0.4687 -0.0500 -0.0300
 1226ERGO    C217226   5.633   3.377   7.951 -0.2350  0.0715 -0.0131
 1227ERGO   ROH17227  12.261   7.692   6.959  0.0045  0.1383  0.0180
 1227ERGO    R117228  12.284   7.740   7.237 -0.0204  0.0675  0.0324
 1227ERGO    R217229  12.150   7.589   7.426 -0.0098 -0.0033 -0.0166
 1227ERGO    R317230  12.400   7.556   7.529 -0.0110  0.0068 -0.0097
 1227ERGO    R417231  12.236   7.641   7.757  0.0077  0.1155 -0.0391
 1227ERGO    R517232  12.422   7.732   7.689  0.0161  0.0662 -0.0796
 1227ERGO    C117233  12.521   7.640   8.046  0.0168  0.1941 -0.0459
 1227ERGO    C217234  12.344   7.778   8.298 -0.2006  0.1573 -0.0996
 1228ERGO   ROH17235   0.181   3.414   9.875  0.0481  0.0303 -0.0887
 1228ERGO    R117236   0.078   3.439   9.612  0.1423  0.1911 -0.1108
 1228ERGO    R217237   0.204   3.588   9.416  0.4277 -0.0170 -0.0854
 1228ERGO    R317238   0.189   3.355   9.276  0.0794  0.0001 -0.0866
 1228ERGO    R417239   0.254   3.559   9.075  0.4333 -0.0895 -0.0794
 1228ERGO    R517240   0.088   3.418   9.068  0.2032  0.1666 -0.1025
 1228ERGO    C117241   0.269   3.324   8.745  0.1096 -0.1158 -0.0771
 1228ERGO    C217242   0.243   3.160   8.416 -0.2235  0.0376  0.1238
 1229ERGO   ROH17243  14.585   8.065   6.508  0.1432 -0.0227  0.0183
 1229ERGO    R117244  14.584   7.890   6.731  0.0280  0.0075  0.0416
 1229ERGO    R217245  14.810   7.840   6.881 -0.0304 -0.0407  0.1099
 1229ERGO    R317246  14.650   7.917   7.088 -0.0639  0.0338  0.0575
 1229ERGO    R417247  14.885   7.795   7.215 -0.0770  0.0866  0.1388
 1229ERGO    R517248  14.676   7.742   7.250 -0.0826  0.0937  0.1276
 1229ERGO    C117249  14.779   7.840   7.604 -0.1358  0.2308  0.1064
 1229ERGO    C217250  14.932   7.731   7.920  0.0207  0.1146  0.2275
 1230ERGO   ROH17251   0.515  12.400   6.640  0.0127 -0.2776 -0.1513
 1230ERGO    R117252   0.484  12.414   6.921  0.1134  0.0370 -0.1508
 1230ERGO    R217253   0.396  12.199   7.072 -0.2563  0.3311  0.0715
 1230ERGO    R317254   0.625  12.244   7.210 -0.1239  0.0256 -0.0398
 1230ERGO    R417255   0.426  12.190   7.416 -0.1055  0.3206  0.0587
 1230ERGO    R517256   0.555  12.363   7.405  0.1326  0.1415 -0.0157
 1230ERGO    C117257   0.658  12.228   7.746  0.1066  0.0276 -0.0533
 1230ERGO    C217258   0.745  12.089   8.096  0.3030 -0.0527 -0.1254
 1231ERGO   ROH17259  12.594   7.750   6.553 -0.0280  0.0916  0.0448
 1231ERGO    R117260  12.755   7.759   6.786 -0.0739  0.1559  0.0737
 1231ERGO    R217261  12.689   7.912   7.007 -0.2464  0.0228  0.1133
 1231ERGO    R317262  12.716   7.675   7.138 -0.0570  0.0015  0.0401
 1231ERGO    R417263  12.776   7.879   7.340 -0.3745  0.0008  0.1455
 1231ERGO    R517264  12.901   7.709   7.285 -0.1625  0.1514  0.1438
 1231ERGO    C117265  12.851   7.637   7.656 -0.2713 -0.0320  0.0955
 1231ERGO    C217266  12.879   7.447   7.792  0.1452 -0.1324  0.1793
 1232ERGO   ROH17267  13.522   4.788   6.614 -0.3149  0.1144 -0.0662
 1232ERGO    R117268  13.503   4.841   6.892 -0.1780  0.1142 -0.0564
 1232ERGO    R217269  13.724   4.846   7.058 -0.0940  0.1314 -0.1691
 1232ERGO    R317270  13.630   5.093   7.122 -0.0802  0.1248 -0.1211
 1232ERGO    R417271  13.809   5.023   7.342 -0.1274  0.0477 -0.1061
 1232ERGO    R517272  13.602   5.087   7.359 -0.1244  0.0646 -0.1271
 1232ERGO    C117273  13.771   5.358   7.567 -0.1338 -0.0072 -0.0242
 1232ERGO    C217274  13.795   5.495   7.875 -0.1728  0.2681  0.0960
 1233ERGO   ROH17275   2.678  16.787   5.927  0.4549 -0.0625  0.0623
 1233ERGO    R117276   2.627  16.653   6.171  0.1580 -0.0216  0.0273
 1233ERGO    R217277   2.827  16.592   6.352 -0.0224 -0.2083  0.1711
 1233ERGO    R317278   2.666  16.725   6.526 -0.0269 -0.0619  0.0565
 1233ERGO    R417279   2.831  16.551   6.695 -0.0368  0.0772  0.2076
 1233ERGO    R517280   2.613  16.563   6.693 -0.0352  0.0784  0.1903
 1233ERGO    C117281   2.681  16.652   7.058 -0.0494  0.3809  0.1213
 1233ERGO    C217282   2.869  16.691   7.364  0.0064 -0.0182 -0.0366
 1234ERGO   ROH17283   9.325   8.986  10.386  0.3404  0.2004 -0.0496
 1234ERGO    R117284   9.412   8.965  10.117  0.0772  0.0711 -0.1273
 1234ERGO    R217285   9.367   8.739   9.964 -0.2842  0.0872 -0.0544
 1234ERGO    R317286   9.255   8.918   9.793 -0.2663  0.1701  0.0197
 1234ERGO    R417287   9.409   8.738   9.621 -0.3632  0.1676 -0.0649
 1234ERGO    R517288   9.423   8.955   9.627 -0.2925  0.1616 -0.0085
 1234ERGO    C117289   9.328   8.905   9.260 -0.3924  0.2921 -0.0014
 1234ERGO    C217290   9.164   8.862   8.953 -0.1475 -0.0874 -0.2299
 1235ERGO   ROH17291   0.706  14.112   6.695  0.0655 -0.0444  0.0326
 1235ERGO    R117292   0.838  14.090   6.945  0.2622  0.2627 -0.0386
 1235ERGO    R217293   0.875  14.306   7.113 -0.1223  0.3671 -0.0747
 1235ERGO    R317294   0.753  14.145   7.294  0.3321  0.0962  0.0046
 1235ERGO    R417295   0.829  14.384   7.446 -0.1928  0.3198 -0.0734
 1235ERGO    R517296   0.878  14.178   7.496  0.3318  0.4404 -0.0479
 1235ERGO    C117297   0.687  14.278   7.811  0.1927  0.0381  0.0017
 1235ERGO    C217298   0.493  14.431   8.083 -0.2878 -0.1248 -0.1853
 1236ERGO   ROH17299  12.088  10.917   8.052  0.0379  0.0152  0.0353
 1236ERGO    R117300  12.227  11.164   8.046 -0.0620  0.0721  0.0250
 1236ERGO    R217301  12.228  11.339   8.260  0.0149 -0.0005  0.0871
 1236ERGO    R317302  12.498  11.319   8.234  0.0060  0.1118 -0.1052
 1236ERGO    R417303  12.453  11.588   8.340 -0.0209  0.0300  0.0914
 1236ERGO    R517304  12.567  11.536   8.162 -0.1201  0.1815 -0.0168
 1236ERGO    C117305  12.838  11.715   8.363 -0.0503  0.1532 -0.0865
 1236ERGO    C217306  12.938  12.006   8.441 -0.0012 -0.0795 -0.3026
 1237ERGO   ROH17307   5.262   8.487   6.563  0.2318  0.0199 -0.0553
 1237ERGO    R117308   5.319   8.370   6.814  0.1580  0.1034  0.0017
 1237ERGO    R217309   5.394   8.520   7.034 -0.0324  0.1911  0.0127
 1237ERGO    R317310   5.185   8.391   7.152 -0.0330  0.1128 -0.0739
 1237ERGO    R417311   5.312   8.542   7.369 -0.0480 -0.0219  0.0239
 1237ERGO    R517312   5.268   8.328   7.367 -0.0425 -0.0201 -0.1104
 1237ERGO    C117313   5.068   8.434   7.675 -0.0576 -0.2195 -0.0508
 1237ERGO    C217314   5.025   8.522   8.038  0.1159 -0.3488 -0.0618
 1238ERGO   ROH17315  10.070   8.574   8.044  0.2112  0.2323  0.0665
 1238ERGO    R117316   9.787   8.564   8.037  0.2147  0.1105  0.0959
 1238ERGO    R217317   9.631   8.790   8.006  0.1141  0.0475  0.1591
 1238ERGO    R317318   9.525   8.649   7.798  0.1493  0.0446  0.1425
 1238ERGO    R417319   9.321   8.849   7.865  0.1647  0.0916  0.0652
 1238ERGO    R517320   9.292   8.633   7.850  0.1299  0.0928  0.0792
 1238ERGO    C117321   9.042   8.751   7.587  0.2271  0.1146 -0.0051
 1238ERGO    C217322   8.814   8.777   7.250 -0.0719 -0.3681  0.0184
 1239ERGO   ROH17323   8.656  17.165   6.809  0.1488 -0.0264  0.0285
 1239ERGO    R117324   8.635  17.014   7.047 -0.0278  0.0896  0.0875
 1239ERGO    R217325   8.855  16.939   7.195 -0.1202 -0.0649  0.1417
 1239ERGO    R317326   8.721  17.060   7.398 -0.0266  0.1462  0.0810
 1239ERGO    R417327   8.959  16.944   7.525 -0.2574 -0.2413  0.1900
 1239ERGO    R517328   8.751  16.914   7.585 -0.3432  0.0846  0.0937
 1239ERGO    C117329   8.893  17.062   7.907 -0.2494 -0.1458  0.1612
 1239ERGO    C217330   8.863  17.307   8.086  0.1136  0.2908 -0.3164
 1240ERGO   ROH17331   2.911  10.015   6.118 -0.2473 -0.1734 -0.1460
 1240ERGO    R117332   2.809   9.905   6.358 -0.0409 -0.1675 -0.0540
 1240ERGO    R217333   2.894   9.988   6.607 -0.0552  0.0650 -0.1270
 1240ERGO    R317334   2.628  10.027   6.649 -0.0917 -0.2252 -0.0599
 1240ERGO    R417335   2.753  10.078   6.910 -0.0026  0.4272 -0.2059
 1240ERGO    R517336   2.589   9.940   6.869  0.1560  0.1155  0.1320
 1240ERGO    C117337   2.421  10.168   7.125 -0.0061  0.3657 -0.1887
 1240ERGO    C217338   2.303  10.026   7.405  0.0546  0.0869 -0.0291
 1241ERGO   ROH17339   8.971  10.803   6.500  0.0171  0.1148  0.0946
 1241ERGO    R117340   9.078  10.783   6.762 -0.1593  0.0315  0.1615
 1241ERGO    R217341   9.217  10.991   6.882  0.0317 -0.1185  0.1963
 1241ERGO    R317342   9.033  10.955   7.079 -0.1288  0.1530  0.1021
 1241ERGO    R417343   9.258  11.090   7.210 -0.0736  0.0103  0.1721
 1241ERGO    R517344   9.163  10.904   7.273 -0.2913  0.1250  0.2098
 1241ERGO    C117345   9.110  11.114   7.587 -0.2856  0.3401  0.0695
 1241ERGO    C217346   9.099  11.173   7.867  0.1089  0.0467 -0.1854
 1242ERGO   ROH17347   8.860   2.327   6.208 -0.0807 -0.1634 -0.0963
 1242ERGO    R117348   8.793   2.373   6.479 -0.0804 -0.1544 -0.0973
 1242ERGO    R217349   8.736   2.167   6.655 -0.0077 -0.1551 -0.0698
 1242ERGO    R317350   8.932   2.284   6.804 -0.0339 -0.0770 -0.0968
 1242ERGO    R417351   8.746   2.171   7.000  0.0728 -0.1947 -0.0716
 1242ERGO    R517352   8.816   2.377   6.991 -0.0347 -0.1613 -0.0585
 1242ERGO    C117353   8.935   2.283   7.341  0.0950 -0.1445 -0.0980
 1242ERGO    C217354   9.065   2.363   7.703  0.0386 -0.0413  0.3219
 1243ERGO   ROH17355   4.280   8.161   6.329 -0.0861  0.0113  0.0432
 1243ERGO    R117356   4.311   8.258   6.593 -0.0952 -0.0159  0.0550
 1243ERGO    R217357   4.139   8.446   6.704 -0.0972 -0.0198  0.0682
 1243ERGO    R317358   4.114   8.258   6.899 -0.1106 -0.0423  0.0436
 1243ERGO    R417359   4.055   8.510   7.033  0.0207 -0.0518  0.1045
 1243ERGO    R517360   4.201   8.362   7.095 -0.0189 -0.1128  0.0368
 1243ERGO    C117361   3.982   8.372   7.407  0.0767 -0.0916  0.1026
 1243ERGO    C217362   3.802   8.423   7.698  0.1290  0.1890 -0.0517
 1244ERGO   ROH17363   4.385  14.683  10.363 -0.0551 -0.2067  0.1057
 1244ERGO    R117364   4.467  14.634  10.097 -0.0988 -0.3835  0.1245
 1244ERGO    R217365   4.344  14.447   9.935 -0.6554  0.0570  0.0149
 1244ERGO    R317366   4.317  14.658   9.766  0.0965  0.2217  0.0650
 1244ERGO    R417367   4.332  14.423   9.591 -0.6089  0.1903  0.0025
 1244ERGO    R517368   4.456  14.602   9.579  0.0005 -0.1897  0.1012
 1244ERGO    C117369   4.300  14.607   9.231  0.1240  0.4225  0.0425
 1244ERGO    C217370   4.207  14.538   8.939 -0.2451  0.2885 -0.2477
 1245ERGO   ROH17371   3.239  10.209   6.387  0.0875 -0.3264  0.0781
 1245ERGO    R117372   3.329  10.153   6.650  0.1497  0.0668  0.1493
 1245ERGO    R217373   3.315  10.338   6.855 -0.2874  0.2152  0.0090
 1245ERGO    R317374   3.181  10.139   6.982  0.0914  0.0230  0.1190
 1245ERGO    R417375   3.224  10.342   7.188 -0.4561  0.2984 -0.0385
 1245ERGO    R517376   3.278  10.132   7.201  0.0053  0.4254  0.1707
 1245ERGO    C117377   3.045  10.158   7.502 -0.1988  0.1665  0.0372
 1245ERGO    C217378   2.713  10.295   7.639  0.3517 -0.4310  0.1103
 1246ERGO   ROH17379  14.885   0.763   6.353  0.3169 -0.0346 -0.1018
 1246ERGO    R117380  14.928   0.661   6.614  0.0528 -0.0963 -0.0791
 1246ERGO    R217381  15.122   0.762   6.783  0.0096 -0.2585  0.0738
 1246ERGO    R317382  14.912   0.790   6.954 -0.0969 -0.1202 -0.0770
 1246ERGO    R417383  15.143   0.896   7.101 -0.1598 -0.1716  0.0494
 1246ERGO    R517384  15.004   0.742   7.169 -0.2684 -0.0919  0.0017
 1246ERGO    C117385  14.958   1.000   7.447 -0.3584  0.0089 -0.1064
 1246ERGO    C217386  15.052   1.248   7.769  0.0667 -0.0857  0.0063
 1247ERGO   ROH17387   0.627  17.846   6.398 -0.2807 -0.0185 -0.0146
 1247ERGO    R117388   0.761  17.840   6.647 -0.1924  0.0241 -0.0609
 1247ERGO    R217389   0.784  18.063   6.810 -0.2461  0.0191 -0.0500
 1247ERGO    R317390   0.674  17.898   6.996 -0.1006 -0.0508 -0.0243
 1247ERGO    R417391   0.768  18.129   7.149 -0.2769  0.0511 -0.0576
 1247ERGO    R517392   0.816  17.920   7.187 -0.1027  0.0903 -0.0355
 1247ERGO    C117393   0.655  18.013   7.520 -0.1583  0.0041 -0.0379
 1247ERGO    C217394   0.498  17.794   7.815  0.1527  0.1034 -0.0451
 1248ERGO   ROH17395   6.626  14.766   6.708  0.0709 -0.1705  0.0784
 1248ERGO    R117396   6.534  14.673   6.958  0.0094 -0.0520  0.1024
 1248ERGO    R217397   6.655  14.742   7.197 -0.0434  0.0601  0.1071
 1248ERGO    R317398   6.404  14.822   7.264 -0.0593  0.0989 -0.0019
 1248ERGO    R417399   6.534  14.759   7.520 -0.3133 -0.2699  0.0270
 1248ERGO    R517400   6.344  14.679   7.447 -0.2875 -0.0882 -0.2242
 1248ERGO    C117401   6.227  14.843   7.771 -0.4855 -0.4258 -0.1219
 1248ERGO    C217402   6.054  15.072   7.972  0.2409 -0.0192 -0.0556
 1249ERGO   ROH17403  17.178   2.816   9.829 -0.3033 -0.0507  0.0972
 1249ERGO    R117404  17.291   2.720   9.588 -0.1077  0.0944  0.1275
 1249ERGO    R217405  17.142   2.586   9.397  0.1174 -0.1119  0.0850
 1249ERGO    R317406  17.242   2.778   9.232 -0.0931  0.0264  0.1159
 1249ERGO    R417407  17.188   2.549   9.057  0.4974 -0.1326  0.1347
 1249ERGO    R517408  17.377   2.657   9.075  0.2806  0.2305  0.2721
 1249ERGO    C117409  17.308   2.707   8.703  0.5210 -0.0148  0.1924
 1249ERGO    C217410  17.320   2.806   8.335 -0.3177 -0.1498  0.0423
 1250ERGO   ROH17411  10.881   1.947   6.543  0.2088 -0.0614  0.0748
 1250ERGO    R117412  10.635   1.828   6.618  0.2171 -0.0780  0.0771
 1250ERGO    R217413  10.617   1.568   6.708  0.2357 -0.0794  0.0826
 1250ERGO    R317414  10.493   1.684   6.920  0.2290 -0.0824  0.0799
 1250ERGO    R417415  10.428   1.399   6.943  0.3373 -0.0982  0.1510
 1250ERGO    R517416  10.286   1.564   6.941  0.2772 -0.1524  0.1413
 1250ERGO    C117417  10.201   1.409   7.279  0.3901 -0.1119  0.1882
 1250ERGO    C217418  10.164   1.153   7.624 -0.1137  0.1320 -0.3189
 1251ERGO   ROH17419   1.868   3.606   6.518  0.1712  0.2884  0.0478
 1251ERGO    R117420   1.869   3.479   6.770  0.2459 -0.0646 -0.1229
 1251ERGO    R217421   2.099   3.380   6.887  0.3744  0.2279 -0.1070
 1251ERGO    R317422   2.022   3.536   7.095 -0.0872 -0.1971  0.0616
 1251ERGO    R417423   2.234   3.364   7.204  0.4725  0.3362 -0.1437
 1251ERGO    R517424   2.033   3.390   7.285  0.3869 -0.3602 -0.0807
 1251ERGO    C117425   2.241   3.502   7.585  0.0962  0.0002 -0.0069
 1251ERGO    C217426   2.396   3.663   7.787  0.1604  0.2973 -0.1355
 1252ERGO   ROH17427  12.316   6.783   6.739 -0.0949 -0.0302 -0.0377
 1252ERGO    R117428  12.230   6.570   6.904 -0.2727  0.0735  0.0050
 1252ERGO    R217429  12.400   6.438   7.078 -0.3048 -0.2335 -0.1960
 1252ERGO    R317430  12.211   6.503   7.262 -0.0188  0.0348  0.0143
 1252ERGO    R417431  12.358   6.280   7.382 -0.3624 -0.3749 -0.2755
 1252ERGO    R517432  12.142   6.293   7.354 -0.3761  0.0970 -0.0859
 1252ERGO    C117433  12.156   6.250   7.733 -0.1274 -0.2054 -0.1244
 1252ERGO    C217434  12.069   6.357   8.036  0.5236  0.0376 -0.3684
 1253ERGO   ROH17435  15.589   6.942   6.439 -0.2681 -0.0345  0.0031
 1253ERGO    R117436  15.693   7.103   6.648 -0.2468 -0.0273 -0.0139
 1253ERGO    R217437  15.738   7.006   6.902 -0.1852 -0.0271 -0.0285
 1253ERGO    R317438  15.989   7.103   6.860 -0.2044  0.0062 -0.0708
 1253ERGO    R417439  15.960   7.094   7.152 -0.0661 -0.2416 -0.0556
 1253ERGO    R517440  16.018   7.267   7.033 -0.1231 -0.1369  0.0580
 1253ERGO    C117441  16.324   7.236   7.259 -0.0148 -0.3352 -0.1111
 1253ERGO    C217442  16.305   7.034   7.645  0.0329 -0.2880 -0.1065
 1254ERGO   ROH17443  14.459   9.504   6.071  0.1938 -0.1470 -0.0276
 1254ERGO    R117444  14.444   9.483   6.353  0.2525 -0.2151 -0.0290
 1254ERGO    R217445  14.206   9.504   6.491  0.3274  0.1573  0.0577
 1254ERGO    R317446  14.281   9.264   6.593 -0.0552 -0.0168 -0.0521
 1254ERGO    R417447  14.151   9.403   6.817  0.4024  0.2032  0.0849
 1254ERGO    R517448  14.350   9.314   6.818  0.2349 -0.1916 -0.0987
 1254ERGO    C117449  14.189   9.118   7.103  0.0867  0.0665 -0.0024
 1254ERGO    C217450  13.893   9.127   7.197  0.2344 -0.1235 -0.4883
 1255ERGO   ROH17451  12.293  13.301   6.522  0.0394  0.1860  0.0222
 1255ERGO    R117452  12.256  13.092   6.709  0.0417  0.0805 -0.0954
 1255ERGO    R217453  12.369  13.096   6.962 -0.0166 -0.0269 -0.0699
 1255ERGO    R317454  12.112  13.056   7.041 -0.0257 -0.1256 -0.1449
 1255ERGO    R417455  12.275  12.969   7.269 -0.0602  0.2235  0.0233
 1255ERGO    R517456  12.120  12.853   7.168  0.0645  0.0072  0.0698
 1255ERGO    C117457  11.980  12.857   7.523 -0.0942  0.2766  0.0071
 1255ERGO    C217458  11.875  12.687   7.786  0.0686  0.0295  0.1033
 1256ERGO   ROH17459   8.678   3.132   9.839 -0.0997  0.1055  0.0470
 1256ERGO    R117460   8.722   3.304   9.618 -0.1228  0.0324 -0.0141
 1256ERGO    R217461   8.917   3.255   9.428 -0.1474 -0.0330 -0.0198
 1256ERGO    R317462   8.708   3.275   9.255 -0.1662 -0.0844 -0.0044
 1256ERGO    R417463   8.946   3.305   9.087 -0.1835  0.0432 -0.0121
 1256ERGO    R517464   8.777   3.442   9.098 -0.2397 -0.0251  0.0234
 1256ERGO    C117465   8.766   3.354   8.727 -0.2222  0.0394  0.0069
 1256ERGO    C217466   8.668   3.348   8.407  0.2961  0.1067  0.0130
 1257ERGO   ROH17467  15.172   2.144   6.080  0.2423  0.1747  0.1082
 1257ERGO    R117468  15.231   2.264   6.330  0.1677  0.1145  0.1561
 1257ERGO    R217469  15.050   2.424   6.465  0.1112  0.0494  0.1620
 1257ERGO    R317470  15.098   2.250   6.668  0.0928 -0.0016  0.1221
 1257ERGO    R417471  14.968   2.479   6.796  0.1708  0.0088  0.1830
 1257ERGO    R517472  15.158   2.389   6.853  0.1545 -0.0524  0.1403
 1257ERGO    C117473  14.965   2.347   7.179  0.1881 -0.0626  0.1578
 1257ERGO    C217474  14.799   2.327   7.493 -0.0011  0.0904  0.0838
 1258ERGO   ROH17475  13.923   0.843   6.451 -0.2317  0.2291  0.1017
 1258ERGO    R117476  13.882   0.984   6.692 -0.0455  0.1095  0.2053
 1258ERGO    R217477  13.749   0.873   6.908 -0.0475  0.0698  0.1802
 1258ERGO    R317478  13.976   0.944   7.042  0.0497 -0.1740  0.1505
 1258ERGO    R417479  13.772   0.914   7.251 -0.0002  0.1894  0.1640
 1258ERGO    R517480  13.899   1.088   7.217  0.2374  0.0095  0.0878
 1258ERGO    C117481  13.997   1.004   7.575  0.1186  0.0302  0.1265
 1258ERGO    C217482  14.004   1.121   7.862 -0.0246  0.1291  0.0365
 1259ERGO   ROH17483  10.336   4.554   6.546 -0.3429 -0.1044  0.0325
 1259ERGO    R117484  10.383   4.631   6.815 -0.1927 -0.1357  0.0160
 1259ERGO    R217485  10.179   4.669   6.997 -0.1003 -0.0184  0.0974
 1259ERGO    R317486  10.321   4.490   7.144 -0.1465 -0.1046  0.0382
 1259ERGO    R417487  10.143   4.621   7.337  0.0301  0.0224  0.1173
 1259ERGO    R517488  10.360   4.602   7.352  0.0262 -0.1188  0.0150
 1259ERGO    C117489  10.256   4.425   7.674  0.0628 -0.0347  0.0733
 1259ERGO    C217490  10.217   4.240   7.978  0.2703 -0.1679 -0.0886
 1260ERGO   ROH17491   4.124   5.303   6.387 -0.2734 -0.2658  0.0406
 1260ERGO    R117492   4.195   5.291   6.661 -0.1004 -0.1948  0.0005
 1260ERGO    R217493   4.119   5.486   6.843  0.0564 -0.1234 -0.0117
 1260ERGO    R317494   4.018   5.273   6.979  0.0991 -0.0598  0.1218
 1260ERGO    R417495   4.092   5.467   7.187 -0.0189  0.1252 -0.0020
 1260ERGO    R517496   4.154   5.258   7.175  0.0591  0.1358  0.1684
 1260ERGO    C117497   3.981   5.257   7.515 -0.0228  0.3298  0.1291
 1260ERGO    C217498   3.826   5.325   7.840  0.1058 -0.0300  0.0402
 1261ERGO   ROH17499  15.399   2.465  10.060  0.0915  0.0656  0.1518
 1261ERGO    R117500  15.368   2.340   9.808 -0.0328  0.1161  0.1403
 1261ERGO    R217501  15.208   2.444   9.609 -0.0767  0.1945  0.2117
 1261ERGO    R317502  15.435   2.425   9.461 -0.1332  0.1577  0.1315
 1261ERGO    R417503  15.217   2.390   9.268 -0.2108  0.4013  0.1748
 1261ERGO    R517504  15.385   2.256   9.298 -0.2776  0.2867  0.0402
 1261ERGO    C117505  15.435   2.340   8.930 -0.3418  0.4871  0.0778
 1261ERGO    C217506  15.415   2.401   8.686  0.1428 -0.2023  0.0632
 1262ERGO   ROH17507   5.009   4.736   6.495  0.0942 -0.0117 -0.1353
 1262ERGO    R117508   5.073   4.745   6.771  0.0389 -0.0744 -0.1207
 1262ERGO    R217509   4.914   4.876   6.956  0.0298 -0.0749 -0.1327
 1262ERGO    R317510   4.918   4.635   7.082 -0.0477 -0.0970 -0.1704
 1262ERGO    R417511   4.827   4.824   7.286  0.0621 -0.0834 -0.1252
 1262ERGO    R517512   4.994   4.685   7.303  0.0112 -0.1570 -0.1739
 1262ERGO    C117513   4.781   4.568   7.597  0.0082 -0.1090 -0.1562
 1262ERGO    C217514   4.554   4.520   7.859 -0.0767  0.0162  0.2388
 1263ERGO   ROH17515  15.215   4.330   6.351  0.1356  0.2201 -0.0526
 1263ERGO    R117516  15.299   4.502   6.560 -0.0471  0.1656  0.0678
 1263ERGO    R217517  15.121   4.617   6.737 -0.1921  0.0151  0.0264
 1263ERGO    R317518  15.283   4.503   6.923 -0.2426 -0.0001  0.0607
 1263ERGO    R417519  15.091   4.661   7.079 -0.2613  0.0079  0.0212
 1263ERGO    R517520  15.308   4.672   7.092 -0.2661 -0.0086  0.0700
 1263ERGO    C117521  15.225   4.579   7.452 -0.3491 -0.0105  0.0503
 1263ERGO    C217522  15.227   4.461   7.833 -0.3789 -0.0721 -0.0027
 1264ERGO   ROH17523   9.304   9.460  10.229  0.3025 -0.1270 -0.0923
 1264ERGO    R117524   9.248   9.346   9.975  0.5260 -0.0900 -0.1606
 1264ERGO    R217525   9.079   9.467   9.792  0.0236 -0.4474  0.0391
 1264ERGO    R317526   9.294   9.441   9.627  0.0433  0.3839 -0.1075
 1264ERGO    R417527   9.060   9.415   9.451 -0.0149 -0.6638  0.0721
 1264ERGO    R517528   9.227   9.275   9.468  0.6109  0.0162  0.0116
 1264ERGO    C117529   9.251   9.361   9.098 -0.0187 -0.0096 -0.0463
 1264ERGO    C217530   9.128   9.385   8.824  0.2966  0.2448  0.0466
 1265ERGO   ROH17531   0.650   3.341   9.855 -0.0067 -0.2979  0.0408
 1265ERGO    R117532   0.533   3.298   9.601 -0.1083 -0.1712  0.0638
 1265ERGO    R217533   0.617   3.431   9.374 -0.1801 -0.0733  0.0850
 1265ERGO    R317534   0.643   3.179   9.276 -0.2393 -0.0339 -0.0297
 1265ERGO    R417535   0.649   3.352   9.039 -0.0427  0.0705  0.0644
 1265ERGO    R517536   0.518   3.181   9.072 -0.1291  0.1157 -0.0907
 1265ERGO    C117537   0.693   3.070   8.752 -0.0183  0.1913 -0.0551
 1265ERGO    C217538   0.729   3.060   8.391 -0.0186  0.2006 -0.1946
 1266ERGO   ROH17539   5.065   0.776   9.893  0.1003  0.0492 -0.0211
 1266ERGO    R117540   4.982   0.841   9.630  0.1588  0.2940  0.0180
 1266ERGO    R217541   5.134   0.995   9.459  0.4464  0.0149  0.0141
 1266ERGO    R317542   5.103   0.782   9.292 -0.0578  0.1113 -0.0308
 1266ERGO    R417543   5.167   1.008   9.115  0.4113  0.0206  0.0108
 1266ERGO    R517544   4.995   0.874   9.099  0.1037  0.3990  0.0106
 1266ERGO    C117545   5.157   0.817   8.758 -0.0824  0.1144 -0.0332
 1266ERGO    C217546   5.090   0.854   8.420  0.0491  0.1159 -0.2201
 1267ERGO   ROH17547  11.522  11.598   6.513 -0.2686 -0.0602  0.0874
 1267ERGO    R117548  11.439  11.529   6.775 -0.2216 -0.0324  0.1102
 1267ERGO    R217549  11.577  11.347   6.932 -0.2748 -0.1288  0.0512
 1267ERGO    R317550  11.579  11.551   7.111 -0.0930 -0.1408  0.0637
 1267ERGO    R417551  11.539  11.310   7.273 -0.1540 -0.1226  0.0651
 1267ERGO    R517552  11.415  11.489   7.274 -0.0571 -0.0589  0.1274
 1267ERGO    C117553  11.520  11.481   7.640  0.0869 -0.1303  0.0848
 1267ERGO    C217554  11.501  11.471   7.862 -0.0911 -0.0259  0.2156
 1268ERGO   ROH17555  12.242  10.075   6.270  0.0878 -0.0471 -0.1187
 1268ERGO    R117556  12.148  10.074   6.537  0.0517  0.0038 -0.1318
 1268ERGO    R217557  12.190   9.862   6.709  0.0924  0.0692 -0.0650
 1268ERGO    R317558  12.295  10.055   6.869  0.0111  0.1474 -0.1035
 1268ERGO    R417559  12.226   9.837   7.052  0.1773  0.1153 -0.0698
 1268ERGO    R517560  12.164  10.045   7.069  0.0550  0.0834 -0.0747
 1268ERGO    C117561  12.345  10.004   7.401  0.1504  0.2156 -0.1087
 1268ERGO    C217562  12.245  10.057   7.761 -0.2233  0.1357  0.2284
 1269ERGO   ROH17563  14.272  16.110   6.601 -0.3198 -0.1286  0.1238
 1269ERGO    R117564  14.254  16.113   6.883 -0.1842  0.1572  0.1320
 1269ERGO    R217565  14.392  15.934   7.043 -0.3552  0.1131  0.2263
 1269ERGO    R317566  14.483  16.161   7.162  0.0156  0.1023 -0.0190
 1269ERGO    R417567  14.618  15.943   7.304 -0.2560  0.0284  0.1447
 1269ERGO    R517568  14.501  16.103   7.394  0.0020  0.2931  0.0340
 1269ERGO    C117569  14.836  16.161   7.568  0.1501 -0.0309 -0.1330
 1269ERGO    C217570  15.057  16.098   7.808 -0.2798  0.1673  0.1849
 1270ERGO   ROH17571   9.668   0.387   9.975 -0.0251  0.1751 -0.0702
 1270ERGO    R117572   9.755   0.537   9.752  0.1537  0.0598 -0.0797
 1270ERGO    R217573   9.910   0.428   9.550 -0.0344 -0.1583 -0.1105
 1270ERGO    R317574   9.712   0.524   9.391  0.0707  0.1332 -0.0730
 1270ERGO    R417575   9.917   0.426   9.205 -0.0395 -0.0307 -0.1117
 1270ERGO    R517576   9.828   0.625   9.207  0.1872  0.0745 -0.0333
 1270ERGO    C117577   9.736   0.515   8.854  0.0563  0.3172 -0.0772
 1270ERGO    C217578   9.716   0.372   8.602  0.3496 -0.1803  0.2806
 1271ERGO   ROH17579   7.490  11.636   6.539  0.0363  0.1403  0.0599
 1271ERGO    R117580   7.478  11.666   6.820  0.1352  0.0750  0.0723
 1271ERGO    R217581   7.276  11.557   6.973  0.0398  0.2604  0.0881
 1271ERGO    R317582   7.483  11.447   7.110 -0.0497 -0.0175  0.0061
 1271ERGO    R417583   7.277  11.496   7.313  0.0825  0.2168  0.0798
 1271ERGO    R517584   7.485  11.564   7.319  0.1698 -0.0447  0.0194
 1271ERGO    C117585   7.473  11.358   7.640  0.0234 -0.0696 -0.0021
 1271ERGO    C217586   7.379  11.262   8.017 -0.5340 -0.0817  0.1028
 1272ERGO   ROH17587  11.493   3.859   5.945 -0.3066  0.2829  0.0934
 1272ERGO    R117588  11.472   3.900   6.225 -0.2333  0.0762  0.1322
 1272ERGO    R217589  11.409   3.698   6.401 -0.0183 -0.0963  0.0217
 1272ERGO    R317590  11.638   3.776   6.524 -0.0273 -0.0102 -0.0170
 1272ERGO    R417591  11.503   3.606   6.721 -0.0577  0.1725  0.1123
 1272ERGO    R517592  11.575   3.810   6.752 -0.0465  0.1909 -0.0531
 1272ERGO    C117593  11.773   3.627   7.022 -0.0891  0.4097  0.1287
 1272ERGO    C217594  11.938   3.575   7.344 -0.0825  0.1972  0.1241
 1273ERGO   ROH17595   6.468  13.824   6.323 -0.4270  0.0693 -0.0762
 1273ERGO    R117596   6.411  13.877   6.595 -0.3395  0.0617 -0.0563
 1273ERGO    R217597   6.156  13.863   6.699 -0.2702 -0.2046  0.0835
 1273ERGO    R317598   6.272  13.693   6.876  0.0171 -0.0393  0.0604
 1273ERGO    R417599   6.114  13.875   7.042 -0.2552 -0.2860  0.0885
 1273ERGO    R517600   6.326  13.830   7.065 -0.1748  0.0399  0.0620
 1273ERGO    C117601   6.198  13.723   7.408  0.0232 -0.1782  0.0697
 1273ERGO    C217602   6.035  13.962   7.643  0.0185 -0.2662 -0.1613
 1274ERGO   ROH17603  12.869   3.387   6.376  0.0892 -0.2095  0.0366
 1274ERGO    R117604  12.903   3.552   6.603 -0.0910 -0.1819  0.0469
 1274ERGO    R217605  12.782   3.500   6.846 -0.0817 -0.2969  0.0337
 1274ERGO    R317606  13.037   3.516   6.939 -0.1055 -0.0747  0.0629
 1274ERGO    R417607  12.868   3.536   7.178 -0.1418 -0.0926  0.0276
 1274ERGO    R517608  13.025   3.675   7.118 -0.2367 -0.0099 -0.0084
 1274ERGO    C117609  13.158   3.572   7.460 -0.1990  0.2348  0.0513
 1274ERGO    C217610  13.126   3.496   7.769  0.1145  0.1755  0.0110
 1275ERGO   ROH17611  13.723  12.831   6.572 -0.2618  0.1750  0.1116
 1275ERGO    R117612  13.884  12.814   6.804 -0.1263 -0.0601  0.0045
 1275ERGO    R217613  13.871  13.000   7.007  0.2440 -0.0656  0.0423
 1275ERGO    R317614  13.830  12.780   7.162  0.0653 -0.0372  0.0363
 1275ERGO    R417615  14.011  12.950   7.320 -0.0431 -0.0554  0.1752
 1275ERGO    R517616  14.042  12.740   7.266 -0.0354 -0.0662  0.2313
 1275ERGO    C117617  14.053  12.714   7.646 -0.3781 -0.0227  0.2470
 1275ERGO    C217618  14.090  12.853   7.887  0.0115 -0.1407  0.0615
 1276ERGO   ROH17619  15.341   9.097   6.373 -0.1584  0.1509 -0.2692
 1276ERGO    R117620  15.345   9.192   6.640 -0.4162  0.0547 -0.2298
 1276ERGO    R217621  15.185   9.085   6.838 -0.1856 -0.4188 -0.2940
 1276ERGO    R317622  15.422   9.055   6.968 -0.1159  0.0993 -0.2766
 1276ERGO    R417623  15.226   9.108   7.180 -0.3254 -0.5845 -0.2633
 1276ERGO    R517624  15.413   9.216   7.146 -0.5845 -0.0515 -0.1433
 1276ERGO    C117625  15.473   9.093   7.502 -0.3415 -0.1948 -0.2291
 1276ERGO    C217626  15.539   9.138   7.871  0.2170  0.0613  0.1546
 1277ERGO   ROH17627   1.604   6.629   6.220  0.0201 -0.1672  0.0466
 1277ERGO    R117628   1.662   6.702   6.487 -0.0373 -0.0075  0.0172
 1277ERGO    R217629   1.549   6.922   6.609 -0.1441  0.0092 -0.1034
 1277ERGO    R317630   1.476   6.740   6.798 -0.0863  0.0701 -0.0225
 1277ERGO    R417631   1.492   6.995   6.942 -0.0202  0.1070 -0.1033
 1277ERGO    R517632   1.593   6.809   6.995 -0.0134  0.1194 -0.0852
 1277ERGO    C117633   1.391   6.866   7.313  0.1062  0.2210 -0.0273
 1277ERGO    C217634   1.360   6.907   7.669 -0.0779  0.1604 -0.4308
 1278ERGO   ROH17635  15.199  17.753   6.731  0.1665  0.1801  0.0050
 1278ERGO    R117636  15.454  17.714   6.849  0.1151  0.1573  0.1084
 1278ERGO    R217637  15.488  17.678   7.121 -0.0267 -0.1070  0.0919
 1278ERGO    R317638  15.618  17.452   7.041  0.1053  0.0212 -0.0647
 1278ERGO    R417639  15.733  17.515   7.303 -0.1212 -0.2379  0.1051
 1278ERGO    R517640  15.843  17.483   7.118  0.0379  0.0072  0.1496
 1278ERGO    C117641  15.998  17.210   7.334 -0.0522 -0.1941 -0.0343
 1278ERGO    C217642  15.967  16.907   7.238  0.0038  0.5467  0.1487
 1279ERGO   ROH17643   0.355   3.165   5.956 -0.2740  0.1558 -0.0019
 1279ERGO    R117644   0.201   3.040   6.159 -0.1595  0.0874  0.0442
 1279ERGO    R217645   0.311   2.868   6.345 -0.0200  0.1718  0.0394
 1279ERGO    R317646   0.194   3.038   6.522 -0.0828  0.1223  0.0465
 1279ERGO    R417647   0.290   2.815   6.686  0.1685  0.2332  0.0617
 1279ERGO    R517648   0.087   2.895   6.681  0.0987  0.0705  0.1268
 1279ERGO    C117649   0.168   2.944   7.051  0.2194  0.2225  0.0813
 1279ERGO    C217650   0.178   3.161   7.257 -0.0885 -0.1372 -0.1820
 1280ERGO   ROH17651   3.672   3.280   6.524  0.1979 -0.0017  0.2041
 1280ERGO    R117652   3.473   3.426   6.662  0.1059 -0.0751  0.1500
 1280ERGO    R217653   3.349   3.331   6.890  0.1478 -0.0807  0.1685
 1280ERGO    R317654   3.431   3.567   6.996  0.0050 -0.0019  0.1076
 1280ERGO    R417655   3.246   3.457   7.195  0.0982 -0.0843  0.1536
 1280ERGO    R517656   3.236   3.655   7.104 -0.0432 -0.1078  0.1107
 1280ERGO    C117657   3.263   3.752   7.472 -0.0647 -0.0124  0.0878
 1280ERGO    C217658   3.245   3.817   7.823  0.0760  0.1367  0.1224
 1281ERGO   ROH17659   7.834  13.780   6.884  0.0708  0.0006  0.1066
 1281ERGO    R117660   8.037  13.799   7.079  0.0975  0.0675  0.0732
 1281ERGO    R217661   8.220  14.006   7.085 -0.0244  0.1770  0.0968
 1281ERGO    R317662   8.133  14.034   7.341  0.0056  0.0519  0.1208
 1281ERGO    R417663   8.361  14.217   7.320 -0.1154  0.2051  0.1259
 1281ERGO    R517664   8.333  14.060   7.469  0.0133  0.1464  0.0896
 1281ERGO    C117665   8.360  14.365   7.697 -0.1402  0.1040  0.1654
 1281ERGO    C217666   8.487  14.605   7.818  0.0680 -0.1480  0.0960
 1282ERGO   ROH17667  13.938   1.858   6.280 -0.0425  0.0481  0.1205
 1282ERGO    R117668  13.955   1.793   6.555  0.0020 -0.0404  0.0984
 1282ERGO    R217669  14.119   1.931   6.730  0.0208 -0.0848  0.1230
 1282ERGO    R317670  13.889   1.961   6.871  0.0374 -0.1449  0.1609
 1282ERGO    R417671  14.100   1.951   7.075  0.0624 -0.1525  0.1282
 1282ERGO    R517672  13.921   1.827   7.067  0.0818 -0.1748  0.1301
 1282ERGO    C117673  13.872   1.991   7.408  0.1022 -0.2484  0.1669
 1282ERGO    C217674  13.981   2.025   7.770  0.0421 -0.0486  0.0395
 1283ERGO   ROH17675   2.352   8.369  10.193 -0.0754 -0.1881 -0.0385
 1283ERGO    R117676   2.247   8.477   9.953 -0.1130 -0.1590 -0.0076
 1283ERGO    R217677   2.409   8.568   9.748 -0.1476 -0.1666 -0.0313
 1283ERGO    R317678   2.261   8.396   9.599 -0.2014 -0.1349 -0.0178
 1283ERGO    R417679   2.343   8.605   9.411 -0.2757 -0.0844  0.0003
 1283ERGO    R517680   2.140   8.537   9.448 -0.2631 -0.0981  0.0617
 1283ERGO    C117681   2.167   8.465   9.074 -0.4008 -0.0068  0.0315
 1283ERGO    C217682   2.128   8.591   8.729 -0.2877 -0.1898 -0.0820
 1284ERGO   ROH17683  16.319   3.616   9.693 -0.0107  0.0366 -0.1164
 1284ERGO    R117684  16.265   3.507   9.438  0.0351 -0.0520 -0.0889
 1284ERGO    R217685  16.059   3.598   9.278  0.0687 -0.1008 -0.1621
 1284ERGO    R317686  16.257   3.628   9.095  0.1063 -0.1722 -0.1333
 1284ERGO    R417687  16.011   3.626   8.937  0.1122  0.1296 -0.1500
 1284ERGO    R517688  16.185   3.499   8.906  0.0043 -0.0061 -0.2093
 1284ERGO    C117689  16.170   3.672   8.566  0.1727  0.1968 -0.1159
 1284ERGO    C217690  16.234   3.875   8.291  0.0537  0.2336 -0.2813
 1285ERGO   ROH17691  16.660   7.981   6.691 -0.1012 -0.2256  0.0337
 1285ERGO    R117692  16.844   7.976   6.907 -0.0508 -0.3043 -0.0109
 1285ERGO    R217693  16.804   8.121   7.139  0.0980 -0.2386 -0.0267
 1285ERGO    R317694  16.836   7.878   7.257 -0.0262 -0.2392  0.0081
 1285ERGO    R417695  16.848   8.070   7.478  0.1638 -0.2042 -0.0297
 1285ERGO    R517696  16.996   7.917   7.431  0.0513 -0.3107 -0.0455
 1285ERGO    C117697  16.904   7.813   7.786  0.0855 -0.1848  0.0012
 1285ERGO    C217698  17.014   7.941   8.038 -0.1509 -0.1984 -0.0366
 1286ERGO   ROH17699   6.164  17.281   9.533  0.0196  0.1016  0.0154
 1286ERGO    R117700   6.179  17.389   9.272  0.0592  0.0478 -0.0048
 1286ERGO    R217701   6.309  17.260   9.065  0.0003 -0.0448  0.0157
 1286ERGO    R317702   6.071  17.291   8.939  0.0103  0.0329  0.0153
 1286ERGO    R417703   6.257  17.206   8.728  0.0046  0.0572 -0.0016
 1286ERGO    R517704   6.128  17.383   8.725  0.0359  0.0819  0.0424
 1286ERGO    C117705   6.002  17.204   8.413  0.0166  0.1894 -0.0120
 1286ERGO    C217706   5.868  16.997   8.120  0.0267  0.0696 -0.0614
 1287ERGO   ROH17707   2.701   6.440   6.251 -0.0842  0.0222 -0.1230
 1287ERGO    R117708   2.710   6.371   6.525  0.0286 -0.1032 -0.1566
 1287ERGO    R217709   2.822   6.536   6.717  0.0644 -0.1663 -0.1174
 1287ERGO    R317710   2.580   6.507   6.837  0.1113 -0.2716 -0.0484
 1287ERGO    R417711   2.774   6.443   7.046  0.1891 -0.1986 -0.1084
 1287ERGO    R517712   2.607   6.319   6.983  0.2257 -0.2627 -0.0634
 1287ERGO    C117713   2.519   6.363   7.351  0.3057 -0.3162 -0.0383
 1287ERGO    C217714   2.261   6.248   7.580  0.1552 -0.3265 -0.2147
 1288ERGO   ROH17715   7.011   6.919   6.945  0.2371 -0.2380  0.0642
 1288ERGO    R117716   7.001   6.697   7.120  0.3827 -0.1860  0.1406
 1288ERGO    R217717   7.139   6.690   7.360  0.1432  0.1186  0.2982
 1288ERGO    R317718   6.894   6.635   7.463  0.1064 -0.2044  0.0518
 1288ERGO    R417719   7.082   6.533   7.662  0.0419  0.1502  0.2955
 1288ERGO    R517720   6.920   6.422   7.568  0.3048 -0.1266  0.1587
 1288ERGO    C117721   6.819   6.389   7.934 -0.0515 -0.1346  0.0628
 1288ERGO    C217722   6.804   6.276   8.209  0.2139  0.0979  0.1567
 1289ERGO   ROH17723   5.386   5.638   6.552  0.0807 -0.0098 -0.0273
 1289ERGO    R117724   5.507   5.677   6.805  0.1625 -0.0920 -0.0546
 1289ERGO    R217725   5.366   5.762   7.027  0.2856  0.0846 -0.0489
 1289ERGO    R317726   5.472   5.539   7.139  0.0814 -0.0034 -0.0243
 1289ERGO    R417727   5.378   5.699   7.366  0.3632  0.1932 -0.0300
 1289ERGO    R517728   5.578   5.617   7.339  0.2652 -0.0495 -0.0971
 1289ERGO    C117729   5.485   5.452   7.670  0.2168  0.1740  0.0041
 1289ERGO    C217730   5.550   5.497   7.987  0.0203 -0.1654  0.0774
 1290ERGO   ROH17731   4.141   0.816   9.808  0.1531  0.1899 -0.0123
 1290ERGO    R117732   4.196   0.896   9.541  0.2146  0.0786 -0.0349
 1290ERGO    R217733   4.353   0.746   9.370 -0.0235 -0.1719 -0.0501
 1290ERGO    R317734   4.135   0.762   9.208 -0.0400  0.1118 -0.0024
 1290ERGO    R417735   4.359   0.712   9.027 -0.1358 -0.0562 -0.0634
 1290ERGO    R517736   4.215   0.874   9.013  0.0321  0.0967  0.0229
 1290ERGO    C117737   4.159   0.708   8.674 -0.2167  0.2774 -0.0264
 1290ERGO    C217738   4.154   0.656   8.381  0.3018 -0.0204 -0.2257
 1291ERGO   ROH17739   9.973  16.859  10.111  0.0799  0.1453  0.0217
 1291ERGO    R117740   9.858  16.827   9.854  0.0986 -0.1530  0.0468
 1291ERGO    R217741   9.887  17.015   9.654 -0.2579 -0.1697 -0.0235
 1291ERGO    R317742   9.977  16.802   9.511  0.1006 -0.0676  0.0395
 1291ERGO    R417743   9.997  17.030   9.327 -0.7844 -0.1427 -0.2093
 1291ERGO    R517744   9.895  16.840   9.289 -0.3502 -0.4690  0.1163
 1291ERGO    C117745  10.146  16.838   9.002 -0.7544 -0.0308 -0.2583
 1291ERGO    C217746  10.140  16.874   8.588  0.1391  0.2824 -0.1233
 1292ERGO   ROH17747  12.990  12.059   6.541 -0.1750 -0.1480 -0.0818
 1292ERGO    R117748  13.074  12.067   6.811 -0.1369  0.0581 -0.1001
 1292ERGO    R217749  12.986  12.261   6.988 -0.4004 -0.0253 -0.1467
 1292ERGO    R317750  12.915  12.045   7.138 -0.0427 -0.0922 -0.0611
 1292ERGO    R417751  12.891  12.273   7.320 -0.4365 -0.0371 -0.1554
 1292ERGO    R517752  13.005  12.091   7.355 -0.1213  0.1596 -0.0726
 1292ERGO    C117753  12.768  12.078   7.653 -0.1220 -0.1069 -0.0802
 1292ERGO    C217754  12.706  12.047   7.986  0.0446  0.1762 -0.0424
 1293ERGO   ROH17755  17.852  15.607   6.416  0.0610 -0.1124  0.0105
 1293ERGO    R117756  17.837  15.447   6.649  0.0652 -0.1105  0.0118
 1293ERGO    R217757  17.970  15.512   6.883 -0.0184 -0.0505  0.0425
 1293ERGO    R317758  17.723  15.490   6.992 -0.0375 -0.1443 -0.0178
 1293ERGO    R417759  17.907  15.478   7.221 -0.0875 -0.0715  0.0277
 1293ERGO    R517760  17.751  15.334   7.171 -0.0208 -0.1322 -0.0094
 1293ERGO    C117761  17.637  15.438   7.520 -0.1458 -0.1719 -0.0375
 1293ERGO    C217762  17.597  15.514   7.917  0.2289  0.2576 -0.1128
 1294ERGO   ROH17763   1.907  15.688   6.340  0.2060  0.0103 -0.0387
 1294ERGO    R117764   2.020  15.920   6.458  0.2015  0.0354 -0.0803
 1294ERGO    R217765   1.962  15.998   6.717 -0.0286  0.2443 -0.1825
 1294ERGO    R317766   2.233  15.994   6.744 -0.0564  0.1150  0.0911
 1294ERGO    R417767   2.139  16.158   6.967 -0.1752  0.3466 -0.1443
 1294ERGO    R517768   2.289  16.214   6.820 -0.0016  0.1381 -0.0371
 1294ERGO    C117769   2.495  16.247   7.138 -0.2867  0.2848  0.1348
 1294ERGO    C217770   2.585  16.221   7.489  0.1575  0.1650 -0.2687
 1295ERGO   ROH17771   9.293   4.465   5.886 -0.0838  0.0411  0.0711
 1295ERGO    R117772   9.343   4.269   6.084 -0.0721 -0.0049  0.0235
 1295ERGO    R217773   9.506   4.316   6.302  0.0191 -0.0861 -0.0226
 1295ERGO    R317774   9.287   4.235   6.442  0.0411 -0.0424  0.0370
 1295ERGO    R417775   9.514   4.178   6.619  0.0472  0.1721  0.0913
 1295ERGO    R517776   9.360   4.037   6.556  0.0958  0.0737  0.2011
 1295ERGO    C117777   9.313   4.021   6.934  0.0842  0.3635  0.2136
 1295ERGO    C217778   9.135   4.128   7.181 -0.1435  0.0212 -0.4779
 1296ERGO   ROH17779   9.379   0.790   6.386 -0.0629 -0.0583 -0.1859
 1296ERGO    R117780   9.262   0.873   6.630  0.0850  0.1180 -0.1721
 1296ERGO    R217781   9.113   0.702   6.789 -0.0317  0.2975 -0.0816
 1296ERGO    R317782   9.289   0.780   6.981  0.1015  0.1840 -0.1565
 1296ERGO    R417783   9.055   0.685   7.129  0.1328  0.2771 -0.0541
 1296ERGO    R517784   9.153   0.879   7.151  0.2363  0.2250 -0.0729
 1296ERGO    C117785   9.187   0.748   7.508  0.3537  0.1587 -0.1085
 1296ERGO    C217786   9.115   0.788   7.875 -0.1200  0.1650  0.2834
 1297ERGO   ROH17787  12.571  16.449   6.595 -0.1595  0.0874  0.0974
 1297ERGO    R117788  12.619  16.333   6.848 -0.1503  0.0212  0.0659
 1297ERGO    R217789  12.741  16.471   7.054 -0.0151 -0.0762  0.0552
 1297ERGO    R317790  12.519  16.397   7.192 -0.0179  0.0239  0.1039
 1297ERGO    R417791  12.718  16.458   7.399  0.1209 -0.2712  0.0589
 1297ERGO    R517792  12.603  16.274   7.380 -0.0410 -0.1634 -0.0083
 1297ERGO    C117793  12.495  16.382   7.729  0.1974 -0.2906  0.1066
 1297ERGO    C217794  12.363  16.355   8.039  0.1856 -0.2173 -0.0795
 1298ERGO   ROH17795  17.173   3.760   6.291  0.0608 -0.1395  0.0980
 1298ERGO    R117796  17.294   3.665   6.529  0.0280 -0.1700  0.1026
 1298ERGO    R217797  17.410   3.833   6.715  0.1699 -0.2065  0.0506
 1298ERGO    R317798  17.241   3.706   6.887  0.1038 -0.0538  0.1002
 1298ERGO    R417799  17.475   3.776   7.050  0.1184 -0.0788  0.0832
 1298ERGO    R517800  17.386   3.578   7.028  0.0361 -0.0497  0.1714
 1298ERGO    C117801  17.356   3.624   7.406  0.0262  0.1389  0.1488
 1298ERGO    C217802  17.568   3.593   7.723 -0.1774 -0.0873  0.0571
 1299ERGO   ROH17803  17.601   0.106   6.490  0.1928 -0.2008 -0.1379
 1299ERGO    R117804  17.689   0.228   6.729  0.3108 -0.2022 -0.1803
 1299ERGO    R217805  17.514   0.329   6.918  0.4068  0.0697 -0.2350
 1299ERGO    R317806  17.654   0.166   7.086  0.2128 -0.0191 -0.1564
 1299ERGO    R417807  17.531   0.368   7.261  0.2028  0.0388 -0.2200
 1299ERGO    R517808  17.743   0.315   7.251  0.1856 -0.0746 -0.0877
 1299ERGO    C117809  17.672   0.238   7.618 -0.0980 -0.0625 -0.1374
 1299ERGO    C217810  17.740   0.321   7.966  0.3261 -0.1166 -0.1857
 1300ERGO   ROH17811  15.760   2.136  10.114  0.0031 -0.0739 -0.0422
 1300ERGO    R117812  15.827   2.248   9.863  0.1290 -0.0061  0.0198
 1300ERGO    R217813  15.997   2.123   9.685  0.0379 -0.0737 -0.0301
 1300ERGO    R317814  15.789   2.155   9.513  0.0765  0.2003 -0.0286
 1300ERGO    R417815  16.024   2.119   9.341  0.0178 -0.0970 -0.0310
 1300ERGO    R517816  15.881   2.284   9.333  0.2334  0.0852 -0.0255
 1300ERGO    C117817  15.845   2.147   8.978  0.0426  0.1466 -0.0301
 1300ERGO    C217818  15.947   2.161   8.632 -0.1293  0.3390 -0.0892
 1301ERGO   ROH17819  17.080  17.261   6.459 -0.0870  0.0376  0.1054
 1301ERGO    R117820  17.262  17.327   6.665 -0.1283  0.1302  0.1128
 1301ERGO    R217821  17.180  17.386   6.922 -0.1605 -0.0516  0.1468
 1301ERGO    R317822  17.356  17.190   6.989  0.0369  0.0879  0.0477
 1301ERGO    R417823  17.304  17.331   7.240  0.0569  0.0356  0.0795
 1301ERGO    R517824  17.499  17.290   7.152  0.0438  0.1978 -0.0259
 1301ERGO    C117825  17.540  17.114   7.488  0.3687  0.2172 -0.0528
 1301ERGO    C217826  17.690  17.237   7.720  0.5259 -0.0343  0.1181
 1302ERGO   ROH17827  16.356  13.601   6.636 -0.0154 -0.0273  0.1042
 1302ERGO    R117828  16.471  13.546   6.888  0.0221  0.0209  0.0977
 1302ERGO    R217829  16.452  13.721   7.102 -0.0306  0.0182  0.0965
 1302ERGO    R317830  16.352  13.503   7.230  0.0603 -0.0185  0.1058
 1302ERGO    R417831  16.472  13.666   7.442 -0.0429  0.0579  0.1037
 1302ERGO    R517832  16.513  13.456   7.401  0.0630  0.0743  0.1283
 1302ERGO    C117833  16.390  13.429   7.761  0.0352  0.0467  0.1167
 1302ERGO    C217834  16.430  13.457   8.066 -0.2022  0.1308  0.0292
 1303ERGO   ROH17835   9.052   1.254   9.864 -0.0883 -0.2380 -0.0521
 1303ERGO    R117836   9.162   1.327   9.613  0.0314 -0.1188  0.0329
 1303ERGO    R217837   9.260   1.140   9.434  0.1707 -0.0315  0.0116
 1303ERGO    R317838   9.088   1.262   9.263  0.2330 -0.0056 -0.0320
 1303ERGO    R417839   9.252   1.090   9.092  0.0746 -0.2285  0.0422
 1303ERGO    R517840   9.217   1.304   9.066  0.2292 -0.2194 -0.0795
 1303ERGO    C117841   9.084   1.176   8.733  0.0771 -0.3189  0.0191
 1303ERGO    C217842   9.065   1.142   8.360  0.0429  0.1069 -0.0349
 1304ERGO   ROH17843   6.234  10.838   6.740  0.2978 -0.0636 -0.0358
 1304ERGO    R117844   6.133  10.975   6.967  0.0847  0.0914 -0.2197
 1304ERGO    R217845   6.195  10.901   7.226 -0.4783  0.0132 -0.0899
 1304ERGO    R317846   6.272  11.160   7.247 -0.1428 -0.0934  0.0182
 1304ERGO    R417847   6.259  11.067   7.523 -0.4514 -0.1273 -0.0169
 1304ERGO    R517848   6.160  11.242   7.441 -0.1596  0.0198 -0.0447
 1304ERGO    C117849   6.368  11.407   7.715 -0.1207 -0.3092  0.1271
 1304ERGO    C217850   6.427  11.632   8.039 -0.1302  0.0161 -0.0459
 1305ERGO   ROH17851  12.880  14.016   6.418 -0.6088  0.0036  0.0455
 1305ERGO    R117852  12.899  13.907   6.678 -0.4213 -0.0991 -0.0074
 1305ERGO    R217853  13.038  14.032   6.882 -0.1031 -0.2707 -0.0968
 1305ERGO    R317854  12.802  14.006   7.014  0.0058 -0.1258  0.1263
 1305ERGO    R417855  13.003  14.024   7.226  0.2038 -0.3291 -0.0661
 1305ERGO    R517856  12.853  13.868   7.203  0.0717 -0.2032  0.0409
 1305ERGO    C117857  12.762  13.996   7.550  0.4849 -0.2270  0.1613
 1305ERGO    C217858  12.581  14.041   7.899  0.2914  0.3008 -0.2291
 1306ERGO   ROH17859  14.407  17.173   6.517 -0.1816  0.0379  0.0662
 1306ERGO    R117860  14.402  17.129   6.797 -0.0733 -0.1082  0.0476
 1306ERGO    R217861  14.631  17.088   6.946  0.0053  0.0145 -0.0285
 1306ERGO    R317862  14.534  17.294   7.093 -0.1404 -0.1402  0.0938
 1306ERGO    R417863  14.707  17.148   7.277 -0.0525 -0.1262  0.0099
 1306ERGO    R517864  14.499  17.201   7.311 -0.0858 -0.2891  0.0357
 1306ERGO    C117865  14.660  17.376   7.609 -0.2227 -0.3534  0.1471
 1306ERGO    C217866  14.847  17.467   7.842 -0.0706 -0.3768 -0.1743
 1307ERGO   ROH17867   8.302   0.902   6.387 -0.0413  0.1994  0.0424
 1307ERGO    R117868   8.157   1.109   6.514 -0.0119  0.1453  0.1661
 1307ERGO    R217869   7.897   1.173   6.443  0.0644  0.3505  0.0684
 1307ERGO    R317870   7.851   1.137   6.709 -0.1199  0.1007  0.0057
 1307ERGO    R417871   7.600   1.247   6.604 -0.0056  0.3238 -0.0472
 1307ERGO    R517872   7.716   1.324   6.772 -0.0736  0.1018  0.1085
 1307ERGO    C117873   7.384   1.256   6.947 -0.2193  0.0737 -0.1733
 1307ERGO    C217874   7.096   1.193   7.154 -0.1290  0.1337 -0.0594
 1308ERGO   ROH17875   0.401  11.337   6.266 -0.1726 -0.2694  0.0300
 1308ERGO    R117876   0.306  11.307   6.531 -0.0492 -0.0827  0.0969
 1308ERGO    R217877   0.250  11.061   6.643 -0.2327  0.0097  0.2126
 1308ERGO    R317878   0.421  11.147   6.837 -0.0321 -0.0932  0.0853
 1308ERGO    R417879   0.352  10.873   6.915 -0.1413 -0.0543  0.1348
 1308ERGO    R517880   0.334  11.051   7.039  0.0606 -0.0421  0.1510
 1308ERGO    C117881   0.571  10.844   7.255  0.1002 -0.1881 -0.0299
 1308ERGO    C217882   0.668  10.795   7.612 -0.2246  0.2041 -0.1055
 1309ERGO   ROH17883  10.080   2.419   6.265  0.1031 -0.2978  0.0783
 1309ERGO    R117884   9.868   2.519   6.424  0.1037 -0.2603  0.0568
 1309ERGO    R217885   9.863   2.492   6.700  0.0744 -0.2526  0.0597
 1309ERGO    R317886   9.830   2.762   6.693  0.1195 -0.2479  0.0467
 1309ERGO    R417887   9.704   2.678   6.943  0.0895 -0.2119  0.0381
 1309ERGO    R517888   9.613   2.798   6.786  0.1215 -0.2048  0.0291
 1309ERGO    C117889   9.580   3.040   7.078  0.1407 -0.1837  0.0132
 1309ERGO    C217890   9.457   3.190   7.300  0.4426 -0.1732 -0.3208
 1310ERGO   ROH17891   1.527  13.452   6.748 -0.2381  0.0595  0.0194
 1310ERGO    R117892   1.514  13.320   6.998 -0.0746  0.0488  0.0234
 1310ERGO    R217893   1.739  13.229   7.130  0.0196  0.1091 -0.0906
 1310ERGO    R317894   1.640  13.379   7.334  0.0785  0.0766 -0.0387
 1310ERGO    R417895   1.806  13.174   7.464 -0.0345 -0.0554 -0.1065
 1310ERGO    R517896   1.597  13.219   7.508 -0.0138  0.0305 -0.1050
 1310ERGO    C117897   1.752  13.282   7.851 -0.0107 -0.1817 -0.0671
 1310ERGO    C217898   1.839  13.241   8.131 -0.2139  0.1255 -0.0274
 1311ERGO   ROH17899   9.102   3.912   6.193 -0.1405  0.4137  0.0011
 1311ERGO    R117900   8.963   3.793   6.409 -0.2437  0.4485 -0.0451
 1311ERGO    R217901   9.090   3.708   6.639 -0.2655 -0.0301 -0.1964
 1311ERGO    R317902   8.908   3.868   6.761  0.0969  0.1980  0.0659
 1311ERGO    R417903   8.985   3.675   6.967 -0.2077 -0.2046 -0.1945
 1311ERGO    R517904   8.782   3.721   6.901 -0.1471  0.2806 -0.0654
 1311ERGO    C117905   8.752   3.806   7.271  0.1662 -0.0922  0.0529
 1311ERGO    C217906   8.701   3.788   7.581 -0.1298 -0.2079  0.2876
 1312ERGO   ROH17907   4.352   6.799   6.677  0.0393  0.1860  0.0561
 1312ERGO    R117908   4.183   6.764   6.902  0.1192 -0.0989  0.0729
 1312ERGO    R217909   4.266   6.632   7.131  0.4118  0.1502  0.1075
 1312ERGO    R317910   4.185   6.862   7.252 -0.0777  0.0263  0.0425
 1312ERGO    R417911   4.186   6.661   7.466  0.5064  0.0951  0.1368
 1312ERGO    R517912   4.020   6.791   7.410  0.1557 -0.3117  0.1546
 1312ERGO    C117913   4.063   6.893   7.775  0.1020 -0.0533  0.0928
 1312ERGO    C217914   4.083   6.912   8.154 -0.0255 -0.1210  0.4154
 1313ERGO   ROH17915  14.588   6.096   6.444 -0.0772 -0.0427  0.1275
 1313ERGO    R117916  14.650   5.952   6.680 -0.1164 -0.0957  0.1055
 1313ERGO    R217917  14.803   6.059   6.884 -0.0215 -0.1957  0.0877
 1313ERGO    R317918  14.589   5.990   7.037 -0.0346 -0.0891  0.1187
 1313ERGO    R417919  14.813   6.005   7.225  0.0232 -0.3238  0.0669
 1313ERGO    R517920  14.678   5.836   7.197 -0.1099 -0.2126  0.0422
 1313ERGO    C117921  14.618   5.908   7.567  0.0369 -0.2984  0.0839
 1313ERGO    C217922  14.662   5.648   7.857 -0.3365 -0.0808 -0.1105
 1314ERGO   ROH17923  17.736  14.504   6.574 -0.0559 -0.4360 -0.1218
 1314ERGO    R117924  17.688  14.509   6.853 -0.1414 -0.3561 -0.1369
 1314ERGO    R217925  17.713  14.285   7.013  0.0954 -0.2514 -0.0169
 1314ERGO    R317926  17.880  14.444   7.155 -0.1407  0.0330 -0.0489
 1314ERGO    R417927  17.739  14.286   7.357  0.0801 -0.1264 -0.0164
 1314ERGO    R517928  17.755  14.503   7.351 -0.2371 -0.1007 -0.0700
 1314ERGO    C117929  17.912  14.436   7.692 -0.1506  0.2134 -0.0461
 1314ERGO    C217930  17.831  14.219   8.014 -0.0291  0.0046 -0.0752
 1315ERGO   ROH17931  10.372  10.215   6.244  0.0252 -0.0455  0.0868
 1315ERGO    R117932  10.256  10.194   6.501 -0.0390 -0.0039  0.0616
 1315ERGO    R217933  10.155   9.957   6.599 -0.1204  0.0254  0.0511
 1315ERGO    R317934  10.322  10.008   6.807 -0.1547 -0.0053  0.0861
 1315ERGO    R417935  10.144   9.797   6.905 -0.0995 -0.0984 -0.0126
 1315ERGO    R517936  10.183   9.989   7.002 -0.1663 -0.1239  0.0664
 1315ERGO    C117937  10.295   9.752   7.279 -0.1195 -0.1992 -0.0168
 1315ERGO    C217938  10.323   9.715   7.528 -0.2759 -0.0555  0.0172
 1316ERGO   ROH17939  11.134   5.725   6.770 -0.0072 -0.1130  0.1160
 1316ERGO    R117940  11.211   5.644   7.030  0.0034 -0.1649  0.0971
 1316ERGO    R217941  11.092   5.744   7.258  0.0668 -0.1506  0.1246
 1316ERGO    R317942  11.053   5.481   7.314 -0.0093 -0.1441  0.1018
 1316ERGO    R417943  11.027   5.617   7.573  0.2488 -0.1820  0.1507
 1316ERGO    R517944  11.158   5.449   7.527  0.1392 -0.2331  0.0166
 1316ERGO    C117945  10.952   5.296   7.809  0.2834 -0.1942  0.1445
 1316ERGO    C217946  10.704   5.151   8.028 -0.1639  0.2623 -0.2554
 1317ERGO   ROH17947   3.200  11.949   6.552 -0.1668 -0.0343  0.1094
 1317ERGO    R117948   3.248  11.749   6.747  0.0310 -0.1197 -0.0257
 1317ERGO    R217949   3.499  11.700   6.850  0.0732  0.0847 -0.0386
 1317ERGO    R317950   3.373  11.737   7.088  0.0072 -0.2230 -0.0189
 1317ERGO    R417951   3.619  11.593   7.156  0.4219  0.4153 -0.0515
 1317ERGO    R517952   3.416  11.536   7.210  0.5630 -0.1193 -0.0097
 1317ERGO    C117953   3.571  11.566   7.557  0.5630  0.3190 -0.0405
 1317ERGO    C217954   3.780  11.714   7.766 -0.1511  0.0914  0.1145
 1318ERGO   ROH17955  12.646   0.833   6.486  0.2620 -0.2894  0.1394
 1318ERGO    R117956  12.778   0.855   6.735  0.2255  0.0845  0.1315
 1318ERGO    R217957  12.822   1.098   6.859 -0.2946  0.2361  0.0470
 1318ERGO    R317958  12.696   0.978   7.068 -0.0376  0.0298  0.0882
 1318ERGO    R417959  12.786   1.236   7.174 -0.3760  0.1544  0.0736
 1318ERGO    R517960  12.826   1.039   7.260 -0.0522  0.2039  0.0418
 1318ERGO    C117961  12.646   1.203   7.554 -0.1821 -0.0868  0.1279
 1318ERGO    C217962  12.538   1.400   7.811 -0.2149  0.2351 -0.0635
 1319ERGO   ROH17963   9.063  16.317  10.246 -0.0807 -0.1936  0.0701
 1319ERGO    R117964   9.137  16.206   9.996 -0.2117 -0.1229 -0.0011
 1319ERGO    R217965   8.957  16.168   9.790 -0.2588  0.2236 -0.0276
 1319ERGO    R317966   9.137  16.314   9.649 -0.0841  0.1022  0.0663
 1319ERGO    R417967   8.985  16.168   9.446 -0.1886  0.3243 -0.0226
 1319ERGO    R517968   9.201  16.170   9.468 -0.1868  0.1041  0.0261
 1319ERGO    C117969   9.170  16.304   9.112  0.0162  0.2694  0.0684
 1319ERGO    C217970   9.303  16.360   8.801  0.1860  0.0223 -0.3658
 1320ERGO   ROH17971  17.083   1.740   5.994 -0.0814 -0.1081  0.0289
 1320ERGO    R117972  17.116   1.786   6.272  0.1121 -0.0727  0.0021
 1320ERGO    R217973  17.291   1.974   6.372  0.0135  0.1065 -0.1516
 1320ERGO    R317974  17.070   2.065   6.501  0.0294 -0.1137  0.0350
 1320ERGO    R417975  17.295   2.190   6.642  0.0266  0.0530 -0.1096
 1320ERGO    R517976  17.135   2.072   6.731  0.1963 -0.1059 -0.0120
 1320ERGO    C117977  17.089   2.400   6.921  0.0488 -0.1848  0.0900
 1320ERGO    C217978  17.096   2.768   7.034 -0.0697 -0.0449 -0.2451
 1321ERGO   ROH17979  14.347   3.211   6.539 -0.0788 -0.0932  0.0290
 1321ERGO    R117980  14.546   3.215   6.740 -0.0032 -0.0775 -0.0456
 1321ERGO    R217981  14.767   3.380   6.728 -0.0638 -0.0004 -0.0881
 1321ERGO    R317982  14.682   3.458   6.974  0.0039 -0.0914 -0.0348
 1321ERGO    R417983  14.951   3.572   6.948 -0.0204 -0.0408 -0.0887
 1321ERGO    R517984  14.878   3.447   7.111  0.0522 -0.1045 -0.1032
 1321ERGO    C117985  14.979   3.758   7.307  0.0683 -0.1498 -0.0391
 1321ERGO    C217986  15.036   4.104   7.488  0.1336 -0.0095  0.3629
 1322ERGO   ROH17987  11.243   4.845   6.360 -0.1442 -0.1664  0.2426
 1322ERGO    R117988  11.273   4.728   6.616 -0.1354 -0.0334  0.3031
 1322ERGO    R217989  11.517   4.711   6.744 -0.1059 -0.0984  0.2377
 1322ERGO    R317990  11.383   4.836   6.946  0.0271  0.0977  0.2074
 1322ERGO    R417991  11.620   4.721   7.074 -0.1532 -0.2331  0.2572
 1322ERGO    R517992  11.412   4.692   7.135 -0.2097  0.0586  0.2186
 1322ERGO    C117993  11.555   4.843   7.455 -0.0558 -0.1273  0.2399
 1322ERGO    C217994  11.845   4.948   7.600  0.0452  0.1321 -0.2221
 1323ERGO   ROH17995   8.025   8.308   6.428 -0.2459  0.2257 -0.1065
 1323ERGO    R117996   8.179   8.423   6.636 -0.1475  0.1584 -0.1421
 1323ERGO    R217997   8.123   8.672   6.741 -0.2321  0.0309  0.1098
 1323ERGO    R317998   8.120   8.536   6.977  0.0661 -0.1645  0.0085
 1323ERGO    R417999   8.238   8.797   7.043 -0.2989 -0.0185  0.1562
 1323ERGO    R518000   8.323   8.601   7.085  0.0212  0.0663 -0.0288
 1323ERGO    C118001   8.301   8.741   7.439 -0.0578 -0.2307  0.0882
 1323ERGO    C218002   8.408   8.958   7.760 -0.0164 -0.4089  0.2409
 1324ERGO   ROH18003   8.656   9.755   6.411 -0.0163 -0.0483  0.0269
 1324ERGO    R118004   8.546   9.795   6.669  0.0468 -0.1479  0.0680
 1324ERGO    R218005   8.596   9.625   6.880  0.3070 -0.0842  0.0475
 1324ERGO    R318006   8.673   9.854   7.005  0.1210  0.0014  0.0191
 1324ERGO    R418007   8.601   9.670   7.223  0.5270 -0.1540  0.0562
 1324ERGO    R518008   8.524   9.872   7.192  0.2359 -0.2307  0.1496
 1324ERGO    C118009   8.677   9.911   7.539  0.4805 -0.1143  0.0345
 1324ERGO    C218010   8.650   9.738   7.872  0.1952 -0.1158 -0.3241
 1325ERGO   ROH18011  16.116   3.571   6.195  0.0041 -0.0883 -0.0771
 1325ERGO    R118012  16.277   3.578   6.428 -0.0682 -0.1028 -0.0267
 1325ERGO    R218013  16.251   3.774   6.621 -0.1247 -0.1121 -0.0261
 1325ERGO    R318014  16.224   3.560   6.787 -0.1801 -0.1194 -0.0438
 1325ERGO    R418015  16.348   3.767   6.953  0.0019 -0.2120 -0.0641
 1325ERGO    R518016  16.421   3.564   6.922 -0.1241 -0.2494 -0.1201
 1325ERGO    C118017  16.380   3.562   7.301  0.0236 -0.2771 -0.1029
 1325ERGO    C218018  16.336   3.669   7.635 -0.0456 -0.0106  0.2592
 1326ERGO   ROH18019  17.752   6.055   6.258 -0.0771 -0.1664  0.1542
 1326ERGO    R118020  17.695   6.090   6.533 -0.0409 -0.0164  0.1435
 1326ERGO    R218021  17.644   5.878   6.702 -0.1756  0.0874  0.2319
 1326ERGO    R318022  17.845   5.989   6.849 -0.0950  0.0112  0.1793
 1326ERGO    R418023  17.662   5.874   7.048 -0.1511  0.1647  0.2311
 1326ERGO    R518024  17.735   6.080   7.041 -0.0303  0.1264  0.1671
 1326ERGO    C118025  17.861   5.976   7.386 -0.0613  0.1383  0.1812
 1326ERGO    C218026  17.812   5.925   7.775 -0.0602  0.1847 -0.3443
 1327ERGO   ROH18027   4.580   7.210   6.804  0.0741 -0.2775 -0.1875
 1327ERGO    R118028   4.472   7.132   7.054  0.1162 -0.3679 -0.1999
 1327ERGO    R218029   4.595   6.945   7.217  0.3647 -0.1104 -0.1043
 1327ERGO    R318030   4.578   7.143   7.402 -0.0220 -0.0800 -0.1610
 1327ERGO    R418031   4.545   6.896   7.556  0.5322 -0.1403 -0.0808
 1327ERGO    R518032   4.411   7.068   7.556  0.1527 -0.4084 -0.1084
 1327ERGO    C118033   4.499   7.054   7.926  0.2667 -0.1292 -0.1204
 1327ERGO    C218034   4.471   7.218   8.249  0.0118  0.1365  0.3532
 1328ERGO   ROH18035  15.230  12.114   6.677 -0.1886 -0.0643  0.1487
 1328ERGO    R118036  15.047  12.104   6.893 -0.0498 -0.1846  0.2630
 1328ERGO    R218037  15.113  12.000   7.140  0.2306  0.0213  0.2800
 1328ERGO    R318038  15.027  12.242   7.229 -0.0178 -0.0368  0.2049
 1328ERGO    R418039  15.006  12.065   7.462  0.3444  0.0607  0.3109
 1328ERGO    R518040  14.847  12.189   7.379  0.1374 -0.1805  0.3410
 1328ERGO    C118041  14.862  12.329   7.734  0.1775  0.0291  0.2584
 1328ERGO    C218042  14.940  12.383   8.007 -0.1071 -0.1985 -0.1152
 1329ERGO   ROH18043  13.868  14.602   6.565  0.0393  0.3054  0.0001
 1329ERGO    R118044  13.939  14.511   6.824  0.0655  0.3857  0.0213
 1329ERGO    R218045  14.004  14.684   7.030 -0.2087  0.4637  0.0462
 1329ERGO    R318046  13.809  14.548   7.161 -0.0914  0.2249 -0.0199
 1329ERGO    R418047  13.998  14.628   7.371 -0.2073  0.3668  0.0311
 1329ERGO    R518048  13.925  14.427   7.332  0.0079  0.2998 -0.0336
 1329ERGO    C118049  13.811  14.469   7.693 -0.0964  0.0863 -0.0398
 1329ERGO    C218050  13.666  14.306   7.885 -0.4499 -0.2220 -0.1739
 1330ERGO   ROH18051  11.314   2.030   6.197  0.4280  0.1358  0.1003
 1330ERGO    R118052  11.341   2.193   6.427  0.0451  0.2806  0.0504
 1330ERGO    R218053  11.125   2.317   6.548 -0.2599 -0.1770  0.0059
 1330ERGO    R318054  11.218   2.190   6.770  0.0399  0.0995  0.0472
 1330ERGO    R418055  11.004   2.363   6.868 -0.3006 -0.2886  0.0070
 1330ERGO    R518056  11.208   2.355   6.942 -0.2655  0.1576 -0.0217
 1330ERGO    C118057  11.020   2.271   7.263 -0.0429 -0.0941  0.0464
 1330ERGO    C218058  10.857   2.211   7.613 -0.1279 -0.0455  0.0632
 1331ERGO   ROH18059   5.121  10.674   6.913 -0.0086  0.0696 -0.0506
 1331ERGO    R118060   5.025  10.477   7.092  0.1918  0.1063  0.1026
 1331ERGO    R218061   5.024  10.512   7.366  0.0026  0.3908  0.0715
 1331ERGO    R318062   4.760  10.452   7.340  0.0978 -0.0248 -0.0092
 1331ERGO    R418063   4.813  10.434   7.628 -0.0069  0.2903  0.0340
 1331ERGO    R518064   4.722  10.280   7.503  0.2788  0.0477  0.1123
 1331ERGO    C118065   4.443  10.332   7.757  0.0768 -0.1584 -0.0637
 1331ERGO    C218066   4.175  10.249   7.804  0.0418  0.1433 -0.0613
 1332ERGO   ROH18067   8.862   6.088   6.611  0.0365  0.0795 -0.0477
 1332ERGO    R118068   8.760   6.110   6.875 -0.0728  0.0983 -0.0906
 1332ERGO    R218069   8.918   6.073   7.098 -0.2048 -0.0602 -0.0225
 1332ERGO    R318070   8.825   6.319   7.165 -0.0606 -0.0060 -0.0175
 1332ERGO    R418071   8.912   6.202   7.419 -0.3145 -0.1462  0.0104
 1332ERGO    R518072   8.716   6.287   7.376 -0.2243  0.0163 -0.0962
 1332ERGO    C118073   8.820   6.508   7.668 -0.2430 -0.1454  0.0342
 1332ERGO    C218074   8.890   6.706   7.919  0.2078  0.0764 -0.1021
 1333ERGO   ROH18075   5.103   2.734   6.628 -0.1883  0.0172 -0.1467
 1333ERGO    R118076   5.008   2.729   6.895 -0.1194 -0.0905 -0.1229
 1333ERGO    R218077   4.986   2.495   7.041  0.0500 -0.1357 -0.1614
 1333ERGO    R318078   5.139   2.631   7.220  0.0200 -0.0826 -0.1769
 1333ERGO    R418079   5.052   2.389   7.363  0.1165 -0.1062 -0.1658
 1333ERGO    R518080   5.029   2.596   7.430  0.0534 -0.1157 -0.1672
 1333ERGO    C118081   5.234   2.454   7.719  0.1271 -0.0392 -0.1829
 1333ERGO    C218082   5.391   2.114   7.754 -0.1026  0.0168 -0.2879
 1334ERGO   ROH18083   1.672   2.373   6.009  0.1363  0.3526  0.0001
 1334ERGO    R118084   1.694   2.303   6.282 -0.1106  0.2167 -0.0122
 1334ERGO    R218085   1.877   2.422   6.452 -0.0406 -0.0969  0.1340
 1334ERGO    R318086   1.656   2.472   6.602 -0.0572  0.1472  0.0324
 1334ERGO    R418087   1.881   2.494   6.789 -0.1122 -0.1850  0.1541
 1334ERGO    R518088   1.703   2.370   6.813 -0.2896  0.0301  0.0336
 1334ERGO    C118089   1.675   2.584   7.127 -0.1695 -0.0072  0.0706
 1334ERGO    C218090   1.510   2.645   7.450  0.0277  0.1752 -0.1671
 1335ERGO   ROH18091   8.336   4.383   6.042  0.0811  0.1294  0.1869
 1335ERGO    R118092   8.306   4.348   6.322 -0.0236  0.1927  0.1833
 1335ERGO    R218093   8.147   4.514   6.476 -0.3122  0.0520  0.0387
 1335ERGO    R318094   8.033   4.279   6.552 -0.0624 -0.0655  0.0641
 1335ERGO    R418095   7.938   4.473   6.749 -0.3623 -0.1121 -0.0222
 1335ERGO    R518096   8.037   4.284   6.791 -0.1502  0.0114  0.0669
 1335ERGO    C118097   7.709   4.229   6.978 -0.1570 -0.3180 -0.0337
 1335ERGO    C218098   7.536   4.010   7.200  0.1272 -0.0609 -0.1714
 1336ERGO   ROH18099   6.203  12.244   6.852 -0.0620 -0.0301  0.0714
 1336ERGO    R118100   6.159  12.398   7.086  0.1191  0.0162  0.0766
 1336ERGO    R218101   5.973  12.328   7.278 -0.0234  0.2683  0.0371
 1336ERGO    R318102   6.187  12.347   7.445 -0.0203 -0.0583  0.0772
 1336ERGO    R418103   5.955  12.410   7.613  0.0503  0.4508 -0.0028
 1336ERGO    R518104   6.134  12.532   7.588  0.2899  0.1086 -0.0163
 1336ERGO    C118105   6.145  12.476   7.965  0.0962  0.2503  0.0116
 1336ERGO    C218106   6.107  12.596   8.344 -0.1315  0.2255  0.1024
 1337ERGO   ROH18107  10.303   3.534   6.197  0.3478 -0.0058 -0.0244
 1337ERGO    R118108  10.405   3.646   6.436  0.1385  0.0584  0.0372
 1337ERGO    R218109  10.282   3.611   6.681 -0.0147  0.0283 -0.0413
 1337ERGO    R318110  10.528   3.521   6.755 -0.0262  0.1370  0.1317
 1337ERGO    R418111  10.421   3.654   6.994 -0.2783  0.0328  0.0772
 1337ERGO    R518112  10.613   3.694   6.898 -0.2229  0.1493  0.2355
 1337ERGO    C118113  10.732   3.595   7.247 -0.4426  0.1376  0.3085
 1337ERGO    C218114  10.857   3.624   7.499 -0.1260  0.0971 -0.2190
 1338ERGO   ROH18115   1.048  15.834   6.286  0.0614  0.0131  0.0102
 1338ERGO    R118116   1.044  15.970   6.534  0.1108 -0.0946  0.0707
 1338ERGO    R218117   0.810  16.019   6.673  0.0990  0.1449 -0.0274
 1338ERGO    R318118   0.941  15.894   6.875 -0.1639 -0.1230 -0.0165
 1338ERGO    R418119   0.793  16.111   7.005  0.2391  0.1635 -0.0248
 1338ERGO    R518120   1.007  16.071   7.022  0.1659 -0.2533 -0.0004
 1338ERGO    C118121   0.906  16.047   7.389  0.0740 -0.0773 -0.0132
 1338ERGO    C218122   0.991  16.003   7.716  0.0717  0.1035  0.2398
 1339ERGO   ROH18123   1.411   9.654   6.138  0.1395 -0.1254  0.0156
 1339ERGO    R118124   1.431   9.461   6.345  0.0011 -0.0973  0.0570
 1339ERGO    R218125   1.627   9.473   6.540  0.0356 -0.2195  0.0303
 1339ERGO    R318126   1.414   9.461   6.708  0.0454 -0.0000  0.0597
 1339ERGO    R418127   1.633   9.334   6.856 -0.0758 -0.2957 -0.0007
 1339ERGO    R518128   1.436   9.249   6.818 -0.1880 -0.0537  0.0107
 1339ERGO    C118129   1.437   9.243   7.199 -0.1313 -0.1341  0.0089
 1339ERGO    C218130   1.366   9.231   7.496  0.1351 -0.2034 -0.1854
 1340ERGO   ROH18131   2.873   0.754   6.307 -0.0321 -0.2269  0.0407
 1340ERGO    R118132   2.906   0.671   6.576  0.0798 -0.1253  0.0587
 1340ERGO    R218133   2.982   0.845   6.777  0.0206 -0.0183 -0.0141
 1340ERGO    R318134   2.757   0.753   6.898  0.1044 -0.1184  0.0693
 1340ERGO    R418135   2.857   0.963   7.076 -0.0299  0.0743 -0.0708
 1340ERGO    R518136   2.809   0.758   7.132  0.1338  0.0666  0.0628
 1340ERGO    C118137   2.572   0.946   7.364  0.0193  0.0343 -0.0255
 1340ERGO    C218138   2.557   1.102   7.557 -0.0642 -0.2234 -0.0134
 1341ERGO   ROH18139  15.758   7.973   6.484  0.0726 -0.1286  0.2225
 1341ERGO    R118140  15.563   7.949   6.688  0.0066 -0.0900  0.1646
 1341ERGO    R218141  15.605   8.038   6.946 -0.0955  0.0058  0.1502
 1341ERGO    R318142  15.374   8.175   6.901 -0.1023 -0.0458  0.0225
 1341ERGO    R418143  15.360   8.094   7.183 -0.3082 -0.1678 -0.0238
 1341ERGO    R518144  15.210   8.057   7.030 -0.1726 -0.1484 -0.1611
 1341ERGO    C118145  15.001   8.255   7.280 -0.4384 -0.3172 -0.2450
 1341ERGO    C218146  14.784   8.353   7.484  0.0784 -0.0507  0.1283
 1342ERGO   ROH18147   3.859  16.827  10.183 -0.1036  0.0879 -0.0046
 1342ERGO    R118148   3.971  16.761   9.931  0.0289  0.0524  0.0627
 1342ERGO    R218149   3.862  16.568   9.765  0.0820  0.0700  0.0065
 1342ERGO    R318150   3.864  16.770   9.583  0.2336  0.0620 -0.0017
 1342ERGO    R418151   3.935  16.530   9.430  0.0429 -0.0035  0.0063
 1342ERGO    R518152   4.047  16.717   9.438  0.1898 -0.0884 -0.0048
 1342ERGO    C118153   3.980  16.698   9.064  0.1624 -0.0537 -0.0014
 1342ERGO    C218154   3.921  16.829   8.724 -0.0802  0.1221  0.1293
 1343ERGO   ROH18155   7.841   7.272   6.665  0.2418  0.0180 -0.0096
 1343ERGO    R118156   7.891   7.478   6.853  0.5151  0.0251 -0.0852
 1343ERGO    R218157   7.797   7.468   7.113  0.1285  0.4282 -0.1973
 1343ERGO    R318158   8.059   7.509   7.174  0.1698 -0.1997  0.1244
 1343ERGO    R418159   7.917   7.535   7.430 -0.1610  0.5276 -0.1055
 1343ERGO    R518160   8.055   7.680   7.342  0.3748  0.0505 -0.1153
 1343ERGO    C118161   8.233   7.612   7.672 -0.2908 -0.0041  0.2500
 1343ERGO    C218162   8.492   7.527   7.851 -0.1507  0.1134 -0.1169
 1344ERGO   ROH18163   6.968  15.898   6.503  0.0375 -0.1708  0.1405
 1344ERGO    R118164   6.853  16.000   6.741  0.0711 -0.1191  0.1351
 1344ERGO    R218165   6.928  15.911   6.991  0.2055  0.0327  0.1512
 1344ERGO    R318166   6.971  16.176   7.037  0.0897  0.0766  0.0133
 1344ERGO    R418167   6.902  16.064   7.300  0.1074  0.1889  0.0666
 1344ERGO    R518168   6.807  16.234   7.202  0.0466  0.0970 -0.0366
 1344ERGO    C118169   6.928  16.401   7.523 -0.0585  0.3211 -0.1121
 1344ERGO    C218170   6.977  16.513   7.869 -0.1512 -0.2352 -0.3091
 1345ERGO   ROH18171   8.008   2.234   9.912  0.0647 -0.3259  0.0377
 1345ERGO    R118172   8.102   2.317   9.658  0.0804 -0.2422  0.0691
 1345ERGO    R218173   8.212   2.141   9.476  0.0895 -0.1864  0.0118
 1345ERGO    R318174   8.023   2.244   9.311  0.0961 -0.1276  0.0428
 1345ERGO    R418175   8.215   2.116   9.131  0.0062 -0.2020  0.0129
 1345ERGO    R518176   8.145   2.322   9.120  0.0804 -0.1825  0.0154
 1345ERGO    C118177   8.039   2.198   8.776 -0.0360 -0.1559  0.0426
 1345ERGO    C218178   8.074   1.976   8.506  0.1140 -0.1054 -0.0247
 1346ERGO   ROH18179  10.941  10.780   8.229 -0.1650 -0.0519  0.1226
 1346ERGO    R118180  10.839  10.817   8.491 -0.0097  0.0365  0.1713
 1346ERGO    R218181  10.708  10.616   8.629 -0.1868  0.1730  0.1985
 1346ERGO    R318182  10.894  10.671   8.819 -0.0404 -0.0712  0.1302
 1346ERGO    R418183  10.646  10.633   8.969 -0.0895  0.4350  0.2062
 1346ERGO    R518184  10.779  10.805   8.980  0.2255  0.2128  0.0985
 1346ERGO    C118185  10.785  10.694   9.345  0.1046  0.3583  0.1466
 1346ERGO    C218186  10.826  10.682   9.716 -0.1164 -0.0752  0.2889
 1347ERGO   ROH18187   7.847   2.182   6.600  0.0788  0.1301 -0.0508
 1347ERGO    R118188   7.838   2.094   6.869  0.0627  0.0694 -0.0706
 1347ERGO    R218189   7.823   2.269   7.083  0.0621  0.0228 -0.0299
 1347ERGO    R318190   7.605   2.120   7.148  0.0516  0.0187 -0.0756
 1347ERGO    R418191   7.678   2.257   7.396  0.0672 -0.0738 -0.0314
 1347ERGO    R518192   7.650   2.043   7.370  0.0489 -0.0612 -0.1039
 1347ERGO    C118193   7.390   2.110   7.640  0.0604 -0.1339 -0.0751
 1347ERGO    C218194   7.226   2.068   7.918  0.0950 -0.2779  0.3824
 1348W        W18195   8.552  12.009  13.590 -0.2141  0.0464 -0.0276
 1349W        W18196   6.709   9.223  15.275 -0.2302  0.2504 -0.1384
 1350W        W18197   5.722  17.030   3.722  0.0648 -0.2411  0.0263
 1351W        W18198  10.195   3.973  14.736  0.0093  0.2608  0.0201
 1352W        W18199  14.533  16.072   0.397  0.1029 -0.1419 -0.1627
 1353W        W18200   3.926  16.203  13.657  0.1257 -0.2581  0.0129
 1354W        W18201  11.297   8.652   1.748  0.0105  0.0030 -0.1777
 1355W        W18202   2.596  13.397   2.189 -0.0815 -0.3006 -0.3981
 1356W        W18203   3.710   5.456   6.141  0.2209  0.0027 -0.0292
 1357W        W18204  15.073  12.364   3.350 -0.0562  0.0085  0.3348
 1358W        W18205  13.185  12.953   4.388  0.0862  0.1522  0.0576
 1359W        W18206   5.274   6.917   4.743  0.2156  0.4521  0.3536
 1360W        W18207   8.852  10.735   0.614  0.2215 -0.3118 -0.2409
 1361W        W18208   5.384  13.843  14.455 -0.0160  0.0880  0.0809
 1362W        W18209  16.201   8.258   6.071 -0.0502  0.2051 -0.2492
 1363W        W18210  17.359  14.738   3.328 -0.0192  0.2381 -0.2363
 1364W        W18211   6.151  14.096  12.742 -0.1051 -0.1639  0.0271
 1365W        W18212  13.915   5.194   1.293  0.1485 -0.1027  0.0966
 1366W        W18213   7.708  10.331   4.553 -0.0125 -0.1453  0.0882
 1367W        W18214   2.770   8.819  15.637 -0.0696  0.1564  0.1035
 1368W        W18215  15.830  16.433   0.646  0.1266 -0.0458  0.1777
 1369W        W18216   2.530  16.867   1.909 -0.2861  0.0381 -0.0324
 1370W        W18217   0.606   6.764   4.960  0.0223 -0.3204  0.1174
 1371W        W18218  13.492   2.931  11.568  0.0391  0.0883 -0.1280
 1372W        W18219  14.040  10.291   1.215  0.0263  0.1583 -0.0910
 1373W        W18220  12.496  11.848   3.629 -0.0573 -0.1663 -0.0212
 1374W        W18221  10.132  16.215  13.108 -0.1522  0.2459 -0.0949
 1375W        W18222  14.329   8.772  14.503  0.0601  0.0776 -0.0445
 1376W        W18223   8.404   7.930  14.719  0.1345  0.1390  0.0042
 1377W        W18224   9.533   4.968  14.315  0.0598  0.3393 -0.0757
 1378W        W18225  12.891   8.740  13.239 -0.0964 -0.0215  0.0986
 1379W        W18226  16.419   6.117   1.741 -0.0020 -0.3665 -0.0716
 1380W        W18227  16.817  14.319   0.652 -0.0713 -0.2607  0.1135
 1381W        W18228  10.260  15.518  15.244  0.1704  0.2044 -0.0661
 1382W        W18229  14.192   5.108   4.574  0.2519 -0.0377 -0.2769
 1383W        W18230   0.612   5.685  15.851 -0.0282  0.0684 -0.0157
 1384W        W18231  13.288  11.583   2.214  0.0698  0.0496  0.0308
 1385W        W18232  14.212  15.661   3.792  0.2034 -0.0104  0.1119
 1386W        W18233   7.361  13.325   0.305  0.0995  0.0656 -0.0602
 1387W        W18234   6.066  17.918  15.102  0.0899  0.0042  0.0418
 1388W        W18235  14.187   5.453  12.791  0.0114  0.2466  0.1455
 1389W        W18236   1.672   4.955   4.280 -0.2617  0.0253 -0.1999
 1390W        W18237   8.796   5.215   3.038 -0.0071 -0.0691 -0.1462
 1391W        W18238   5.625  12.868   4.476  0.0046 -0.0367  0.0743
 1392W        W18239   7.545   3.689  11.161 -0.0922 -0.0796  0.4100
 1393W        W18240  14.496   8.177   3.665  0.1951  0.1764  0.1083
 1394W        W18241  14.386   5.570  13.294  0.0058 -0.2237 -0.2039
 1395W        W18242  16.631  12.200   0.332 -0.0702  0.0624 -0.1200
 1396W        W18243   1.672   7.454   2.275 -0.0826 -0.0840  0.3808
 1397W        W18244  10.613   5.677   4.869 -0.3296  0.0764  0.3057
 1398W        W18245   5.866  17.476  14.214  0.1154  0.0317 -0.2070
 1399W        W18246  17.352   4.100   5.323 -0.1870 -0.1075  0.0097
 1400W        W18247   2.432   3.070  11.438 -0.1270  0.0082 -0.1620
 1401W        W18248   9.394   8.839   4.419 -0.0874  0.0115 -0.0241
 1402W        W18249  14.256  14.980   3.159  0.1578 -0.0657 -0.0773
 1403W        W18250  14.021  10.271   2.357  0.0946  0.1324 -0.2571
 1404W        W18251  14.865   7.580   3.644 -0.1108 -0.1348 -0.1188
 1405W        W18252  11.193   1.465   0.879  0.1517 -0.2022  0.0746
 1406W        W18253   7.035  11.175  14.974  0.0335 -0.2315  0.0322
 1407W        W18254  17.046  10.400   6.234  0.0169  0.1501  0.0111
 1408W        W18255  12.289   8.290   2.507 -0.2972 -0.2861  0.0338
 1409W        W18256   9.390   0.308  11.888 -0.0161  0.2034  0.1238
 1410W        W18257  15.862   7.960  12.616 -0.2038  0.1010  0.0244
 1411W        W18258  14.142  17.617  13.041 -0.3319  0.3249 -0.0748
 1412W        W18259  16.632  16.080  14.272 -0.2111  0.0869 -0.0421
 1413W        W18260  14.335  16.649  14.842  0.0415  0.2707 -0.2282
 1414W        W18261  12.320   4.495  13.252  0.0236  0.0352 -0.1288
 1415W        W18262   7.195   2.662   4.451  0.1655  0.2646  0.2439
 1416W        W18263  16.940  10.776  12.830 -0.1294 -0.1540  0.3082
 1417W        W18264   6.434   7.352  12.608  0.0957  0.2279  0.2916
 1418W        W18265  10.497  14.337   1.348  0.1878  0.1844  0.0409
 1419W        W18266   5.378   7.855   2.441  0.1843 -0.2437  0.0447
 1420W        W18267   9.217  10.800   5.762 -0.1203  0.1363  0.1039
 1421W        W18268   8.418   4.742  13.588 -0.2233  0.1182 -0.4698
 1422W        W18269  15.571   8.007  15.367 -0.0400  0.1510 -0.1804
 1423W        W18270   6.713  10.682  14.275  0.0127 -0.1681  0.1366
 1424W        W18271  10.264   7.017   2.035 -0.1335  0.3017 -0.2356
 1425W        W18272  11.260   2.775  12.341 -0.0697 -0.2136  0.0269
 1426W        W18273  11.404  10.828   3.173 -0.0772 -0.0897 -0.0779
 1427W        W18274   6.283  16.963  15.932  0.0260 -0.2359  0.0536
 1428W        W18275   1.998   4.489   4.333 -0.1502  0.0157  0.1729
 1429W        W18276   7.420   7.605  13.637 -0.1770 -0.1194 -0.0345
 1430W        W18277   4.763  10.670   5.260 -0.1941  0.0620  0.0078
 1431W        W18278   1.981  16.984   1.260 -0.2354 -0.2754 -0.1144
 1432W        W18279  12.393   4.106   2.956 -0.1797  0.1101 -0.1150
 1433W        W18280   0.460  15.200   2.368 -0.0680 -0.0117  0.0284
 1434W        W18281   2.204   0.152   3.969 -0.0458  0.0184  0.2749
 1435W        W18282  13.587   4.704  14.082 -0.1448 -0.3423  0.2537
 1436W        W18283   1.422   6.371   3.680  0.2004 -0.0845  0.1228
 1437W        W18284  15.482   3.559  14.697  0.0202 -0.0780  0.1937
 1438W        W18285   9.142   3.119  16.691 -0.0254  0.0133  0.1686
 1439W        W18286   2.044  14.002  15.226 -0.0329  0.0404 -0.1249
 1440W        W18287  17.593   3.797   1.858 -0.0840 -0.1551 -0.0750
 1441W        W18288  16.659  11.462  16.770  0.1655  0.0887  0.0208
 1442W        W18289  14.073  16.755   0.471 -0.0492 -0.1600  0.0100
 1443W        W18290   1.834   2.748  16.523  0.2020 -0.2991 -0.1486
 1444W        W18291   3.884   2.893  11.349  0.2851  0.3372  0.1639
 1445W        W18292  11.967   2.730   2.678  0.1831 -0.3452 -0.0165
 1446W        W18293   6.647   8.709  14.518  0.0329  0.1085  0.0671
 1447W        W18294  15.193  10.197  15.182  0.0895  0.2948 -0.0834
 1448W        W18295   2.975   1.549  12.805 -0.0008  0.2324  0.0585
 1449W        W18296  12.171   8.980  14.457 -0.0009 -0.0017  0.2663
 1450W        W18297  13.762   9.227   0.558 -0.3892 -0.2662  0.0116
 1451W        W18298   3.453   8.251  16.151 -0.0116 -0.0778  0.1997
 1452W        W18299  16.816   2.529   5.732  0.0427  0.3071 -0.0241
 1453W        W18300  13.973   0.610   0.525  0.1038 -0.1225  0.2997
 1454W        W18301   5.593   7.281  16.287 -0.0011 -0.0041  0.0189
 1455W        W18302   8.557  13.257   0.774  0.0400  0.1306 -0.0604
 1456W        W18303  14.365  14.686   0.890 -0.1259 -0.0504 -0.1058
 1457W        W18304   5.369  15.224  12.171 -0.1405 -0.0648  0.1099
 1458W        W18305  12.674   8.564   1.739  0.0750 -0.1010 -0.1364
 1459W        W18306   9.439   7.872   3.554 -0.3362  0.0091 -0.0082
 1460W        W18307  10.673  10.543   4.571 -0.1627  0.0264 -0.0208
 1461W        W18308   0.282  16.088   2.793  0.2848 -0.1693 -0.4089
 1462W        W18309  14.108   6.064  14.192  0.2278 -0.1248  0.1711
 1463W        W18310   0.243  14.167   4.161 -0.0311 -0.3300 -0.1724
 1464W        W18311  12.999   0.457   2.773  0.0329  0.1257  0.2834
 1465W        W18312  15.013   2.032  14.462 -0.1467 -0.0545 -0.1380
 1466W        W18313   6.322  12.575   2.836  0.1037 -0.2142  0.0786
 1467W        W18314   3.961  15.545   5.384  0.1459 -0.3189 -0.1540
 1468W        W18315   9.614  11.631   1.315  0.2769  0.2049 -0.0856
 1469W        W18316   9.614   7.010  14.166  0.1600  0.0593  0.0181
 1470W        W18317   7.108  11.519  14.299  0.0563  0.1565  0.0927
 1471W        W18318  11.211  12.588   5.773 -0.3161  0.0451 -0.3108
 1472W        W18319   9.627   2.830   0.086 -0.2320 -0.1830 -0.3783
 1473W        W18320   0.263  11.754  16.733  0.0023  0.0673  0.2244
 1474W        W18321  11.932   4.923   4.073 -0.1078  0.0587  0.0612
 1475W        W18322  13.666  15.030   6.258 -0.0998  0.2238  0.0725
 1476W        W18323   9.176  15.043  13.616 -0.2111 -0.1122 -0.1890
 1477W        W18324   5.668   4.779  13.351  0.0251  0.3981  0.0164
 1478W        W18325   8.585   8.416  16.271  0.1377  0.0559 -0.0387
 1479W        W18326   2.554  14.086   0.773  0.0686 -0.0395  0.0037
 1480W        W18327  16.990  12.244   3.738 -0.0639  0.0195  0.1223
 1481W        W18328   1.817   3.099  14.624  0.2447  0.0559 -0.0602
 1482W        W18329  10.527  17.158   5.593  0.2477 -0.0307  0.1333
 1483W        W18330  10.209   0.883  12.849 -0.3088  0.0806  0.0719
 1484W        W18331   1.664  11.412   2.047 -0.1136  0.1153  0.1404
 1485W        W18332   2.633   5.672   1.849 -0.0389  0.3419  0.3564
 1486W        W18333   9.997  11.723   4.797  0.0972  0.1198 -0.0605
 1487W        W18334   0.856   4.290  16.010 -0.0537  0.2419  0.1070
 1488W        W18335   7.552  15.447   1.159 -0.1884 -0.0516  0.0238
 1489W        W18336  10.873   9.565   1.634  0.1050  0.1798  0.1025
 1490W        W18337  10.100  15.316  15.779 -0.0331  0.2212 -0.1700
 1491W        W18338   7.189   8.952   4.431 -0.0167  0.0741 -0.0272
 1492W        W18339  15.959   0.619   3.332  0.0625 -0.2733  0.0001
 1493W        W18340  10.712   3.239   3.211 -0.0027 -0.1878  0.3988
 1494W        W18341   2.098  17.881  13.175 -0.3604 -0.1160 -0.0456
 1495W        W18342   9.327  15.697  16.190 -0.1303  0.1142 -0.2235
 1496W        W18343  16.892  11.985   0.794 -0.0100  0.2743  0.1477
 1497W        W18344   9.470   6.089  14.936  0.1201 -0.0757 -0.0012
 1498W        W18345   7.571  17.304  11.084  0.2665  0.0169 -0.1423
 1499W        W18346   5.783   6.197  12.955  0.0435  0.0012  0.1224
 1500W        W18347  15.402  14.373  16.332  0.1897  0.1032  0.0894
 1501W        W18348  12.112   3.997  14.258 -0.2771  0.0091  0.4192
 1502W        W18349   4.572   6.224   0.521  0.1080  0.0470  0.0083
 1503W        W18350   3.924   4.728   0.617 -0.0139 -0.0503  0.1895
 1504W        W18351  14.588  12.822   4.493  0.1095  0.0905  0.2569
 1505W        W18352  17.415   6.925  15.421 -0.0522 -0.0350 -0.0528
 1506W        W18353   4.658   3.183  13.363 -0.0962  0.1773  0.2747
 1507W        W18354   5.407   4.155   5.607 -0.1896 -0.2389  0.1562
 1508W        W18355   9.718   7.123  13.653 -0.1815  0.1973  0.1222
 1509W        W18356   2.951  10.142  16.693 -0.0961 -0.0229 -0.2401
 1510W        W18357  10.191   4.729  12.966 -0.3127  0.1678 -0.1742
 1511W        W18358  13.535   7.120   5.456  0.2040 -0.3339  0.0934
 1512W        W18359   9.594   2.487   4.986  0.0503  0.2587 -0.0898
 1513W        W18360   0.751  14.451  14.576  0.0772  0.0588  0.2469
 1514W        W18361  13.043   1.436  15.213 -0.0493  0.2559  0.0107
 1515W        W18362  13.067  12.086   2.098 -0.3607  0.1248  0.2145
 1516W        W18363   8.772   0.698   4.507 -0.2328  0.1545  0.0561
 1517W        W18364  16.711   3.769  14.111  0.0136 -0.2221 -0.0216
 1518W        W18365  15.864  15.959  13.888 -0.1277  0.0753 -0.1163
 1519W        W18366   1.106   3.573  15.818  0.0371 -0.1172  0.0389
 1520W        W18367  10.990  10.254   2.681 -0.1440  0.0414 -0.2799
 1521W        W18368   9.530   5.921   5.539 -0.0346  0.2007 -0.1123
 1522W        W18369  10.180   6.327   1.188 -0.0417 -0.1774  0.0062
 1523W        W18370  14.408  15.534   4.254  0.0460 -0.3150  0.4196
 1524W        W18371  15.349   3.482  11.836  0.2656 -0.1809  0.2342
 1525W        W18372   7.833   3.444   4.364  0.4237  0.0143 -0.4975
 1526W        W18373   2.843  12.044  12.410 -0.2234  0.1381  0.3496
 1527W        W18374  16.996  17.519   1.287 -0.2091  0.1598 -0.1336
 1528W        W18375  11.794  13.408   0.567 -0.2690  0.2293 -0.1467
 1529W        W18376   4.332  13.965  12.428 -0.1775 -0.0654 -0.0340
 1530W        W18377  11.069  14.705   1.263 -0.1277 -0.0652  0.1619
 1531W        W18378   6.739  17.141  15.344 -0.0370 -0.0382  0.2481
 1532W        W18379   8.548  14.816   0.800 -0.0131 -0.1051  0.2221
 1533W        W18380   5.649  15.412   1.831  0.2089 -0.2275  0.1469
 1534W        W18381  15.175  17.740  14.906 -0.1056 -0.3439 -0.0618
 1535W        W18382   2.596   5.095   0.693 -0.2251  0.0518 -0.1402
 1536W        W18383   8.393   1.480  15.072 -0.0246  0.1247  0.1817
 1537W        W18384  17.602  13.411   6.769  0.0760  0.1786  0.0850
 1538W        W18385  10.828   7.737  12.213  0.3291 -0.1371  0.0035
 1539W        W18386  14.864  13.640   2.242  0.0289 -0.2257 -0.0485
 1540W        W18387  12.277   4.606  11.430 -0.1083  0.2774  0.1687
 1541W        W18388  15.006   1.945  13.507  0.0113  0.0060  0.0512
 1542W        W18389   0.806   7.470  15.530  0.0272 -0.1666 -0.0166
 1543W        W18390  15.724   3.898  13.026  0.1801  0.2454  0.0680
 1544W        W18391   4.173  14.540   0.919 -0.1024 -0.1190 -0.3537
 1545W        W18392  11.009   4.642   3.927 -0.1555 -0.1088 -0.0392
 1546W        W18393   9.117   0.028   1.197 -0.0035  0.1252  0.1462
 1547W        W18394  12.385   0.530   2.152  0.2431 -0.1460 -0.3513
 1548W        W18395  13.538  13.500   3.438  0.1148 -0.1397 -0.1642
 1549W        W18396   0.226   5.250   1.793 -0.0544 -0.1111 -0.1753
 1550W        W18397   8.647  17.457  15.590  0.1611  0.0525 -0.0828
 1551W        W18398  14.756   6.155   4.854 -0.0422  0.2373 -0.0545
 1552W        W18399  14.341   7.125  13.751  0.0196  0.0096 -0.0121
 1553W        W18400   3.966   4.411   1.678  0.1945 -0.1515  0.0553
 1554W        W18401   5.934  15.672   0.306 -0.0477  0.3144 -0.0633
 1555W        W18402  10.262  13.564   2.607 -0.0965  0.0202  0.2257
 1556W        W18403  12.516  15.470   0.630 -0.1920 -0.4193 -0.1891
 1557W        W18404   8.360  10.019   3.956 -0.0808 -0.2791 -0.1005
 1558W        W18405  11.806   0.256   5.799 -0.2113  0.1615 -0.0813
 1559W        W18406  11.703   6.242   1.447  0.0502 -0.2749  0.0877
 1560W        W18407   3.285  13.221   3.779  0.0567 -0.2910  0.1404
 1561W        W18408  15.359   4.880  15.572  0.0442 -0.1698 -0.2580
 1562W        W18409   3.205   5.767  15.979 -0.0232 -0.1670 -0.4002
 1563W        W18410  17.318  15.665   1.565  0.0125  0.0912 -0.1367
 1564W        W18411  17.014  11.646   4.929 -0.4226 -0.2781  0.0054
 1565W        W18412   5.377  12.061  15.253 -0.2665  0.0407  0.0455
 1566W        W18413   5.816   1.942  11.483  0.2032  0.2328  0.1574
 1567W        W18414  10.735   5.858   3.732  0.1023 -0.0984 -0.1772
 1568W        W18415  11.258  11.658   3.280 -0.1676  0.2346  0.0039
 1569W        W18416  14.670  11.097   5.073  0.3641  0.0953 -0.1612
 1570W        W18417  16.889  10.735  13.626 -0.0235 -0.1620  0.0657
 1571W        W18418   4.797  13.623  11.827  0.3209  0.1618  0.1429
 1572W        W18419   0.329  13.399  13.481  0.0538 -0.1284 -0.1079
 1573W        W18420  11.651   3.494   4.264  0.1361  0.2434  0.0260
 1574W        W18421   4.094   9.987   1.356  0.1515 -0.2313 -0.2846
 1575W        W18422  11.936   3.613   4.648  0.1055  0.3365 -0.1534
 1576W        W18423   5.049   6.998   1.690 -0.2593 -0.0882  0.1681
 1577W        W18424   4.169   3.842   1.990  0.1675  0.1122  0.0030
 1578W        W18425  10.031   8.510   1.456  0.0603 -0.2319  0.2396
 1579W        W18426  11.918  11.215  15.346 -0.0973 -0.2104 -0.4547
 1580W        W18427   5.005   8.516  12.364  0.3165 -0.0890  0.1433
 1581W        W18428   3.703  15.397   1.128 -0.1231 -0.2625  0.0209
 1582W        W18429   4.741   8.414   0.043  0.2680  0.1652 -0.0529
 1583W        W18430   7.063   4.800  13.098  0.0814  0.0962  0.0583
 1584W        W18431  16.004   1.351  16.451  0.1967 -0.2805  0.1385
 1585W        W18432   6.661  16.106   0.804  0.2148 -0.1207  0.3666
 1586W        W18433   4.097   4.177  14.201  0.2422  0.1097 -0.0734
 1587W        W18434   3.287   1.073  12.485 -0.2052 -0.0209 -0.1162
 1588W        W18435   6.979   7.329   1.772  0.1155 -0.1869 -0.0944
 1589W        W18436   3.556  12.294  15.803  0.1649 -0.0289  0.0179
 1590W        W18437   1.637  16.768  14.598 -0.1086 -0.0125  0.4068
 1591W        W18438   3.108   2.681   3.069  0.0358  0.2391  0.0308
 1592W        W18439   8.420  17.858  13.935  0.2765 -0.0550  0.1466
 1593W        W18440  15.907   9.323  12.217  0.0542 -0.1719  0.3402
 1594W        W18441   9.902  11.518  13.646  0.2245  0.0891 -0.2813
 1595W        W18442   4.633  16.084   2.036 -0.0043  0.0503 -0.1104
 1596W        W18443   9.717   3.330  13.442 -0.2371 -0.0737  0.1937
 1597W        W18444   8.268  16.432   1.041 -0.0662 -0.0435 -0.0782
 1598W        W18445  13.888  14.644  12.562  0.0810 -0.0240  0.2724
 1599W        W18446   1.124  10.235   2.625  0.0479 -0.1679  0.2928
 1600W        W18447   5.129   5.590  11.972 -0.1111 -0.0808 -0.1693
 1601W        W18448   7.621   7.733  15.536  0.0409  0.0619  0.2566
 1602W        W18449   0.404   1.627  12.383 -0.0798  0.0025 -0.1864
 1603W        W18450  15.667  11.873  13.452  0.1148  0.0977  0.1968
 1604W        W18451  13.319  14.295  16.746 -0.2885 -0.0265 -0.1449
 1605W        W18452  14.783   4.841  15.944 -0.3425  0.2215  0.0566
 1606W        W18453  14.654   7.338   1.996  0.2932  0.3106  0.0843
 1607W        W18454  12.487  14.185   4.410  0.1450 -0.0497 -0.1422
 1608W        W18455  13.801  14.207   4.189 -0.1909  0.1544 -0.0833
 1609W        W18456  11.700   9.329  12.958 -0.0188  0.1155 -0.1607
 1610W        W18457  12.972   8.237   3.003 -0.2716 -0.0914 -0.0486
 1611W        W18458   2.715   1.250  13.761  0.3121 -0.2245 -0.0598
 1612W        W18459   6.685   1.408   0.079  0.0671  0.1643 -0.1878
 1613W        W18460   6.333  14.496   3.974  0.2236 -0.0719  0.1630
 1614W        W18461  12.741  14.351  15.121  0.3702  0.2444 -0.2950
 1615W        W18462  14.870   9.863   4.377 -0.1252  0.0811  0.0653
 1616W        W18463   3.423   5.658  16.448 -0.2629  0.1162 -0.0237
 1617W        W18464  12.392   3.380  16.423  0.1435 -0.0416  0.1608
 1618W        W18465  16.095  17.436  16.582 -0.0250  0.0071 -0.2496
 1619W        W18466   2.215   1.349  11.920 -0.2507 -0.1384  0.0786
 1620W        W18467  16.385   4.953   3.537  0.0766  0.1598 -0.2554
 1621W        W18468  13.558  11.332   4.699 -0.2327  0.0141 -0.0989
 1622W        W18469   9.374  11.589   1.764  0.0300  0.1761  0.2888
 1623W        W18470  12.886   8.090  14.243  0.1982  0.0583 -0.0532
 1624W        W18471  11.652   1.763   2.386  0.0540  0.2503 -0.0079
 1625W        W18472   4.371   9.598   0.217  0.1126  0.3036 -0.1489
 1626W        W18473  17.758  17.793   0.235  0.1698  0.2363 -0.1790
 1627W        W18474  13.986   4.544   5.248  0.2634  0.0721  0.2433
 1628W        W18475  17.053   8.073   1.115 -0.0813  0.0102  0.0974
 1629W        W18476  17.195   4.223   3.064  0.1185 -0.2299  0.1950
 1630W        W18477   8.331  10.529   0.467  0.1102 -0.2287  0.1422
 1631W        W18478  15.477   7.119   4.474 -0.1019  0.1003 -0.0278
 1632W        W18479  17.021  17.485  13.787  0.0752 -0.4568  0.0217
 1633W        W18480   6.901   0.883   0.271  0.2741  0.4518  0.3758
 1634W        W18481   2.424  15.474  14.456  0.2112 -0.0658  0.1003
 1635W        W18482   3.093   7.959  15.959 -0.0845 -0.1706 -0.0212
 1636W        W18483   4.491   3.077   0.390  0.0369 -0.1246 -0.0538
 1637W        W18484  16.615   3.251  12.721  0.0809 -0.0307 -0.2596
 1638W        W18485   9.351  17.791   2.418  0.2485  0.1133  0.1889
 1639W        W18486  17.289   5.155   1.981  0.2155  0.2151 -0.1559
 1640W        W18487  14.475   2.108  15.078  0.0513  0.1951  0.1829
 1641W        W18488  11.517   9.482  15.352  0.0373 -0.0673  0.0303
 1642W        W18489   7.185  15.637   1.495 -0.0919 -0.0631  0.1955
 1643W        W18490  17.405   4.935  11.876 -0.2628  0.1684  0.0179
 1644W        W18491   5.631   7.845   3.756 -0.0056  0.0913  0.0987
 1645W        W18492   3.617  15.234  11.253 -0.1212  0.1017 -0.1987
 1646W        W18493   9.669   2.443  14.865  0.0263  0.1690 -0.1542
 1647W        W18494   5.595  14.939   2.036 -0.3566  0.1355 -0.4303
 1648W        W18495   4.893  10.308  15.001  0.0447 -0.1948 -0.2429
 1649W        W18496   6.841  11.450   1.255  0.0001 -0.0949  0.0998
 1650W        W18497   9.645  12.429   3.371  0.0388 -0.0294  0.2180
 1651W        W18498   4.519  11.556   2.066 -0.0571  0.0771 -0.2954
 1652W        W18499   8.993   8.534  12.066  0.0268  0.0514 -0.1627
 1653W        W18500  16.066   8.996   5.201 -0.2585  0.0575 -0.2239
 1654W        W18501  15.106   8.300   2.674  0.0959 -0.0141 -0.2417
 1655W        W18502   5.269  17.685   0.679  0.0145 -0.0603  0.1653
 1656W        W18503   2.082   9.820  12.642 -0.1696  0.1252  0.1504
 1657W        W18504   2.587  13.033  13.606 -0.1603 -0.2388  0.2949
 1658W        W18505   7.443  14.102  14.305 -0.2030 -0.2170  0.1480
 1659W        W18506  11.798   5.857  16.398  0.1486  0.0882 -0.2482
 1660W        W18507  17.393  11.344   4.441 -0.1797 -0.1761 -0.1093
 1661W        W18508   4.629  11.803   0.077  0.2622 -0.1021  0.1907
 1662W        W18509  10.437   6.757  14.369  0.0681  0.2540 -0.2423
 1663W        W18510   5.100   7.737   0.325  0.0364  0.0767 -0.1313
 1664W        W18511   1.784   5.335  12.556 -0.0567  0.1400  0.0751
 1665W        W18512   0.275   6.148   6.096 -0.1713 -0.2057  0.1108
 1666W        W18513  14.733   0.662  13.268 -0.0261 -0.1561  0.1409
 1667W        W18514   7.065   3.063  12.925 -0.4905 -0.0319  0.3522
 1668W        W18515   4.095  15.532   4.453 -0.0567 -0.0260 -0.0977
 1669W        W18516   3.058   4.573  15.573  0.3615  0.0052  0.0287
 1670W        W18517  11.398   5.579   2.550  0.1020  0.1294  0.1884
 1671W        W18518  16.463   8.113  16.431  0.1373 -0.0408  0.2009
 1672W        W18519  11.027  17.812   1.886 -0.1486  0.0167 -0.0990
 1673W        W18520  11.196  15.019   5.850  0.0370 -0.0739 -0.0054
 1674W        W18521   9.012   9.921   1.751 -0.0669  0.2613  0.0958
 1675W        W18522  11.691  13.446  13.810 -0.0683 -0.0039 -0.1859
 1676W        W18523   0.598  15.476   0.869 -0.0396 -0.0299  0.0263
 1677W        W18524   2.328   7.906   2.184  0.0277  0.0311 -0.0266
 1678W        W18525   5.306   6.160   2.625 -0.0955  0.1073 -0.2361
 1679W        W18526  17.187   6.562  15.703 -0.2185  0.0899  0.1568
 1680W        W18527   9.327  14.534  13.277  0.0442 -0.0120 -0.0112
 1681W        W18528   7.012   1.437  14.287  0.0957  0.1898  0.3088
 1682W        W18529  16.911  13.590  12.573 -0.3872  0.4996 -0.1215
 1683W        W18530   8.638   6.470  15.068 -0.1473  0.1385 -0.3061
 1684W        W18531   0.780  14.341   3.378 -0.3037 -0.1044  0.0670
 1685W        W18532  15.150  16.113   4.005 -0.0600  0.4264 -0.0277
 1686W        W18533   4.644  10.387  12.141  0.2191  0.0144  0.1238
 1687W        W18534  16.669   6.483  13.960 -0.0113  0.1583 -0.1091
 1688W        W18535  11.284   3.363   3.205 -0.1194 -0.0292 -0.2597
 1689W        W18536   7.020  13.676   5.356  0.1928 -0.1668 -0.0252
 1690W        W18537   5.745  10.279   0.784 -0.0571  0.1342  0.1842
 1691W        W18538   3.832   9.988   3.416  0.2467 -0.0180 -0.0033
 1692W        W18539   3.410   0.176  15.332 -0.1115 -0.2220  0.1827
 1693W        W18540   0.148   2.422  15.052 -0.2090  0.1913  0.0156
 1694W        W18541   1.313  12.470  12.353 -0.0579 -0.2120 -0.3163
 1695W        W18542  14.498   1.339  15.355 -0.0179  0.0212 -0.1461
 1696W        W18543   2.248   9.951  13.073 -0.0338  0.0652  0.3038
 1697W        W18544   1.162   4.883   0.393  0.2127  0.0086 -0.0770
 1698W        W18545   1.680   2.522  11.637 -0.0327  0.0863 -0.0744
 1699W        W18546   8.686   3.832  12.780  0.1056  0.2740 -0.0364
 1700W        W18547   8.664   7.446  14.901  0.0188  0.1191  0.0088
 1701W        W18548   9.841  12.079   3.726 -0.0668  0.1453 -0.0222
 1702W        W18549   6.490  10.552   0.329  0.1300  0.0339  0.0824
 1703W        W18550  11.565   9.867  13.072 -0.0841  0.1138 -0.2268
 1704W        W18551  14.485   9.910  13.403 -0.0574 -0.2535  0.1429
 1705W        W18552  12.585  12.773  11.933  0.1080 -0.0930 -0.0937
 1706W        W18553  14.184   3.932   5.651 -0.0106 -0.0328 -0.1102
 1707W        W18554   0.147   3.357  13.824 -0.0228  0.1501 -0.1235
 1708W        W18555  14.463  17.572   3.981  0.2282 -0.1020  0.0117
 1709W        W18556  11.909   2.612  12.182 -0.1487  0.0290 -0.0963
 1710W        W18557   7.025   1.384  11.378  0.0168  0.0544  0.3561
 1711W        W18558  17.928   6.737  15.156 -0.3176 -0.1452  0.0446
 1712W        W18559   3.304  11.297   5.163 -0.0855  0.1878  0.0433
 1713W        W18560   9.577   4.980   4.021 -0.1245  0.2617 -0.2680
 1714W        W18561   6.004  14.075  16.179  0.4039  0.1052 -0.1162
 1715W        W18562   4.446  12.253  11.869 -0.0318 -0.3019 -0.1523
 1716W        W18563  15.885   4.271   2.727 -0.3302 -0.1611  0.4210
 1717W        W18564   1.709   0.792  16.159  0.1204  0.1529 -0.1096
 1718W        W18565   5.999   4.986  16.673 -0.1579  0.1072  0.0802
 1719W        W18566  13.885   5.763   0.993  0.1275  0.2892 -0.2162
 1720W        W18567   7.754   5.021  11.783  0.1834  0.0922  0.0884
 1721W        W18568   2.790   0.421   1.050  0.2544 -0.0517  0.1199
 1722W        W18569   2.341   9.199   5.360  0.1726  0.1932 -0.3049
 1723W        W18570  11.480   7.887  14.987  0.0020 -0.1381  0.2656
 1724W        W18571  15.908  11.837  15.625  0.0277 -0.0906 -0.1612
 1725W        W18572   6.923   9.465  13.022  0.0114 -0.3193 -0.0027
 1726W        W18573   0.559   9.424  14.364 -0.0452  0.1627 -0.2685
 1727W        W18574   2.723  11.284  15.315  0.2836  0.1886 -0.1751
 1728W        W18575  17.258  17.033   3.330 -0.0539 -0.1754 -0.2306
 1729W        W18576   9.725   5.770   0.016  0.3256 -0.1962 -0.0565
 1730W        W18577   0.215  11.012  12.217  0.1341 -0.3069  0.1513
 1731W        W18578  12.303   4.925  11.909  0.3167  0.2067 -0.1729
 1732W        W18579   0.212   8.825  13.306  0.0015  0.0949  0.0763
 1733W        W18580   8.920   7.168  15.736 -0.1495 -0.1175  0.0547
 1734W        W18581   1.514   1.551  12.709 -0.2176 -0.0849 -0.1069
 1735W        W18582  10.419   3.668   5.164 -0.4388 -0.0371  0.0751
 1736W        W18583   7.448  11.956  14.823 -0.5051 -0.1611  0.1102
 1737W        W18584   8.215  14.860   1.733 -0.0519  0.4213  0.0285
 1738W        W18585  16.437  14.696  16.537 -0.3022 -0.2545 -0.0237
 1739W        W18586   2.639  16.398   4.351 -0.1580 -0.1066  0.0866
 1740W        W18587  13.778   1.217   4.886 -0.0885  0.5186  0.1605
 1741W        W18588   3.905  17.870  11.724  0.1317 -0.0171 -0.4157
 1742W        W18589   7.326  12.979   0.790 -0.2378 -0.2086 -0.2402
 1743W        W18590   4.009  10.449   1.449 -0.0117 -0.0903 -0.2019
 1744W        W18591   6.619   9.343   1.117 -0.4867 -0.0782  0.0377
 1745W        W18592   4.023   3.965  16.370 -0.1959  0.0861 -0.0419
 1746W        W18593  13.436   2.723   2.193  0.3181  0.2107  0.1779
 1747W        W18594   0.089   0.234  16.691 -0.1427  0.2169  0.0157
 1748W        W18595  10.825   0.550   5.506  0.1758 -0.2904  0.0098
 1749W        W18596   3.362  16.049   0.532  0.0876  0.1415  0.1676
 1750W        W18597   0.240   0.875  14.278  0.3120 -0.6034  0.0441
 1751W        W18598  16.512  11.805  16.492  0.2571  0.0010  0.1118
 1752W        W18599   2.591   3.262   4.269 -0.0064 -0.1212  0.0897
 1753W        W18600   8.503  17.785   2.215  0.0858 -0.1803 -0.2749
 1754W        W18601  14.184  14.459  15.519  0.1096  0.0158  0.1154
 1755W        W18602   5.277  14.347   5.956  0.1194  0.1608  0.2276
 1756W        W18603   6.235   9.080  12.116 -0.0870 -0.0569 -0.2262
 1757W        W18604   1.024   9.147   0.837 -0.1116  0.4559 -0.0492
 1758W        W18605   5.129   0.563  15.910 -0.0004 -0.0144 -0.2469
 1759W        W18606  15.661   6.182  15.677 -0.0639  0.4914  0.2903
 1760W        W18607   9.388   5.667   0.661  0.3146  0.1327 -0.1363
 1761W        W18608   2.956  15.322  16.272 -0.0799  0.0509 -0.2459
 1762W        W18609   8.228  13.150   2.697 -0.2760  0.3431  0.0502
 1763W        W18610   2.893  16.551   1.032 -0.1308  0.1163 -0.0797
 1764W        W18611  11.960   3.224  15.169 -0.4412 -0.1423  0.2849
 1765W        W18612   4.555   1.211  14.434 -0.2041 -0.0883  0.2853
 1766W        W18613   3.809  17.298   2.351 -0.1700 -0.0670 -0.1289
 1767W        W18614   9.834  17.288  15.667 -0.0177 -0.0208 -0.0116
 1768W        W18615   3.279   1.551   1.709 -0.2545 -0.0029 -0.2036
 1769W        W18616  15.741   6.294   0.347 -0.5012  0.0930 -0.0687
 1770W        W18617  14.275  10.272   5.721  0.2577  0.3793  0.3541
 1771W        W18618   1.667   8.562   3.135  0.1088 -0.3299 -0.1313
 1772W        W18619   2.075  15.008  15.331  0.0352 -0.0310  0.3459
 1773W        W18620  11.066  13.910  12.607  0.0140  0.1266  0.2847
 1774W        W18621  15.408  14.011   4.760 -0.1311 -0.0211  0.0401
 1775W        W18622   5.831   3.268  12.273 -0.0666  0.2304 -0.0288
 1776W        W18623  13.810  17.133   2.739 -0.2604 -0.1347 -0.0331
 1777W        W18624   2.227   2.131  13.518  0.2312 -0.3413 -0.1579
 1778W        W18625  10.707   2.578  14.956  0.0210  0.1707 -0.0779
 1779W        W18626   5.892   1.191  11.677  0.1393 -0.0075  0.2487
 1780W        W18627  17.428   2.013   3.830 -0.1508 -0.1218 -0.0355
 1781W        W18628   5.044   0.050  15.958  0.0745  0.1005  0.0595
 1782W        W18629  15.147  11.910  12.693  0.0053 -0.1753  0.0547
 1783W        W18630  13.440  17.735  14.640  0.2645  0.2053  0.1756
 1784W        W18631  14.421   4.400   1.688 -0.1354  0.0421 -0.3654
 1785W        W18632   6.793  17.494  15.849  0.1092 -0.0282 -0.2421
 1786W        W18633  15.180   2.806   5.918 -0.4751 -0.0577  0.3744
 1787W        W18634  10.834   0.397   3.295 -0.0159  0.3477 -0.0474
 1788W        W18635   4.121  14.110  15.824  0.0604 -0.0331  0.0456
 1789W        W18636   3.487   1.561   1.239 -0.0592  0.4116 -0.0174
 1790W        W18637   7.691  16.838   0.908 -0.0013 -0.1993 -0.1803
 1791W        W18638  17.389  16.347  14.643 -0.4405  0.2635 -0.1177
 1792W        W18639   8.286   5.016  11.831  0.1374 -0.3752  0.2200
 1793W        W18640   3.709  12.932  12.018  0.0828  0.1212  0.0544
 1794W        W18641   4.710  10.883   5.824 -0.2289 -0.1036  0.3922
 1795W        W18642  11.464  11.393  15.051 -0.2734  0.5113  0.1092
 1796W        W18643   7.267  17.094  14.562 -0.1560  0.3359  0.1177
 1797W        W18644  17.943  16.842   4.979  0.0627 -0.0934 -0.1256
 1798W        W18645  15.834  14.408  13.251 -0.1573 -0.1131  0.1680
 1799W        W18646   7.705  11.767  11.010  0.0959 -0.0667 -0.1762
 1800W        W18647  11.385   9.232   4.108 -0.2869 -0.0065 -0.1568
 1801W        W18648   4.398   2.646  16.508  0.1585 -0.0228 -0.2119
 1802W        W18649  14.779   2.989   0.330 -0.0917  0.1153 -0.0885
 1803W        W18650  11.277   5.979  11.330 -0.0216 -0.0062 -0.1526
 1804W        W18651  16.103   6.276  15.317  0.0850  0.0412 -0.2540
 1805W        W18652   5.727   3.357   4.536  0.2034  0.1863 -0.0036
 1806W        W18653  14.427   6.206   0.842  0.1014 -0.0778  0.1722
 1807W        W18654  15.044   8.457  11.547  0.1778 -0.0314 -0.0261
 1808W        W18655   7.421   2.733  11.492  0.1794 -0.1541  0.0052
 1809W        W18656   6.025  15.027  13.962 -0.3052  0.2959 -0.0539
 1810W        W18657  16.340   9.272  11.860 -0.1834  0.2674  0.3189
 1811W        W18658   8.746   6.098  13.758 -0.0819  0.0345  0.1354
 1812W        W18659   6.137   3.105   5.324 -0.1207  0.0547  0.0483
 1813W        W18660   0.885  15.928   4.889  0.1855 -0.0708  0.0622
 1814W        W18661   7.639   2.773   2.424  0.1048 -0.1182 -0.0355
 1815W        W18662   7.948  16.070  12.712 -0.0664 -0.1357  0.0642
 1816W        W18663  17.458  13.705   2.050 -0.0713  0.1566  0.1298
 1817W        W18664   1.661   2.005   2.526  0.0936  0.2457 -0.1852
 1818W        W18665  16.385  12.731   0.438 -0.3590 -0.0955  0.1032
 1819W        W18666   8.110   3.355   0.208  0.2429 -0.2222 -0.0222
 1820W        W18667   4.384   2.831   5.585 -0.0690  0.1754 -0.1634
 1821W        W18668   1.714   4.064  12.432 -0.1559 -0.0455  0.1714
 1822W        W18669  11.895  17.403  12.806  0.2914  0.2400  0.0901
 1823W        W18670  17.782  13.176   5.919  0.3600  0.1427 -0.2584
 1824W        W18671   5.109   3.117  13.545  0.3429  0.2638  0.2930
 1825W        W18672   6.630  11.478  14.138  0.1675  0.3978  0.5059
 1826W        W18673   0.534  12.855   5.357 -0.0077 -0.0807 -0.1410
 1827W        W18674   4.230  16.129  15.482 -0.1683 -0.4456  0.0168
 1828W        W18675  10.510   2.081  15.024 -0.1554  0.0711  0.4037
 1829W        W18676  13.657   8.491  14.986 -0.1869 -0.1074  0.2348
 1830W        W18677   9.081   7.992  16.420  0.0445  0.0057  0.1512
 1831W        W18678  16.933   7.550   2.379  0.5729 -0.1962 -0.4206
 1832W        W18679  14.180  17.438   2.666 -0.0569  0.0431 -0.0556
 1833W        W18680   2.885  12.499  14.336  0.2985 -0.2458  0.4642
 1834W        W18681   5.161   1.953   0.942 -0.0116  0.4365  0.0160
 1835W        W18682  13.138   6.163   2.747 -0.0438  0.1929  0.1007
 1836W        W18683   9.543   4.891   4.883  0.0014  0.0933 -0.1414
 1837W        W18684  11.344  10.023  15.097  0.0321  0.0372  0.0765
 1838W        W18685   0.118  10.184   0.028  0.0973 -0.2786  0.2307
 1839W        W18686   7.422   2.364   4.128  0.3047  0.0814 -0.1217
 1840W        W18687  15.431  13.778  14.398  0.2580 -0.0368  0.2887
 1841W        W18688  15.761  11.280   2.376 -0.4499  0.0658 -0.1948
 1842W        W18689  12.368  10.305  12.324 -0.1611  0.2586 -0.1889
 1843W        W18690   9.937  16.209   3.985  0.1513  0.1003 -0.2794
 1844W        W18691  17.089   4.942   0.447  0.2482 -0.0879  0.0009
 1845W        W18692   8.042  11.530   4.833 -0.1608  0.0801 -0.0073
 1846W        W18693  11.029  10.961  13.130 -0.0928  0.0211 -0.2491
 1847W        W18694  17.303   1.837  15.256 -0.0599 -0.1564  0.0253
 1848W        W18695   9.862   6.754   2.007  0.1115 -0.2729 -0.1439
 1849W        W18696  15.870  13.880  15.689  0.1401  0.0483  0.1197
 1850W        W18697   0.856  10.073  13.646 -0.0809  0.0229  0.1091
 1851W        W18698  12.672   3.142  14.498  0.1657  0.0674  0.1752
 1852W        W18699   3.494  10.699  16.507 -0.0782 -0.0217  0.2900
 1853W        W18700   8.828  16.933   1.471 -0.1249 -0.2580  0.2231
 1854W        W18701  13.016   1.517   1.404  0.0800 -0.1522  0.0312
 1855W        W18702   5.171  15.273  12.688  0.0899  0.2550  0.1349
 1856W        W18703  15.859   6.380  16.435  0.0984  0.0248 -0.0142
 1857W        W18704   2.904  12.243  11.962 -0.0316  0.0103 -0.0618
 1858W        W18705  11.659   0.333  11.787  0.0776  0.1002  0.2149
 1859W        W18706  14.731   4.990   0.047  0.0912 -0.3538 -0.0818
 1860W        W18707   8.505   3.928  11.493 -0.1913  0.1755 -0.0460
 1861W        W18708  12.876  13.636   2.426 -0.0423 -0.0018  0.0466
 1862W        W18709   6.593   3.040   2.458 -0.2044 -0.0003 -0.3359
 1863W        W18710   4.397  16.466   4.601  0.2796  0.0345  0.1555
 1864W        W18711   8.990  17.896   4.811  0.1152  0.0050  0.0923
 1865W        W18712   8.241  10.343  15.941 -0.0487 -0.2074 -0.2941
 1866W        W18713  13.791   3.858   4.020 -0.1184 -0.1036  0.3999
 1867W        W18714   4.669   5.993  16.054 -0.2443 -0.0288 -0.0895
 1868W        W18715   9.181  14.755   0.248 -0.0927  0.0093 -0.0290
 1869W        W18716   6.453   4.817  16.533  0.0683 -0.1168  0.0521
 1870W        W18717  12.966  17.185  14.760 -0.0953 -0.2194 -0.1192
 1871W        W18718  17.600   5.563   1.950 -0.2734 -0.2942 -0.1438
 1872W        W18719  16.888   9.115   4.641  0.4763  0.2417  0.0998
 1873W        W18720   6.215  17.287   3.886 -0.2506 -0.0399 -0.1377
 1874W        W18721  13.632  17.944   6.360  0.0258  0.0218  0.1713
 1875W        W18722  11.806   9.052   2.322 -0.0581 -0.1719  0.0584
 1876W        W18723  10.198  10.406  13.916  0.0645  0.1298  0.1961
 1877W        W18724   5.373   2.684   5.717 -0.1216 -0.1878  0.3168
 1878W        W18725  12.867  10.116   2.870  0.1327  0.1991 -0.3121
 1879W        W18726   7.746   3.190   1.130 -0.2410  0.0909  0.1808
 1880W        W18727  10.123  14.026  16.596  0.1642 -0.2849 -0.0730
 1881W        W18728  11.702   7.295  15.939 -0.0690 -0.1986 -0.2132
 1882W        W18729   2.157  17.290   4.579 -0.1910  0.0018 -0.1104
 1883W        W18730   8.968   4.482   3.476 -0.1789  0.0284 -0.0241
 1884W        W18731  14.662   8.920  15.495  0.1196 -0.1924 -0.1798
 1885W        W18732  15.630  13.206  16.002  0.2349 -0.0168 -0.0510
 1886W        W18733  15.114  15.916   2.652 -0.2841  0.1579 -0.0150
 1887W        W18734   3.317   4.050   3.657  0.2575 -0.1783  0.0905
 1888W        W18735   4.741  10.751   6.284  0.4017  0.2948  0.1422
 1889W        W18736  13.578   6.756   4.941  0.0761 -0.0405 -0.1032
 1890W        W18737  15.984  10.587   3.052  0.0516 -0.0246 -0.0678
 1891W        W18738   1.926  15.906   3.347  0.0094  0.1175 -0.0604
 1892W        W18739  10.246  12.418  15.314  0.2161  0.0426  0.0956
 1893W        W18740   0.518   3.217   3.425 -0.2532 -0.1422 -0.0507
 1894W        W18741   7.795   7.139  15.534 -0.1169  0.1190 -0.1711
 1895W        W18742  11.796   8.684  14.248  0.1584 -0.0371 -0.0094
 1896W        W18743  13.792   5.210   4.323 -0.4222  0.3997 -0.1703
 1897W        W18744   9.347   4.007   2.519  0.1394 -0.1912 -0.1856
 1898W        W18745   5.163  12.050   2.982  0.0686  0.0875 -0.1120
 1899W        W18746   6.792   7.125  16.216 -0.0755  0.0293  0.1564
 1900W        W18747   4.351  11.948   3.101  0.2658  0.0197 -0.0977
 1901W        W18748  13.237   7.500  12.679  0.2874 -0.0746 -0.2968
 1902W        W18749  11.901  14.342   1.616 -0.0648 -0.1532 -0.0189
 1903W        W18750  11.092   9.991  15.742 -0.1301 -0.2390 -0.1603
 1904W        W18751  13.077   3.720   4.429 -0.4017  0.1521 -0.2444
 1905W        W18752   7.273   7.079   3.672  0.0992  0.0151  0.1356
 1906W        W18753  12.132  11.663   5.258 -0.0725  0.1637  0.0947
 1907W        W18754   6.390   8.887  16.080  0.3482 -0.1890  0.0890
 1908W        W18755  14.094  15.280  15.161 -0.1890  0.0415 -0.1745
 1909W        W18756   6.193   6.652  16.641 -0.0827  0.2056 -0.0868
 1910W        W18757  13.571  15.623  12.555 -0.1169 -0.5093 -0.1541
 1911W        W18758  13.113   4.690   1.745 -0.4639 -0.1765 -0.1335
 1912W        W18759   9.420  15.055   4.604 -0.0817 -0.1847  0.0947
 1913W        W18760  14.448   1.351  16.327 -0.1595  0.1537 -0.0018
 1914W        W18761   4.500   8.140  12.853  0.0093 -0.1208  0.4123
 1915W        W18762  10.358   1.163  15.221  0.0899 -0.4150  0.0881
 1916W        W18763  17.176  15.787  11.412  0.2360  0.1144  0.0358
 1917W        W18764   9.567  16.655   0.687 -0.0777  0.3385 -0.1017
 1918W        W18765  12.258  16.946  12.105 -0.0343  0.1196 -0.0355
 1919W        W18766   3.889  11.509   0.505  0.0827 -0.2593  0.0494
 1920W        W18767   7.268  10.679   3.634  0.0553  0.0900  0.0392
 1921W        W18768  14.203  14.738  13.421  0.0791 -0.0005 -0.0742
 1922W        W18769   4.612   7.166  12.586 -0.0436  0.1894  0.0716
 1923W        W18770  14.019  13.175   4.533 -0.2521  0.1379  0.1106
 1924W        W18771  10.330  16.554   4.955 -0.2080  0.0327 -0.1088
 1925W        W18772   7.933  17.314   2.913 -0.1365  0.0125  0.0005
 1926W        W18773  15.768  11.563   3.540 -0.0207  0.0153 -0.0396
 1927W        W18774  14.998   4.468   1.909  0.0286  0.0648  0.0512
 1928W        W18775  11.206  14.284  13.105 -0.1117  0.1657  0.1702
 1929W        W18776  14.785  16.157  13.125  0.0222 -0.1363  0.1400
 1930W        W18777  16.902   1.889  16.166  0.2720 -0.0196  0.1331
 1931W        W18778  14.844  17.928   4.018  0.0346  0.0089  0.1015
 1932W        W18779   6.124  10.899   2.326  0.0378 -0.0674 -0.2029
 1933W        W18780   1.333  14.773   4.106 -0.1427 -0.0573 -0.0652
 1934W        W18781   9.070  14.273  11.813 -0.4020  0.0399 -0.0501
 1935W        W18782  16.714  14.928   2.983  0.0941 -0.3716 -0.2839
 1936W        W18783  17.382  12.910   6.093 -0.1704  0.4380  0.0991
 1937W        W18784   5.021  17.239  12.162  0.0692 -0.1799 -0.0249
 1938W        W18785   1.799  13.591   0.570 -0.1069  0.2678  0.0120
 1939W        W18786   9.860   2.683  15.301 -0.1343  0.0334 -0.0519
 1940W        W18787   1.352   5.694  11.150 -0.1451  0.0527 -0.0975
 1941W        W18788   6.759  14.270  13.990 -0.2296 -0.0459 -0.0607
 1942W        W18789  14.467  11.179   5.859 -0.1645  0.2318 -0.1806
 1943W        W18790   3.978  16.351  12.750  0.2113  0.1184  0.0961
 1944W        W18791   9.887  14.729  15.152 -0.2677 -0.1705 -0.2834
 1945W        W18792   8.895  17.783   5.315 -0.0159  0.1830  0.1035
 1946W        W18793   6.768  10.406   6.280  0.0379 -0.2049  0.1651
 1947W        W18794  11.812  10.940  14.475 -0.2619 -0.0967 -0.3321
 1948W        W18795  15.877  17.827  12.226 -0.0615  0.0357 -0.0718
 1949W        W18796   9.898  12.808  16.564 -0.0918 -0.0339 -0.2311
 1950W        W18797   4.770  13.406   2.958 -0.0176 -0.0881  0.0709
 1951W        W18798  17.476   5.149   0.144  0.1820 -0.2998  0.3245
 1952W        W18799  12.701   9.550   4.408 -0.0478 -0.0775 -0.0487
 1953W        W18800  12.991   5.203   4.149 -0.2633  0.1610  0.1920
 1954W        W18801   4.187  16.416   2.121  0.1437 -0.2242  0.1316
 1955W        W18802  13.980   4.586  14.385  0.0804 -0.0528  0.0352
 1956W        W18803   2.048   4.867  12.031  0.2934 -0.0862  0.0486
 1957W        W18804   1.533   1.134  15.699 -0.1205  0.0871 -0.0166
 1958W        W18805  15.914   6.655  14.652 -0.2265 -0.1650  0.2362
 1959W        W18806  14.373   1.152  14.068 -0.1882 -0.2523  0.2248
 1960W        W18807   6.331   7.342   2.592  0.1182 -0.0741  0.0726
 1961W        W18808   0.503  17.442  11.652 -0.0024 -0.1708  0.0429
 1962W        W18809   8.335  13.920  13.960  0.0990  0.3211 -0.0686
 1963W        W18810   8.580   0.465  11.755  0.0187  0.2276 -0.2650
 1964W        W18811   2.206   7.047   5.346 -0.1621 -0.1013 -0.0484
 1965W        W18812   2.670  11.584  16.049  0.3846 -0.0102 -0.1962
 1966W        W18813   4.931   1.439  15.358 -0.0117 -0.0631  0.1049
 1967W        W18814   9.274   0.992  14.241 -0.1313 -0.1416 -0.0384
 1968W        W18815   3.109   6.187  13.587 -0.0876  0.0857  0.0219
 1969W        W18816  13.915  12.134   5.423 -0.0431 -0.1860 -0.3900
 1970W        W18817  15.085   3.903  11.680  0.1109  0.0479 -0.1153
 1971W        W18818   7.109   4.370   0.505 -0.0519 -0.2882  0.0146
 1972W        W18819   6.714  15.337  16.464 -0.0132  0.0505 -0.1051
 1973W        W18820   1.029  15.289   1.894  0.5032  0.1391 -0.1259
 1974W        W18821  16.347  12.813  16.317 -0.0098 -0.2335  0.0420
 1975W        W18822   0.301  17.750  12.942  0.1153  0.0179  0.1720
 1976W        W18823   3.471   9.012   4.488  0.2175  0.1888  0.1924
 1977W        W18824   3.377  15.574   0.795  0.0335  0.2132  0.2537
 1978W        W18825   7.430  14.092   4.720 -0.1948  0.3104 -0.0392
 1979W        W18826   0.512   4.758   0.033  0.3016 -0.1058 -0.0368
 1980W        W18827  16.727  15.117  15.108  0.0895  0.1093 -0.2249
 1981W        W18828   0.687   9.595   2.180 -0.3345 -0.0629 -0.2395
 1982W        W18829   1.083   9.230  11.871 -0.2500  0.0504 -0.1791
 1983W        W18830  14.533  10.620  12.314  0.0506 -0.1077  0.0907
 1984W        W18831  14.537   5.680   0.564 -0.1863 -0.0290 -0.0028
 1985W        W18832   8.502   3.095   4.072 -0.1119  0.2368 -0.0763
 1986W        W18833   8.109   9.157   5.020  0.1917  0.0323 -0.0270
 1987W        W18834   2.407   8.364   2.313 -0.1800  0.2752  0.1503
 1988W        W18835   3.640   5.244  13.024 -0.0125 -0.1516 -0.3110
 1989W        W18836   2.819   4.054   4.290 -0.2038  0.0868 -0.4700
 1990W        W18837   8.564   3.626   2.432 -0.1936 -0.0985 -0.0971
 1991W        W18838   5.021  15.908  15.365 -0.3860  0.2521  0.2454
 1992W        W18839   9.974  15.610  14.417  0.0077  0.2595  0.0690
 1993W        W18840   7.649   1.459   2.108 -0.1044  0.3350  0.0631
 1994W        W18841   9.508   4.605   4.326  0.0908 -0.0979  0.3938
 1995W        W18842   5.738  11.492   4.108 -0.0931  0.0698  0.0324
 1996W        W18843  11.868   3.967   3.400 -0.0196  0.0310 -0.0013
 1997W        W18844   5.369  13.491  14.074  0.2378  0.0699 -0.2676
 1998W        W18845   0.431  11.504   3.264  0.2087  0.0542 -0.0192
 1999W        W18846   8.856   5.339  12.843 -0.3216 -0.1239 -0.3202
 2000W        W18847  13.787  15.580   1.933  0.0392 -0.1360  0.0456
 2001W        W18848   6.219   0.403  14.285 -0.1311  0.0860  0.0511
 2002W        W18849  16.102  14.476   0.150 -0.0301 -0.1317  0.0787
 2003W        W18850   4.447  11.928  15.774  0.0277 -0.0677 -0.1750
 2004W        W18851  11.412   7.725   5.209  0.2706 -0.1856 -0.1437
 2005W        W18852  17.863   0.492  15.147  0.0961  0.1354 -0.2474
 2006W        W18853  11.741   4.209   0.146 -0.0040  0.4032 -0.2027
 2007W        W18854   0.871   8.190  11.724  0.0869 -0.0021 -0.0148
 2008W        W18855  17.000  13.959   3.112  0.1851  0.0247 -0.0293
 2009W        W18856   5.413  17.331  12.922 -0.0369 -0.0274  0.0496
 2010W        W18857   3.061  10.081  13.461  0.1635  0.1903  0.0204
 2011W        W18858  12.584   5.635   4.047 -0.0894  0.0350  0.0959
 2012W        W18859  17.294   3.172  16.690  0.1286  0.1531  0.1830
 2013W        W18860   6.675   7.868   3.617  0.0097  0.0329 -0.0312
 2014W        W18861   5.860  16.107   1.844 -0.1393 -0.0751  0.2549
 2015W        W18862   9.017  10.317   0.414 -0.0673  0.0004 -0.0321
 2016W        W18863   6.000  12.848  14.097  0.0747 -0.1777  0.2785
 2017W        W18864   9.237  15.828  12.093 -0.0402 -0.1727 -0.1834
 2018W        W18865  15.865  16.613  11.893  0.1189 -0.1840  0.1199
 2019W        W18866  11.003  17.521   3.074 -0.3619  0.1501 -0.2462
 2020W        W18867   7.218  16.681   0.720  0.3110  0.0708  0.0724
 2021W        W18868   0.703   0.865  13.828 -0.1896 -0.0946 -0.0134
 2022W        W18869   3.777   0.105  12.309 -0.2073  0.1648  0.0193
 2023W        W18870   1.335   3.718  16.302  0.0865 -0.0654 -0.2878
 2024W        W18871  16.290   7.728   6.251  0.1579 -0.1209  0.1168
 2025W        W18872   7.763  12.088  16.076 -0.1685  0.2810 -0.1622
 2026W        W18873  12.333   6.975   5.905  0.1550  0.1481  0.0536
 2027W        W18874   0.349  10.304   3.211 -0.2613  0.0952  0.2548
 2028W        W18875  15.357   2.764   2.053 -0.0446  0.0207 -0.0810
 2029W        W18876  13.615  10.952  13.440  0.2730 -0.5592 -0.1213
 2030W        W18877  11.167  12.598   3.957 -0.1493 -0.2263 -0.1873
 2031W        W18878   2.517  10.680   4.234 -0.1170  0.2110  0.2295
 2032W        W18879  13.670   0.769   3.501 -0.1669  0.1173  0.1791
 2033W        W18880   0.156   2.050  15.441  0.3866 -0.2596  0.0315
 2034W        W18881  17.256   9.948   6.170  0.0487 -0.2311 -0.0285
 2035W        W18882   1.749   4.380  16.125 -0.0562  0.0347  0.3056
 2036W        W18883   3.601   7.372  12.901  0.0887 -0.1659 -0.1379
 2037W        W18884   1.346  17.397  15.039  0.0802 -0.1008 -0.0536
 2038W        W18885   8.651   8.740   4.353 -0.0472  0.3021  0.1654
 2039W        W18886  10.909  14.700   6.067  0.0482  0.1344  0.2428
 2040W        W18887  10.631   7.860  14.643  0.0021  0.1664 -0.1635
 2041W        W18888   9.708  12.545  16.160  0.0149 -0.0046  0.0820
 2042W        W18889  11.956   2.189   3.362 -0.1131  0.1161  0.2436
 2043W        W18890  11.577   4.336  11.860 -0.0653 -0.2405  0.1071
 2044W        W18891   7.428  12.578  11.447 -0.1565 -0.1172  0.0615
 2045W        W18892  13.676   6.077   3.772 -0.1010 -0.0503 -0.2443
 2046W        W18893   0.037   8.762  13.787  0.1815 -0.0091  0.0606
 2047W        W18894  14.563  16.556  13.262 -0.0817 -0.0283  0.0929
 2048W        W18895   3.559   6.958   2.760  0.0342 -0.1569  0.0660
 2049W        W18896   9.523  13.125  15.285 -0.0893 -0.1326  0.1932
 2050W        W18897   3.064   8.690   0.031 -0.0341  0.0969 -0.1457
 2051W        W18898   2.236   9.809   2.864 -0.1971 -0.1429  0.0732
 2052W        W18899   8.943   2.377   3.530  0.0290  0.2226 -0.1527
 2053W        W18900   0.509   3.568  12.466 -0.5061  0.0892 -0.0165
 2054W        W18901   0.351   8.574   2.758 -0.0782 -0.1240  0.0515
 2055W        W18902   4.710  14.507   5.291  0.0648  0.0140 -0.1093
 2056W        W18903  11.354   9.321   3.500  0.0856 -0.0524  0.0145
 2057W        W18904  12.476  15.003   1.248  0.2574  0.1910 -0.0647
 2058W        W18905   4.550  12.592   1.806 -0.4928 -0.4033  0.3142
 2059W        W18906   3.069  10.450   5.339 -0.0170 -0.4330 -0.0220
 2060W        W18907  17.562   6.640  11.798 -0.0703 -0.1429  0.5041
 2061W        W18908   9.169  15.257   0.033  0.0490  0.0464  0.0123
 2062W        W18909  14.327   1.073   3.875  0.1326 -0.1650 -0.1525
 2063W        W18910  17.072  11.267   0.201  0.0922  0.2289  0.0644
 2064W        W18911  15.903   3.271  13.415  0.0458 -0.0627  0.2124
 2065W        W18912   0.789   6.139   0.020 -0.2535  0.2623  0.2728
 2066W        W18913   4.975  10.131  16.031 -0.4048  0.1447 -0.3430
 2067W        W18914   2.075   8.712   3.377  0.1626  0.2114  0.0483
 2068W        W18915   1.881   2.016   2.056  0.0202  0.4507 -0.0494
 2069W        W18916   9.102   9.903   2.742  0.0120  0.0335  0.2115
 2070W        W18917  13.067   6.545   0.662  0.1393  0.1733 -0.1956
 2071W        W18918  11.791   4.388   3.749  0.3063  0.1336 -0.1538
 2072W        W18919  12.058   1.477  12.631  0.2675 -0.1965 -0.1672
 2073W        W18920  15.392  11.709   0.266 -0.1651 -0.0867 -0.0589
 2074W        W18921   5.064   4.305   4.029  0.0583  0.0640  0.4214
 2075W        W18922   5.551  13.018  14.153 -0.0673 -0.1395  0.0065
 2076W        W18923   1.865   4.913  14.899  0.1259 -0.1903  0.1634
 2077W        W18924  13.290   5.538   2.048 -0.1196 -0.0564 -0.1575
 2078W        W18925   1.759   6.596   2.325  0.0297  0.0643  0.0847
 2079W        W18926  17.904   1.293  14.154 -0.1002 -0.2200 -0.0685
 2080W        W18927   8.582  11.609  12.498  0.0711 -0.4783 -0.4585
 2081W        W18928   8.351   7.220  14.530 -0.2002 -0.1070  0.1611
 2082W        W18929   8.118   7.831   2.350 -0.2319 -0.1874  0.1191
 2083W        W18930  16.902  10.554   1.847 -0.1151 -0.0293 -0.2022
 2084W        W18931   9.460   3.830   0.981 -0.1384  0.0345  0.0428
 2085W        W18932  16.615  10.860  12.437 -0.2649  0.3981  0.2209
 2086W        W18933   7.643   5.164  12.300 -0.3993 -0.1184  0.1221
 2087W        W18934   9.722  17.223   5.159 -0.1468 -0.2419  0.0506
 2088W        W18935  14.580   3.323  14.888 -0.0263  0.1559  0.0094
 2089W        W18936  14.979  16.455  13.502  0.1425 -0.0959 -0.0764
 2090W        W18937  16.795   4.059  16.761 -0.4255  0.0788  0.3366
 2091W        W18938  15.653  14.519  13.860 -0.1784 -0.3479  0.4147
 2092W        W18939   6.866  16.885  12.251 -0.1855  0.0512  0.0877
 2093W        W18940  16.226   1.176  14.849  0.0803 -0.0667 -0.0121
 2094W        W18941  13.127  12.936  16.505  0.0613  0.0576 -0.0141
 2095W        W18942  15.660   2.957   0.330  0.2731 -0.0246  0.1902
 2096W        W18943   5.756  16.880   4.956 -0.2120 -0.2251 -0.2041
 2097W        W18944  17.175   3.181  14.209  0.1961  0.2067 -0.0070
 2098W        W18945  10.500   7.600   0.486  0.0112  0.2140  0.0156
 2099W        W18946   6.481   9.491   0.040  0.1616  0.0636  0.0328
 2100W        W18947   2.155   3.176  16.513  0.1365  0.0214 -0.1960
 2101W        W18948  12.432   4.657   1.247  0.0017 -0.1949 -0.2568
 2102W        W18949   1.871   6.017  16.644 -0.2750  0.0386 -0.4387
 2103W        W18950  15.407   7.636  11.852  0.1360 -0.1950  0.0491
 2104W        W18951   7.656   4.979   1.052 -0.0107 -0.1005  0.2899
 2105W        W18952  10.841  17.789   4.539  0.0484 -0.1841  0.0224
 2106W        W18953  10.943   1.547   3.746 -0.0794  0.1378  0.0880
 2107W        W18954  10.475   1.922   3.305  0.1819 -0.0891  0.3013
 2108W        W18955   5.411   7.060   0.899  0.0377  0.3390 -0.1440
 2109W        W18956   1.019   0.734   1.148  0.2410  0.1886 -0.1471
 2110W        W18957   3.031  17.644   2.625  0.0361  0.0041  0.0010
 2111W        W18958   5.829   8.165   3.427 -0.1008 -0.1595  0.1095
 2112W        W18959  10.717  16.245  11.745 -0.1474 -0.1366 -0.0023
 2113W        W18960  16.760   0.310   0.418  0.0580 -0.1022  0.0638
 2114W        W18961   4.284   7.837  14.169 -0.0086 -0.1971 -0.1363
 2115W        W18962  17.310   9.367   0.432  0.1227 -0.3363  0.1951
 2116W        W18963  17.587  17.044  15.818  0.4303 -0.0653  0.0263
 2117W        W18964   1.230   0.054  12.267  0.1233  0.0934 -0.2522
 2118W        W18965   7.024   0.266  15.348  0.1063 -0.1602 -0.0462
 2119W        W18966   4.599   2.931  11.906  0.1857  0.1464  0.2154
 2120W        W18967  14.068   5.050  14.446 -0.0794  0.1031  0.0818
 2121W        W18968   3.327   2.834  16.509  0.1756  0.2973  0.1440
 2122W        W18969   5.770  14.223  12.381  0.1305  0.0534 -0.2054
 2123W        W18970  13.519  12.327   1.386 -0.1353  0.0907 -0.2761
 2124W        W18971  10.917  10.380   3.948 -0.1561 -0.0344 -0.1457
 2125W        W18972  15.830  11.207   0.506 -0.1081 -0.0758 -0.0959
 2126W        W18973   5.698  10.270   2.092  0.0611 -0.0953  0.0703
 2127W        W18974  12.410   7.145  16.386 -0.0637 -0.1747  0.1658
 2128W        W18975  17.867  10.089  13.802 -0.4297  0.0967 -0.0737
 2129W        W18976   1.530   7.398   5.063  0.1971 -0.2410  0.2243
 2130W        W18977   9.630   4.773  15.969 -0.1872 -0.0336 -0.0197
 2131W        W18978   7.255  15.402  13.162  0.1093 -0.1462  0.0346
 2132W        W18979   6.199  13.392   1.524 -0.0240 -0.2398  0.0245
 2133W        W18980  17.775   3.799  12.481  0.1361  0.0944 -0.0862
 2134W        W18981  13.931  10.176  14.480 -0.3214  0.0717 -0.0491
 2135W        W18982   4.824  11.718   0.595  0.0815 -0.2086  0.5152
 2136W        W18983  13.869  17.801  13.471  0.0520 -0.0097  0.1585
 2137W        W18984  11.316   1.827   2.015  0.1575  0.1227 -0.1494
 2138W        W18985  10.701  17.485  15.975 -0.1830  0.0908 -0.0774
 2139W        W18986   1.992  17.631  11.863  0.1335 -0.0335  0.1508
 2140W        W18987  15.568   1.890  14.582  0.0930  0.1358  0.0454
 2141W        W18988   6.912  12.781  13.586 -0.0512  0.2662 -0.1477
 2142W        W18989   6.337  13.676   3.057  0.2282  0.0748  0.2290
 2143W        W18990  15.180  11.431  16.680 -0.0938 -0.1823 -0.0469
 2144W        W18991   6.770  13.899   1.250 -0.1340  0.1775  0.1183
 2145W        W18992   7.579  15.776   5.191  0.2797  0.0348 -0.0729
 2146W        W18993  17.050  12.112  14.004 -0.1730 -0.0035  0.0579
 2147W        W18994  17.199   2.923  12.047 -0.0356  0.1885  0.0438
 2148W        W18995  11.318   2.134   2.637  0.1111  0.1022 -0.0990
 2149W        W18996  16.535  12.571   5.600 -0.0818  0.1789  0.0817
 2150W        W18997  16.645   8.673  14.439 -0.0495  0.0883 -0.2758
 2151W        W18998  15.039  16.100   4.489  0.1955 -0.0552 -0.2533
 2152W        W18999  16.653  15.189   3.421 -0.1469  0.1345 -0.0785
 2153W        W19000  10.444  13.820  11.794  0.1915  0.3736  0.0946
 2154W        W19001  14.841   3.092   1.287 -0.2838  0.2825 -0.3870
 2155W        W19002   7.334  16.675  12.951 -0.1042 -0.1176  0.1849
 2156W        W19003   0.233   1.316   0.112  0.1916 -0.1169 -0.2546
 2157W        W19004   5.067  17.803   3.566 -0.2766 -0.1703 -0.0741
 2158W        W19005  15.815   8.218   4.527 -0.1981  0.0162 -0.0284
 2159W        W19006   5.634   0.483   5.085  0.1035 -0.1294  0.1387
 2160W        W19007   2.511  13.581   0.795  0.1591  0.1718 -0.0629
 2161W        W19008  15.023  16.023   5.375 -0.0296  0.0577 -0.2020
 2162W        W19009  12.985   4.379  14.307  0.0795 -0.0704  0.1887
 2163W        W19010   0.220  11.757  15.253  0.0711  0.0476 -0.0175
 2164W        W19011   0.059   3.563  16.692  0.1372  0.1690  0.0025
 2165W        W19012  16.270  14.559  12.714 -0.1204 -0.0423  0.1048
 2166W        W19013  11.933  15.478  15.917  0.1382  0.0157  0.1269
 2167W        W19014   5.549  14.987  12.915 -0.0750 -0.0679 -0.1098
 2168W        W19015  11.661  14.334  12.019 -0.4129  0.0674 -0.1808
 2169W        W19016   4.614  16.008   4.510  0.0011 -0.0606  0.3321
 2170W        W19017   0.393   3.693   3.439 -0.0712  0.1480  0.1363
 2171W        W19018   6.875   0.507  16.582  0.2167  0.2721  0.2890
 2172W        W19019   9.372   5.010   2.267  0.2926  0.1749 -0.1990
 2173W        W19020   8.779   5.448  14.382 -0.0019  0.0415  0.0005
 2174W        W19021   4.824   3.517   3.403 -0.1264 -0.1348  0.1639
 2175W        W19022   8.366  12.062   4.797  0.2788  0.4083  0.1713
 2176W        W19023  12.399   5.253   1.204  0.0025 -0.0947  0.1713
 2177W        W19024  11.582   6.129  15.555 -0.0410 -0.2178 -0.1053
 2178W        W19025  11.994  11.596   3.468 -0.2472 -0.0183  0.1021
 2179W        W19026   6.710   8.761  12.501 -0.0320  0.0731 -0.3596
 2180W        W19027  12.595  11.939   2.366  0.0077  0.2551  0.0718
 2181W        W19028  15.251   0.865  16.242  0.0167  0.1456  0.0518
 2182W        W19029  15.288   4.390  13.670 -0.1609 -0.2994 -0.1136
 2183W        W19030  17.064  14.301   3.493  0.0625  0.1883 -0.0930
 2184W        W19031  10.781  17.724  11.885 -0.2499 -0.3442 -0.0329
 2185W        W19032   0.907   8.750  14.879  0.2432 -0.0193  0.1698
 2186W        W19033   3.338  15.203   3.356 -0.2688 -0.4168 -0.0238
 2187W        W19034   2.909  10.662   3.886 -0.1544 -0.3007 -0.2903
 2188W        W19035   8.205   6.720   0.591 -0.3556  0.0621  0.3782
 2189W        W19036  10.831  10.470   1.080  0.1051 -0.1202 -0.1188
 2190W        W19037   3.562   9.182  15.928 -0.1111  0.0429 -0.1208
 2191W        W19038   0.297  13.039  16.793  0.1387 -0.2391 -0.2970
 2192W        W19039   7.333   7.134   3.178 -0.1703  0.2304  0.5082
 2193W        W19040   4.382   5.080   1.255  0.0551 -0.0652 -0.1112
 2194W        W19041  13.482  17.836   4.601  0.0191 -0.0506  0.2006
 2195W        W19042   8.394   8.326   3.520 -0.0534  0.0966  0.4088
 2196W        W19043  14.536  11.661  15.474  0.1715  0.0265  0.0498
 2197W        W19044   6.282   4.980  12.890  0.1255 -0.3701  0.1283
 2198W        W19045   4.981  13.041   1.121 -0.1566  0.1836 -0.2601
 2199W        W19046   5.802   6.622   5.465 -0.0638  0.1379 -0.0501
 2200W        W19047   8.106   4.663  14.073 -0.0242  0.1114  0.3436
 2201W        W19048  14.812  14.815  14.028 -0.1047 -0.0601 -0.2062
 2202W        W19049   7.630   7.169  13.204  0.3258 -0.2091 -0.0477
 2203W        W19050  16.284   5.486  16.763 -0.0377  0.1570 -0.0476
 2204W        W19051  17.058   0.937   3.103 -0.0618  0.0048  0.0594
 2205W        W19052   2.923   8.697   3.159  0.1115  0.1526  0.0196
 2206W        W19053   7.400   4.342  14.797 -0.0846  0.1332 -0.0413
 2207W        W19054  14.458  13.283  16.166  0.0941 -0.1404 -0.1974
 2208W        W19055   0.421  16.948  16.131  0.2392  0.2247 -0.4296
 2209W        W19056   3.790  11.741  12.032  0.4152  0.3106  0.1480
 2210W        W19057   3.547   1.271   0.289  0.0645 -0.0727 -0.0731
 2211W        W19058   3.332  17.430  13.532  0.2095  0.0362  0.0319
 2212W        W19059  12.360   4.928   4.665 -0.1400 -0.0335  0.2008
 2213W        W19060   9.670  11.405  13.162  0.2179 -0.1485 -0.3603
 2214W        W19061   7.526   6.395  16.113  0.0743 -0.3906 -0.0309
 2215W        W19062   0.829  12.367  14.485 -0.0090  0.0763  0.2674
 2216W        W19063  15.753   3.478   2.277 -0.2507  0.0806  0.1732
 2217W        W19064  12.258   8.801   2.018  0.1856  0.1239  0.0949
 2218W        W19065  14.647   1.464  11.183 -0.0502  0.0061  0.3221
 2219W        W19066   9.244  13.085   5.471 -0.1738 -0.1850  0.0181
 2220W        W19067   8.742   2.899  14.717 -0.0629  0.2805 -0.0941
 2221W        W19068   8.117  13.044   3.198  0.0068 -0.2139 -0.0844
 2222W        W19069   5.997  14.588  12.067 -0.1741  0.2126 -0.0991
 2223W        W19070   1.840   1.843   5.266  0.3036  0.0845  0.0517
 2224W        W19071  11.185   7.487  14.867  0.2503 -0.1050  0.0970
 2225W        W19072  14.780  15.714  14.870 -0.1562  0.0972  0.1841
 2226W        W19073  11.688  12.759   1.168 -0.0435 -0.3161  0.1100
 2227W        W19074  12.685   6.307  15.884 -0.0641 -0.0933 -0.1563
 2228W        W19075   3.037  16.678   4.535 -0.2228  0.1964 -0.1557
 2229W        W19076  12.987   0.358  16.074 -0.2958 -0.2112  0.0685
 2230W        W19077  16.275   8.507   5.324 -0.0236 -0.3662 -0.2263
 2231W        W19078   6.324   6.087   1.733  0.2286  0.0130  0.0851
 2232W        W19079   5.220  15.697  14.526 -0.2416 -0.0090 -0.2646
 2233W        W19080   9.853   0.949   1.735  0.4520  0.1384  0.2670
 2234W        W19081   6.903   0.719  15.627 -0.0737  0.1419 -0.0539
 2235W        W19082   1.997   7.580  13.677 -0.0113  0.1809 -0.0894
 2236W        W19083   3.765   9.571   1.441 -0.0418 -0.0640  0.1766
 2237W        W19084   6.510  11.604  12.712  0.0046 -0.1127  0.1475
 2238W        W19085   0.754   9.353  15.760  0.1446 -0.2374  0.2018
 2239W        W19086  10.378   0.283   0.801  0.1328 -0.1738  0.0608
 2240W        W19087   4.208  13.263   1.208 -0.1894  0.3830 -0.0412
 2241W        W19088   7.039   8.784   3.056  0.1799  0.3733 -0.4374
 2242W        W19089   1.885  14.439  11.886 -0.2662  0.3121  0.1042
 2243W        W19090  16.115   6.712   0.469  0.0764  0.1315 -0.0086
 2244W        W19091  13.173   8.531  15.927 -0.0715  0.0795 -0.2206
 2245W        W19092  17.545   6.180  15.491 -0.2338  0.0058  0.1542
 2246W        W19093  11.735  11.952   6.177  0.0438 -0.2079 -0.1698
 2247W        W19094   3.506   6.001  11.885 -0.2536 -0.2356  0.0029
 2248W        W19095   2.897   4.309   3.822  0.1074  0.1734 -0.0480
 2249W        W19096  15.494   8.151  12.870 -0.3063  0.0548 -0.0052
 2250W        W19097   0.255  15.724   0.590  0.0351  0.0763 -0.0400
 2251W        W19098  12.392  12.187  12.899  0.1916  0.0862  0.3405
 2252W        W19099   6.383   7.817  13.319 -0.1773 -0.0876  0.0586
 2253W        W19100  16.337  11.536   4.249  0.0559  0.0222  0.1411
 2254W        W19101  13.747   1.618   1.661  0.0548  0.0569  0.0885
 2255W        W19102  16.853  15.827  13.889 -0.0556  0.5298 -0.2695
 2256W        W19103   8.615   6.525  13.558  0.0738  0.0832 -0.0901
 2257W        W19104   1.738  12.467   4.201  0.1612 -0.0974  0.2457
 2258W        W19105   0.184  11.176   1.076 -0.1948  0.0582  0.1400
 2259W        W19106  13.546  13.761  12.338 -0.1135  0.0355  0.0619
 2260W        W19107   0.931   2.828   0.808  0.0536  0.1867  0.1883
 2261W        W19108   2.547  15.582   4.650  0.1766  0.0146 -0.0694
 2262W        W19109   3.586   5.312   1.695  0.1489  0.0583 -0.2160
 2263W        W19110  17.019  11.122  15.936  0.1857 -0.1723  0.2901
 2264W        W19111  12.637  10.041  13.647  0.0071  0.1460  0.1931
 2265W        W19112  13.044   4.300   3.612 -0.2883 -0.2494 -0.0367
 2266W        W19113  15.728   3.701  16.118 -0.2366  0.3974 -0.0127
 2267W        W19114   7.104  11.154   3.318  0.2242 -0.2213 -0.1085
 2268W        W19115   3.470  17.535  14.046 -0.1476 -0.1024  0.1069
 2269W        W19116   4.985  10.785   4.700 -0.1203 -0.0295  0.0535
 2270W        W19117  13.869   7.374  15.748  0.1364 -0.3755 -0.0785
 2271W        W19118  15.785   1.216   4.120  0.3397  0.0894  0.1021
 2272W        W19119   2.547  11.704  13.397 -0.0269  0.2178  0.0715
 2273W        W19120  17.639   1.737  14.860  0.1887  0.2388  0.3246
 2274W        W19121  11.440   2.325   4.952 -0.0598  0.2862 -0.4914
 2275W        W19122   6.188  15.904   3.938 -0.0304  0.1722  0.3522
 2276W        W19123  13.265  14.629   0.848  0.1238  0.0168 -0.0681
 2277W        W19124   3.471  15.153  16.296 -0.2605  0.0037 -0.3043
 2278W        W19125   1.170   2.298  11.635  0.1504  0.3884 -0.2261
 2279W        W19126   5.217   0.775  11.274 -0.4022  0.0721  0.3828
 2280W        W19127  12.364   3.452  15.652 -0.0458 -0.0602 -0.0079
 2281W        W19128  13.610   8.660   2.806  0.0206 -0.2129 -0.0205
 2282W        W19129   1.838   0.506  14.416  0.1721 -0.1759 -0.2394
 2283W        W19130  16.359  12.828  14.906 -0.2086  0.1672 -0.5664
 2284W        W19131   5.071   8.258  11.951  0.0314 -0.1464  0.0766
 2285W        W19132  10.897   7.840   2.839 -0.0360  0.0842  0.0060
 2286W        W19133  13.339   2.765  16.139  0.1609 -0.0319 -0.0574
 2287W        W19134   9.014   3.527  10.827 -0.3357  0.0858 -0.0530
 2288W        W19135   8.782   6.219  15.541  0.1579  0.2610 -0.0737
 2289W        W19136  17.358   0.432   1.758  0.0995 -0.3299  0.0947
 2290W        W19137   3.903  10.998   0.515 -0.3227 -0.1126  0.0145
 2291W        W19138  10.166  11.445  15.543 -0.1142  0.0284  0.2152
 2292W        W19139   7.050  12.832   4.729  0.1222  0.2990 -0.0953
 2293W        W19140  11.396  13.460   0.866  0.0246  0.0509 -0.0274
 2294W        W19141   7.586   4.127   3.408 -0.3958 -0.1795 -0.0602
 2295W        W19142  16.348   8.149  15.840 -0.1112  0.0710  0.0227
 2296W        W19143   5.783   5.203   0.980 -0.0882  0.4342  0.1778
 2297W        W19144  15.372   8.478  14.557  0.1537  0.0375  0.3660
 2298W        W19145   8.960   7.018  11.831  0.2326 -0.2050 -0.3930
 2299W        W19146  16.080   3.789  13.355  0.2370 -0.0359  0.2893
 2300W        W19147  14.626   1.509   3.182  0.0447 -0.0295  0.2142
 2301W        W19148  12.573   1.335  16.099  0.3508 -0.0221 -0.0404
 2302W        W19149  15.941  14.954  16.390 -0.0730  0.0268  0.0867
 2303W        W19150  10.250  13.638   3.670  0.2403 -0.2740  0.1150
 2304W        W19151   1.730   4.282  15.109  0.1421  0.1350 -0.0431
 2305W        W19152   1.851   5.453   0.584  0.0391 -0.1470  0.2010
 2306W        W19153  13.507  17.806  16.576 -0.0702  0.0570  0.1820
 2307W        W19154   7.647  11.426   5.070  0.1159 -0.0702  0.1325
 2308W        W19155   4.242  17.345   2.700  0.0241  0.0790  0.0655
 2309W        W19156  11.901  13.623   2.234 -0.1255 -0.2522 -0.4563
 2310W        W19157  10.086   9.502  12.034  0.1870 -0.2018 -0.3305
 2311W        W19158   4.839   5.191  16.505  0.0316 -0.0039 -0.1092
 2312W        W19159   1.272  15.413  13.531 -0.0679 -0.0327 -0.2645
 2313W        W19160  13.013   5.076   0.380 -0.0202  0.0399 -0.0524
 2314W        W19161  13.345  13.836   0.151 -0.1748 -0.1044 -0.1054
 2315W        W19162  10.084   7.440  15.748 -0.2032 -0.2512  0.2185
 2316W        W19163   0.138   1.997  11.281 -0.1597  0.1298  0.2058
 2317W        W19164   9.049  15.761   4.899 -0.2540 -0.2439  0.0567
 2318W        W19165   8.207   9.302  16.330  0.2845 -0.1286 -0.0371
 2319W        W19166   1.792  10.602   3.021 -0.2594  0.2776 -0.1922
 2320W        W19167   6.909   6.862   0.761  0.0010 -0.0247  0.0925
 2321W        W19168  10.517   7.640  13.278  0.0032  0.1042 -0.1264
 2322W        W19169  14.573  16.054   4.216 -0.0928 -0.0832 -0.0682
 2323W        W19170  12.725   2.201  13.291  0.1430 -0.3221 -0.3975
 2324W        W19171   3.818  12.626   5.415 -0.0494 -0.0014  0.1187
 2325W        W19172   7.508   6.296   1.162  0.0365  0.1909  0.0191
 2326W        W19173  12.186   3.282   1.607  0.2823  0.2094 -0.3087
 2327W        W19174  14.859   3.220  16.315  0.2200  0.0842  0.1901
 2328W        W19175  10.691  15.805   3.950  0.2608 -0.0763  0.2316
 2329W        W19176   4.624  13.213   1.551 -0.0782  0.0441 -0.5969
 2330W        W19177  12.174  16.561  11.780  0.0327  0.1185  0.2630
 2331W        W19178   6.736   7.081   4.634  0.1326  0.0872 -0.1651
 2332W        W19179   2.769  17.255   5.240  0.0959  0.0217  0.1823
 2333W        W19180   4.905  16.271   0.414  0.1385  0.0165 -0.2869
 2334W        W19181  13.505   0.454   6.059 -0.2155  0.1274 -0.0230
 2335W        W19182   5.386  14.429   4.315  0.2784 -0.0509 -0.1474
 2336W        W19183   0.209  11.800   1.817 -0.0547 -0.1755 -0.2154
 2337W        W19184   3.491   3.352  15.688 -0.0661  0.0802 -0.1919
 2338W        W19185  17.929  13.433   0.193 -0.1055  0.0891 -0.5670
 2339W        W19186   4.330  11.512   3.337 -0.0359 -0.0616  0.2577
 2340W        W19187   3.088   1.460  11.727 -0.2504  0.4876  0.0147
 2341W        W19188   3.116   0.947   1.964  0.1630 -0.1768 -0.1705
 2342W        W19189   4.306   1.078   4.315  0.1843 -0.3281  0.1541
 2343W        W19190   4.149   9.430  11.894 -0.2270  0.2200 -0.1228
 2344W        W19191  15.583  16.173  11.949  0.0588  0.1989  0.0463
 2345W        W19192  13.854   1.590  11.775  0.2008 -0.1208 -0.0260
 2346W        W19193   0.184   7.454  11.948  0.0457 -0.3762  0.2212
 2347W        W19194  16.646  13.363  14.043 -0.0230  0.3454 -0.2859
 2348W        W19195  15.003   1.811  13.974 -0.2170 -0.0723 -0.2785
 2349W        W19196  16.804   8.388  12.580 -0.2811  0.2135 -0.1593
 2350W        W19197  11.807  17.640  13.810  0.1187  0.1953  0.1656
 2351W        W19198  15.855   8.472  14.661 -0.1776  0.0832  0.1508
 2352W        W19199  12.957   8.229  15.536  0.1377 -0.1609 -0.0030
 2353W        W19200  12.144   5.038  15.343 -0.1155 -0.2286 -0.1542
 2354W        W19201   1.689   5.843  15.019  0.1883 -0.1007 -0.2971
 2355W        W19202   9.418  10.098  11.754 -0.0829  0.0278  0.1074
 2356W        W19203   9.625  16.138  11.055 -0.0597 -0.2615 -0.0442
 2357W        W19204  17.595  10.199   5.824  0.0282 -0.1497  0.2095
 2358W        W19205   1.921  12.817   5.026  0.2600  0.1661  0.3571
 2359W        W19206  13.451   9.307  13.691  0.2127  0.1672  0.3427
 2360W        W19207   0.202  10.931   2.457 -0.1316 -0.2380  0.0309
 2361W        W19208   7.670   4.546  14.277 -0.1551  0.0034 -0.3382
 2362W        W19209   8.830   2.547   3.068  0.2894  0.0151 -0.2162
 2363W        W19210   8.093   5.203   3.416 -0.2126 -0.0216 -0.2614
 2364W        W19211  16.098   8.791   0.766  0.3748 -0.0921  0.0585
 2365W        W19212  10.475  11.459   0.621 -0.0350 -0.1221  0.0449
 2366W        W19213   2.416  10.310   1.179  0.1973  0.1459 -0.1333
 2367W        W19214   6.823   1.140   3.648 -0.0330 -0.3261 -0.1547
 2368W        W19215  15.952   5.249   2.600 -0.1476 -0.0408 -0.2059
 2369W        W19216  15.878   3.993   5.926  0.0605 -0.1019 -0.1323
 2370W        W19217   2.953  12.570   1.698 -0.0127 -0.1290  0.1821
 2371W        W19218  12.320  16.765   3.401 -0.1492  0.0055 -0.1337
 2372W        W19219  11.026  14.350   0.381 -0.1988  0.2853 -0.0063
 2373W        W19220   9.190  16.889   0.207 -0.0114  0.0878  0.0794
 2374W        W19221  17.567   1.238   1.916 -0.0158  0.1202 -0.0681
 2375W        W19222   1.261  11.687   3.672 -0.1288  0.0907  0.0883
 2376W        W19223   6.151  10.013  15.685 -0.0129  0.0202  0.2923
 2377W        W19224   4.093   0.012   3.952  0.4704  0.3431 -0.1859
 2378W        W19225   7.210  12.743  15.724  0.1377 -0.0035  0.0192
 2379W        W19226  17.373  13.432  15.637  0.0139  0.2421 -0.2989
 2380W        W19227  15.750  12.287   5.832 -0.1758 -0.0795  0.0038
 2381W        W19228  14.602   8.935  13.425  0.1434  0.0396  0.2869
 2382W        W19229   6.468   5.205  16.190  0.1166  0.0751 -0.1835
 2383W        W19230  10.402   0.838   1.104  0.0464  0.2112  0.2356
 2384W        W19231  17.480  10.308  16.093  0.1838 -0.3045 -0.1252
 2385W        W19232   0.113   2.185   0.492 -0.0333  0.0181  0.1611
 2386W        W19233   1.457   9.280   2.809  0.0403 -0.5829 -0.1441
 2387W        W19234  17.948   3.186  15.416 -0.0936 -0.2092  0.0304
 2388W        W19235  14.032   4.006  12.385 -0.2298  0.1119 -0.4427
 2389W        W19236  13.499   6.159  11.534  0.1524 -0.2793  0.1367
 2390W        W19237  10.883   2.397  13.900  0.0328  0.3604 -0.0641
 2391W        W19238   6.005  12.786   3.148 -0.1177 -0.1868 -0.1727
 2392W        W19239  11.668   9.318   2.711 -0.0320  0.2298  0.0328
 2393W        W19240  10.999   3.468  15.206 -0.0620  0.2027 -0.0992
 2394W        W19241  10.533  17.364   4.465 -0.1500  0.0971 -0.1268
 2395W        W19242   3.785  10.090   2.343 -0.0161  0.4151 -0.1166
 2396W        W19243   1.780  13.417  16.046 -0.0190 -0.1792 -0.4685
 2397W        W19244  17.931   5.374   0.389 -0.1912 -0.1318  0.0176
 2398W        W19245   8.509  14.856   4.770  0.1603 -0.1448 -0.1715
 2399W        W19246   7.251   7.038  12.254 -0.1669  0.1809  0.0500
 2400W        W19247   6.073   0.954  12.133  0.0182  0.2114 -0.4360
 2401W        W19248   5.832  13.447   2.164 -0.0212 -0.0550  0.1512
 2402W        W19249  14.194   1.023   5.130  0.0576 -0.3421 -0.0177
 2403W        W19250  17.816   7.237  15.071 -0.0317  0.4993  0.2717
 2404W        W19251  13.214   5.742  13.791  0.2722  0.0360 -0.3204
 2405W        W19252  14.960  13.445  12.269  0.0747  0.0441  0.0778
 2406W        W19253  12.303   3.282   4.839  0.3729  0.1146 -0.0590
 2407W        W19254  17.211  14.875   1.212 -0.1425  0.0126  0.2000
 2408W        W19255   6.041  12.672   0.212 -0.0857 -0.0119  0.4420
 2409W        W19256  15.764   3.251  15.832 -0.0713 -0.0365 -0.1785
 2410W        W19257  16.795   4.316  11.312  0.3729  0.3706 -0.0422
 2411W        W19258   8.294   9.879   1.036  0.3823 -0.1439 -0.2370
 2412W        W19259   0.126  16.848   4.445  0.1435  0.1245  0.0035
 2413W        W19260   4.201  13.919  15.286 -0.2076 -0.1772 -0.3430
 2414W        W19261   3.076   2.619  15.838  0.3656  0.0166  0.2621
 2415W        W19262   5.569  12.360   1.364 -0.3909  0.2369 -0.0108
 2416W        W19263   2.337   6.740  15.100 -0.2611 -0.1475 -0.1302
 2417W        W19264  16.664   7.043  12.085 -0.5257  0.0016  0.1343
 2418W        W19265  10.843  14.898   2.017 -0.0523  0.1131  0.0207
 2419W        W19266  11.947   6.564   0.140  0.2314 -0.0792 -0.1268
 2420W        W19267   6.233   4.162   3.810  0.0390  0.3557  0.2761
 2421W        W19268  13.544   7.495  16.218 -0.1778  0.0087  0.0548
 2422W        W19269  16.170   1.462   5.174 -0.0530 -0.4380 -0.2101
 2423W        W19270  13.446   3.263  14.919  0.1211  0.0131  0.3594
 2424W        W19271  11.310   8.528   3.189 -0.1619  0.2602  0.0518
 2425W        W19272   8.691   7.936  13.706  0.1222 -0.0604 -0.1442
 2426W        W19273   6.228  16.947   2.931  0.0409 -0.5444  0.0472
 2427W        W19274   9.770  11.097  13.973 -0.0402  0.1305 -0.2825
 2428W        W19275   5.281  12.937   3.617  0.0008  0.1686 -0.0746
 2429W        W19276  12.617   2.170   0.133 -0.0065 -0.2629 -0.2887
 2430W        W19277   7.255  12.791   5.219  0.4404  0.1026 -0.0202
 2431W        W19278  17.164  10.671  14.945 -0.0075 -0.0969  0.0344
 2432W        W19279  13.427   0.368   4.444  0.0580 -0.0134 -0.2242
 2433W        W19280   9.458  10.156   1.925  0.2838  0.2500  0.0284
 2434W        W19281   0.480   1.171   3.591  0.1640  0.2720  0.2400
 2435W        W19282  10.926  10.661  16.304  0.0308 -0.4159 -0.0400
 2436W        W19283   2.770   1.888   0.339 -0.1112  0.2846  0.1441
 2437W        W19284   9.293   2.350   0.635 -0.1854  0.1297 -0.0958
 2438W        W19285  10.559   6.274  11.945  0.2853  0.2612 -0.0380
 2439W        W19286   5.057   4.847   4.639  0.0244 -0.2841 -0.1956
 2440W        W19287  16.097   7.196  13.734 -0.1021 -0.2222 -0.0526
 2441W        W19288  15.245  15.654  13.140  0.1693 -0.0818 -0.1285
 2442W        W19289   0.397   6.395  16.426 -0.1941  0.0443 -0.0885
 2443W        W19290  16.533   1.514  16.435  0.1159  0.0782 -0.2660
 2444W        W19291  12.593   9.444  12.010  0.0432 -0.1906  0.0486
 2445W        W19292  17.842   3.292   4.155 -0.2121 -0.0336 -0.1305
 2446W        W19293   9.295  17.451  13.625  0.1231  0.0764  0.0630
 2447W        W19294   0.996   0.542   3.324 -0.1156 -0.3330 -0.0522
 2448W        W19295   7.726  11.587   0.850  0.1249  0.2861  0.0609
 2449W        W19296   5.310   3.714   1.244 -0.0659  0.1030 -0.2079
 2450W        W19297   3.720   9.759  14.314  0.1736  0.0448  0.1743
 2451W        W19298  14.613   5.669   3.436 -0.1701  0.0753  0.0576
 2452W        W19299   4.382  11.922  16.441  0.2400 -0.3015  0.0245
 2453W        W19300   1.234  10.930  12.434 -0.0326  0.0635 -0.2157
 2454W        W19301   9.939   8.441  14.971 -0.0197  0.0442  0.0550
 2455W        W19302   8.418   6.708  16.362  0.2323 -0.2641 -0.3317
 2456W        W19303   2.002  10.496  16.545  0.0167 -0.0277 -0.1526
 2457W        W19304  16.213   7.462  14.237 -0.1742  0.0897  0.3201
 2458W        W19305   9.209   7.098  12.333 -0.1751 -0.1426 -0.2707
 2459W        W19306   9.490   8.028  12.316  0.1330 -0.2813 -0.0231
 2460W        W19307   4.275   3.302  12.651  0.0920  0.0010 -0.0048
 2461W        W19308  10.098  10.908   3.856  0.1803  0.0661 -0.1835
 2462W        W19309   9.809  15.476   5.308 -0.1104  0.1444  0.2950
 2463W        W19310   1.068  14.311   0.700  0.1664  0.1120 -0.1086
 2464W        W19311  10.807  10.145  16.595  0.1294 -0.0713  0.0673
 2465W        W19312  17.205  14.898  12.415  0.1237  0.0706  0.1359
 2466W        W19313  11.424  13.940   1.087 -0.0396  0.0299 -0.0915
 2467W        W19314  17.633   9.001  16.471  0.1384  0.0548  0.1641
 2468W        W19315  15.596   1.730   1.397  0.1026  0.2400 -0.4210
 2469W        W19316  17.209  17.211  15.519 -0.1756  0.0323 -0.1897
 2470W        W19317   6.384   5.295  16.733  0.3091 -0.1824 -0.1499
 2471W        W19318  10.255   2.284   4.057 -0.1724 -0.3038 -0.0347
 2472W        W19319   3.282   3.711   0.696  0.1221  0.0842 -0.1083
 2473W        W19320   0.067   9.779   3.285  0.0343 -0.1200  0.0656
 2474W        W19321   0.701   5.584  16.777  0.0052 -0.1708  0.1934
 2475W        W19322   8.008  11.170   3.490  0.1649 -0.0400 -0.1066
 2476W        W19323   5.755   2.702   3.523  0.0888  0.1607  0.3376
 2477W        W19324   1.790   9.768   1.503  0.0494  0.1259 -0.1557
 2478W        W19325   5.523   5.632   3.611 -0.1254 -0.0307 -0.0174
 2479W        W19326  12.002   1.899  13.621 -0.0616 -0.1254 -0.2993
 2480W        W19327  14.724   1.933   2.191  0.0646  0.2753 -0.2183
 2481W        W19328  13.520   3.561   2.671  0.0237  0.0956  0.0346
 2482W        W19329   8.645   0.272   5.489 -0.2352 -0.0300  0.0902
 2483W        W19330  14.340   0.783   2.945 -0.0954  0.1851  0.2491
 2484W        W19331   8.530   4.717   1.584  0.4389 -0.3070 -0.1909
 2485W        W19332  13.078   1.009   2.587 -0.1794  0.3961 -0.0648
 2486W        W19333   4.365  17.415  14.883 -0.2149  0.0716 -0.0562
 2487W        W19334   9.910  13.775   3.282 -0.1945 -0.1302 -0.0029
 2488W        W19335   8.945   0.616  16.649 -0.2219  0.1402  0.0458
 2489W        W19336  11.734  13.738   3.072  0.1018 -0.2557 -0.2468
 2490W        W19337   9.077  14.774   2.943 -0.1724 -0.1484 -0.1756
 2491W        W19338   7.276  16.841  15.438  0.0890  0.2362  0.0391
 2492W        W19339   5.673   1.428   0.326  0.0303  0.1414  0.1433
 2493W        W19340  15.981  13.046  11.521  0.1129 -0.0919 -0.1580
 2494W        W19341  16.260  14.763   4.992  0.0003 -0.2869  0.0130
 2495W        W19342  12.171   4.062   4.527 -0.3771 -0.1450  0.0696
 2496W        W19343   1.662   1.306   4.543  0.0371  0.1002  0.1162
 2497W        W19344  15.850  14.427   0.975 -0.0491  0.0901 -0.1780
 2498W        W19345   6.364   0.480  12.028  0.2795  0.0179  0.1420
 2499W        W19346   8.427   1.467  14.322 -0.0662 -0.1001  0.0852
 2500W        W19347  11.194   1.369  12.046  0.2452  0.2152 -0.1640
 2501W        W19348   4.464   2.160   4.344  0.2988  0.0931 -0.1712
 2502W        W19349   7.179  10.727   3.022 -0.0988 -0.1909  0.0803
 2503W        W19350  14.452   8.104   1.467  0.1507  0.0285 -0.0928
 2504W        W19351  14.579   7.851  14.471  0.1490 -0.1957 -0.0790
 2505W        W19352   0.130  12.933  12.676 -0.1512  0.2796 -0.0010
 2506W        W19353   9.690  16.787  12.030 -0.0580  0.1932  0.0066
 2507W        W19354  12.692  13.868   0.952 -0.1049  0.1375  0.0234
 2508W        W19355  13.708   5.683   2.446 -0.1004  0.2753  0.0633
 2509W        W19356   0.772   9.810   0.514  0.0713 -0.0088  0.0632
 2510W        W19357   0.859  14.790   2.634 -0.0478 -0.0389  0.1806
 2511W        W19358  13.601   4.465  16.680 -0.0403  0.2082 -0.0898
 2512W        W19359   0.783   3.365  15.052 -0.3277 -0.1216 -0.0338
 2513W        W19360  16.293  12.389   5.045  0.0813  0.2214 -0.1796
 2514W        W19361  11.977   5.885   3.187 -0.2326  0.2474  0.1176
 2515W        W19362  12.238  10.063   1.384  0.2998 -0.1656  0.0511
 2516W        W19363  12.944   1.168  16.375  0.1770 -0.1928  0.0638
 2517W        W19364   2.410  12.151   0.064 -0.2228 -0.0062  0.1491
 2518W        W19365  16.770   3.023  16.365 -0.1100 -0.0362  0.0085
 2519W        W19366   1.840   2.446   1.257 -0.0962 -0.0138 -0.2257
 2520W        W19367   4.302   0.633  11.114  0.3794  0.0199 -0.1693
 2521W        W19368   9.767  17.100  10.525 -0.4618  0.4633 -0.1012
 2522W        W19369   2.363   9.905  14.784  0.2317  0.1720  0.5111
 2523W        W19370   3.764   9.722   0.995 -0.0511 -0.1401 -0.1410
 2524W        W19371  12.108  12.923  15.013  0.0172 -0.0851  0.0021
 2525W        W19372   4.704   3.638   6.537  0.2083 -0.3358  0.0008
 2526W        W19373   0.369   2.122  15.929 -0.0813 -0.0841 -0.1312
 2527W        W19374  13.088   5.726   4.143  0.0995  0.1493  0.2625
 2528W        W19375   3.981  16.879   1.911 -0.2034 -0.2049 -0.0399
 2529W        W19376  17.693  16.409   0.035 -0.0751 -0.0162 -0.2067
 2530W        W19377  13.103   8.588  14.142  0.0512  0.0711  0.0342
 2531W        W19378   9.228  16.719   1.106 -0.1775  0.1213 -0.2179
 2532W        W19379  11.631  10.308   0.147 -0.0749 -0.0682  0.1792
 2533W        W19380  16.804   4.303  15.335  0.2015 -0.0752  0.1980
 2534W        W19381   4.384   2.992  14.704  0.0494 -0.1048 -0.0606
 2535W        W19382   9.358   4.770  11.988  0.3332  0.0793 -0.0697
 2536W        W19383   9.144  11.008   4.319 -0.1203  0.4651  0.1937
 2537W        W19384   7.047   0.566   2.918  0.2317 -0.0372  0.1565
 2538W        W19385  10.303   8.783  11.660  0.0725 -0.0910  0.0653
 2539W        W19386   9.812  11.379   3.911  0.0681 -0.0915  0.0857
 2540W        W19387   7.225   0.233  13.694  0.1954 -0.0934  0.2426
 2541W        W19388   4.929  14.903   2.896 -0.0050 -0.0536  0.5065
 2542W        W19389  14.492   4.564   2.859 -0.0765  0.3516 -0.3696
 2543W        W19390  10.176   2.466  14.915  0.2412 -0.1051 -0.0587
 2544W        W19391   7.683   8.610   0.907 -0.3071  0.1760  0.2198
 2545W        W19392  13.271   8.631   3.260 -0.1342  0.0299 -0.0648
 2546W        W19393  15.397   9.656  15.447 -0.5340 -0.1350 -0.1567
 2547W        W19394  17.712   8.566  15.395 -0.1126 -0.3763  0.3633
 2548W        W19395   1.760   3.155  11.894  0.0357  0.1538  0.0187
 2549W        W19396   0.059   8.207  15.756 -0.0640 -0.1722 -0.1773
 2550W        W19397   4.662   5.636  16.434 -0.1739 -0.2487  0.2061
 2551W        W19398  13.396   5.390  16.701  0.0719 -0.1438 -0.0972
 2552W        W19399  12.711   8.663   6.214 -0.2635  0.2862  0.4036
 2553W        W19400   4.810  17.535   2.025  0.2521 -0.2518 -0.1231
 2554W        W19401   3.057  16.009   5.593  0.2623  0.3407  0.0957
 2555W        W19402   2.792  16.765  13.551 -0.0657 -0.0983 -0.3480
 2556W        W19403  13.438   6.098   4.269 -0.0337  0.0077 -0.1050
 2557W        W19404  12.670   2.368   2.559 -0.0890  0.2134 -0.0361
 2558W        W19405   6.916   2.007   2.684  0.1322 -0.4100  0.2543
 2559W        W19406   7.650  17.953  11.861  0.0697  0.0998 -0.2352
 2560W        W19407   5.954   5.987  12.117 -0.0332 -0.0383  0.0017
 2561W        W19408  12.832  12.664   0.695  0.1530  0.2007  0.0419
 2562W        W19409   7.606  11.325   4.567  0.1091 -0.4600  0.2668
 2563W        W19410   6.418   3.381  15.857  0.1032  0.0621 -0.1650
 2564W        W19411   0.901   8.504   4.819  0.0798 -0.1820 -0.1174
 2565W        W19412   8.590   0.920  15.941 -0.3113 -0.1981  0.0183
 2566W        W19413   6.798  10.266   4.983  0.3754 -0.1568 -0.0752
 2567W        W19414  15.897   1.392  15.675 -0.0127 -0.2324 -0.1855
 2568W        W19415   0.460   6.979  13.051 -0.4131 -0.1109 -0.2740
 2569W        W19416  14.745  12.449   0.064  0.0646 -0.2995  0.0125
 2570W        W19417   6.165  10.795   5.436 -0.2330 -0.1763 -0.0552
 2571W        W19418   6.290  16.442   0.824  0.1069  0.0152 -0.1147
 2572W        W19419   0.935  13.425  16.727  0.2919 -0.1261 -0.0256
 2573W        W19420  17.164  11.265  12.409 -0.2528  0.2566 -0.0039
 2574W        W19421  11.868   0.833   2.194 -0.0190 -0.1065  0.1061
 2575W        W19422  17.469   1.262   5.386  0.0152  0.1123 -0.0421
 2576W        W19423  10.848  13.576   0.560  0.0264  0.1435  0.0961
 2577W        W19424  12.529  15.139   4.787  0.0776  0.1173 -0.1163
 2578W        W19425  15.448  14.837   4.452  0.1210 -0.1070 -0.1627
 2579W        W19426   3.157   8.219   3.196  0.0106 -0.0798 -0.0232
 2580W        W19427  14.203   4.015   4.575  0.3846 -0.2251 -0.3236
 2581W        W19428  13.867  12.764  13.061  0.1257 -0.2329  0.0396
 2582W        W19429  16.099  10.278  13.029  0.1639  0.0453 -0.0527
 2583W        W19430  15.494   2.448   3.899 -0.5420  0.2008  0.0501
 2584W        W19431  12.532   2.741  13.876 -0.0963  0.1231  0.0621
 2585W        W19432  17.881  13.812  14.516  0.1995 -0.0575 -0.1865
 2586W        W19433  17.235   0.360  11.925 -0.1239 -0.0070  0.0141
 2587W        W19434  16.207  14.536  15.648  0.2155 -0.1359 -0.1813
 2588W        W19435   5.561  16.260  13.962 -0.1281 -0.2305 -0.0237
 2589W        W19436  15.326  10.767   1.367  0.3828 -0.1087 -0.2759
 2590W        W19437  14.965  14.485  12.689 -0.2486  0.4217  0.0084
 2591W        W19438   4.819  10.327   1.186 -0.1379  0.2295 -0.1412
 2592W        W19439  12.860   1.154   0.083  0.0296  0.0076  0.1514
 2593W        W19440   3.599  10.122  16.362  0.0182  0.1250  0.1898
 2594W        W19441   8.323   2.954  16.292  0.0373  0.0136 -0.2907
 2595W        W19442  14.318   1.254  13.207  0.1945 -0.0189 -0.1681
 2596W        W19443  11.736   6.353  14.995 -0.0148 -0.1456  0.0688
 2597W        W19444   7.175   9.614  14.264  0.0729 -0.2797  0.0421
 2598W        W19445  16.267   3.092  13.869 -0.2703  0.2794  0.1131
 2599W        W19446   8.349  17.195   4.083  0.0658  0.1003 -0.0988
 2600W        W19447  13.745  15.804   3.846  0.2117  0.2395  0.1675
 2601W        W19448  17.917  17.846  13.319  0.0564 -0.0232  0.1050
 2602W        W19449   4.022   3.977   4.408  0.1372  0.0585 -0.0195
 2603W        W19450   5.857   9.663  12.689 -0.0300  0.0452  0.2196
 2604W        W19451  14.639   8.387  16.402  0.0880  0.2334  0.0217
 2605W        W19452   4.766  14.712   0.758 -0.0394 -0.2769  0.2639
 2606W        W19453   1.231  10.033  16.588  0.0923 -0.0304  0.1555
 2607W        W19454  15.846   2.562  11.863 -0.1019  0.1987 -0.3957
 2608W        W19455   9.771   8.601   0.489  0.1523  0.1515 -0.1093
 2609W        W19456   9.459  12.516   2.873 -0.0313 -0.0143  0.0384
 2610W        W19457   0.921   0.003   5.282  0.3756 -0.0362  0.1487
 2611W        W19458   2.789   2.124   2.446 -0.2102  0.0798  0.0147
 2612W        W19459   3.744   6.671  14.873  0.3197  0.1115 -0.3416
 2613W        W19460   4.712   4.806  14.295  0.1206 -0.2461 -0.1294
 2614W        W19461   7.453   1.770  11.087  0.2030  0.1647  0.0547
 2615W        W19462  11.116  10.073  12.789  0.0777 -0.0421 -0.1043
 2616W        W19463  13.847  13.082  15.356  0.2032 -0.0683  0.1080
 2617W        W19464  16.283  14.149  12.452 -0.0196 -0.1988  0.0351
 2618W        W19465  12.369  17.909   2.205 -0.1097 -0.1362 -0.1591
 2619W        W19466   5.123   5.439   4.293 -0.0236 -0.0131 -0.0992
 2620W        W19467   4.257   5.875  10.731 -0.2015 -0.0485  0.2478
 2621W        W19468  11.209  15.989   5.265  0.0446 -0.2199  0.0826
 2622W        W19469   9.220   9.568  15.192  0.0076  0.1244  0.1696
 2623W        W19470   5.739  11.980   3.176 -0.1616  0.1114 -0.3978
 2624W        W19471  11.284  12.679   1.522 -0.0432  0.3412 -0.0838
 2625W        W19472   0.520  13.558  14.732  0.2320 -0.0423  0.2203
 2626W        W19473  15.594  14.897   5.848 -0.1860 -0.1184 -0.2193
 2627W        W19474  12.345  14.077   1.796  0.1392 -0.1986 -0.3343
 2628W        W19475  14.154  12.776   1.857 -0.3214  0.1969 -0.0491
 2629W        W19476  13.847   3.062  12.558 -0.2264  0.0544  0.0884
 2630W        W19477  16.300   1.108   2.596 -0.1135  0.0633  0.2245
 2631W        W19478   5.333  17.318  16.456 -0.2083  0.1072 -0.1994
 2632W        W19479  16.035  14.171  13.697  0.0136  0.0453  0.0633
 2633W        W19480  16.535   4.328  16.330  0.1318 -0.0570 -0.0964
 2634W        W19481  13.652  11.131   2.355  0.1013  0.1821 -0.2410
 2635W        W19482   9.135   3.516  15.685 -0.3087  0.2599  0.2164
 2636W        W19483   3.938   0.684   1.485 -0.2979 -0.0028 -0.0400
 2637W        W19484  16.258  12.656  11.736 -0.0085 -0.0826  0.0129
 2638W        W19485  11.520   2.479   0.117  0.0421  0.2017  0.1862
 2639W        W19486   8.026   9.025   1.263 -0.0395 -0.0707 -0.0095
 2640W        W19487   9.784  12.657  12.042 -0.0855 -0.1614 -0.0641
 2641W        W19488  16.994  16.605   1.790 -0.0299 -0.2495  0.0731
 2642W        W19489   7.395  16.299   4.736  0.0538  0.3022  0.0545
 2643W        W19490  13.145   0.718   0.881  0.0344  0.0847  0.0716
 2644W        W19491   7.257   0.755   1.155 -0.2191  0.0118 -0.4314
 2645W        W19492   2.423  11.848  16.453  0.0497 -0.1340 -0.1104
 2646W        W19493   6.561  11.294  15.951 -0.0290  0.2459  0.0075
 2647W        W19494  15.768   6.788   2.439  0.4929 -0.1567  0.3987
 2648W        W19495  17.525  11.746  14.896  0.1591  0.1213  0.0846
 2649W        W19496  16.183  12.705  13.496 -0.0560 -0.2355  0.1202
 2650W        W19497   2.909   4.490   2.334  0.0458 -0.0227 -0.1393
 2651W        W19498  14.553  12.068   0.778  0.0719 -0.0269  0.1687
 2652W        W19499   9.751   1.953  11.896 -0.0994  0.1456 -0.1497
 2653W        W19500  15.444   8.477  12.456 -0.1258  0.0397 -0.0498
 2654W        W19501   1.892   0.207  16.740 -0.2828 -0.0707  0.3142
 2655W        W19502  13.069  15.142   3.555  0.1801  0.0171  0.1443
 2656W        W19503   4.231  10.161   4.118 -0.0008 -0.0341 -0.2821
 2657W        W19504   3.018  10.873   2.462  0.0753 -0.3639 -0.0404
 2658W        W19505   7.163  15.881  13.867 -0.2116  0.0097 -0.0530
 2659W        W19506  15.012   4.613   3.012  0.0091 -0.2167 -0.0156
 2660W        W19507   4.781  10.125   1.942  0.1792 -0.2547  0.1840
 2661W        W19508   2.331   3.741  12.755 -0.1692 -0.2211  0.3128
 2662W        W19509  13.205   4.763   5.266  0.1067  0.0771 -0.0665
 2663W        W19510   7.892   7.015  12.396 -0.1316  0.1618  0.2514
 2664W        W19511   9.783   4.260  14.811  0.1955  0.0774  0.1027
 2665W        W19512   9.252  16.823  13.746  0.0667  0.2458 -0.2413
 2666W        W19513   9.296  16.052  13.097 -0.0458 -0.1025 -0.1156
 2667W        W19514  10.568   0.849  13.858  0.1257 -0.0609  0.1686
 2668W        W19515  15.380  16.713   0.030  0.0136  0.2028 -0.3092
 2669W        W19516   0.424  13.096   2.019 -0.0046  0.1233 -0.0660
 2670W        W19517   2.105   0.809  12.693  0.1112  0.0267 -0.0480
 2671W        W19518  14.377   3.629   2.234  0.3351 -0.1248 -0.3234
 2672W        W19519   6.900   4.452  16.579 -0.1220  0.1590 -0.4380
 2673W        W19520   7.880   3.472  13.960  0.0188 -0.2771 -0.0985
 2674W        W19521  12.219  12.212   0.615  0.0146  0.3709  0.0883
 2675W        W19522  11.836   6.722  13.084  0.0374  0.0125 -0.1422
 2676W        W19523   3.420  17.213   2.652 -0.1493  0.0261 -0.2623
 2677W        W19524   0.879   8.758  11.738 -0.0604 -0.4700  0.0346
 2678W        W19525   5.704   6.660  14.193  0.0472 -0.1971  0.1141
 2679W        W19526   9.247   2.282  14.440 -0.2117 -0.0348 -0.0013
 2680W        W19527  14.139   5.111   3.894  0.0565 -0.0668 -0.1005
 2681W        W19528  12.967  13.146   5.417  0.3837 -0.1631 -0.0997
 2682W        W19529   2.806   7.578   4.694  0.0410  0.1747  0.2054
 2683W        W19530   9.598   8.218   2.245 -0.0787 -0.2516 -0.0750
 2684W        W19531   1.693  14.809   5.792  0.0775  0.0445 -0.0436
 2685W        W19532  16.278   5.349  14.583 -0.1956  0.0193  0.2515
 2686W        W19533  15.259  13.589   2.912 -0.1919  0.1836  0.2000
 2687W        W19534   4.585  13.426   2.432  0.3586  0.1701 -0.0923
 2688W        W19535   3.718  10.584  15.538 -0.0000  0.0809  0.0360
 2689W        W19536   5.875  14.247   4.095 -0.0760 -0.2827 -0.1349
 2690W        W19537   8.799  17.022   0.553  0.1704  0.1373  0.1337
 2691W        W19538   5.551  12.823   5.201  0.3439 -0.1555  0.1098
 2692W        W19539   9.431   6.086  13.766 -0.3573  0.0162 -0.3971
 2693W        W19540  16.955   9.218   1.740 -0.2708 -0.1016  0.0276
 2694W        W19541   7.118   4.722  11.161 -0.0229  0.3839  0.0716
 2695W        W19542   7.126  10.471   0.481 -0.0948 -0.1980  0.1264
 2696W        W19543  12.118   6.136   4.799  0.1113 -0.0412  0.0266
 2697W        W19544   3.518   2.548  12.496 -0.0992  0.1255  0.2388
 2698W        W19545  13.092   8.250   4.999 -0.1127  0.0222  0.2153
 2699W        W19546  16.924  13.289  13.108 -0.1293 -0.0819 -0.0492
 2700W        W19547  10.260   6.085   1.611 -0.2179  0.0763  0.2524
 2701W        W19548   7.296   0.608  11.688 -0.2002  0.0010 -0.0060
 2702W        W19549   9.484  12.230  12.061  0.2977  0.2743 -0.1652
 2703W        W19550  12.750   8.197   5.366 -0.1524  0.0604  0.0085
 2704W        W19551  14.725  17.791  15.205  0.0736 -0.3633 -0.2870
 2705W        W19552  11.148   8.401   3.682 -0.3136 -0.0579  0.4756
 2706W        W19553  15.414  17.070  15.239 -0.3529 -0.0406 -0.2609
 2707W        W19554   3.796  17.930   4.843  0.1948  0.0889 -0.0085
 2708W        W19555   2.469  10.811   3.626  0.0238 -0.0428 -0.3141
 2709W        W19556   1.042   7.108  13.868  0.1367  0.0372 -0.1671
 2710W        W19557  17.527  14.836   4.816  0.0292  0.1447 -0.0389
 2711W        W19558   5.058  13.910  12.963 -0.3314  0.3520 -0.1840
 2712W        W19559  17.089  12.547   6.360 -0.3032 -0.0767 -0.1293
 2713W        W19560   0.754  11.902  12.159 -0.0185  0.1430 -0.1403
 2714W        W19561   9.279   4.648   0.787 -0.1954  0.2552 -0.0606
 2715W        W19562  11.758  10.893   2.718  0.1104 -0.0661  0.2734
 2716W        W19563  12.201  11.268   2.836  0.3009  0.1143 -0.1323
 2717W        W19564   7.029   9.792   1.722 -0.0809 -0.2367 -0.4226
 2718W        W19565  11.978  10.180   4.519  0.0073 -0.1207 -0.1492
 2719W        W19566  13.766  16.802   4.495  0.0515 -0.2115  0.1397
 2720W        W19567   3.153  15.991  12.626 -0.0136 -0.1907  0.2478
 2721W        W19568   7.546   7.171  12.712 -0.0459  0.2552  0.0773
 2722W        W19569   7.194   6.667   3.004 -0.1806  0.0553  0.0580
 2723W        W19570   7.099   0.010  13.249  0.0608 -0.1229  0.0317
 2724W        W19571  12.022   1.424  13.274 -0.0732 -0.2823 -0.0966
 2725W        W19572  13.409  15.161   0.717 -0.0484  0.2867 -0.0114
 2726W        W19573  16.536   9.386   2.550 -0.0163 -0.1686  0.0081
 2727W        W19574  12.744   0.897   4.186 -0.1119  0.1247  0.1076
 2728W        W19575  13.633  13.210  15.799 -0.1681 -0.0672 -0.0420
 2729W        W19576  16.848  10.881   0.956 -0.0789 -0.0939 -0.0202
 2730W        W19577   4.527   6.190  16.474 -0.0414  0.2080  0.0508
 2731W        W19578  10.676   3.183   2.659  0.3442  0.0552 -0.1689
 2732W        W19579   3.364  16.645   0.829 -0.1235 -0.0055 -0.0795
 2733W        W19580   9.225   1.557  11.126 -0.0137 -0.0770 -0.2307
 2734W        W19581   1.858  11.744  12.501  0.0040 -0.3525 -0.0368
 2735W        W19582  13.638  12.088  11.754  0.4189  0.0102 -0.1770
 2736W        W19583   5.811   8.464   5.520 -0.0312  0.1703  0.0062
 2737W        W19584   4.853  13.248  15.587  0.1246 -0.0622  0.1059
 2738W        W19585   7.696   3.306   2.477  0.0292 -0.1089  0.2067
 2739W        W19586   8.701  14.421  15.639 -0.1258 -0.2133  0.4119
 2740W        W19587   2.172  15.366  12.058  0.2941 -0.0801  0.0441
 2741W        W19588   6.770   1.867  14.257 -0.2119  0.0869 -0.1452
 2742W        W19589   1.122   0.399   0.407 -0.0267  0.0755 -0.1306
 2743W        W19590   2.874  16.465   2.347  0.1158 -0.0774 -0.0246
 2744W        W19591  15.748   2.628   0.675  0.1160 -0.1250  0.0658
 2745W        W19592  11.442  16.395   1.700  0.0069  0.1921 -0.1976
 2746W        W19593  12.332   9.680  15.333  0.2078  0.0738 -0.1264
 2747W        W19594  15.437  13.067   1.165  0.2116  0.1356  0.0718
 2748W        W19595  13.812  10.365   3.117 -0.2489 -0.1727  0.2866
 2749W        W19596  15.194   9.190  14.328 -0.0879 -0.0824 -0.1145
 2750W        W19597   2.377   1.653  12.365  0.0099  0.0790  0.2180
 2751W        W19598  10.793  10.208  13.727  0.0250  0.3269 -0.0302
 2752W        W19599   9.423  11.018  12.477 -0.1092  0.0216  0.1612
 2753W        W19600   3.787  13.779  13.844  0.2082 -0.0177  0.1098
 2754W        W19601   5.270   0.022   5.017  0.2042  0.1223  0.1679
 2755W        W19602  16.217   1.298  12.803  0.1036 -0.0335 -0.0643
 2756W        W19603  12.507  15.490  14.035 -0.0369 -0.1094 -0.2516
 2757W        W19604   5.862   2.644  16.428 -0.1447  0.0835 -0.1516
 2758W        W19605   0.098  16.191   0.870 -0.1239 -0.0715 -0.1922
 2759W        W19606   8.344   4.470   2.118  0.0610 -0.1754  0.0043
 2760W        W19607  14.730   2.292   1.206  0.1201 -0.0810  0.2669
 2761W        W19608  11.435  15.008  12.529 -0.1960 -0.2028  0.1197
 2762W        W19609   0.335  17.157   5.695  0.0046 -0.3003  0.0276
 2763W        W19610   1.351  15.662   1.445 -0.1616 -0.0109 -0.0140
 2764W        W19611  17.533   1.534  13.954 -0.3909 -0.1673  0.1379
 2765W        W19612   1.533   7.223  16.120  0.0032 -0.2400  0.0310
 2766W        W19613   5.700  17.179   4.556 -0.2170  0.2591  0.2280
 2767W        W19614  14.158   9.924   0.528 -0.0548  0.2050 -0.0921
 2768W        W19615  10.579  14.001   3.578 -0.0412  0.1587 -0.0267
 2769W        W19616  12.009   4.210  13.810 -0.0930 -0.0158  0.1087
 2770W        W19617   7.047  14.155  12.532 -0.0329 -0.1662  0.0352
 2771W        W19618   8.653  13.081  14.980  0.0482 -0.0134  0.1224
 2772W        W19619  10.645   1.620   2.425 -0.0629  0.1939  0.1426
 2773W        W19620   5.094   7.427  12.995 -0.0465 -0.0295  0.1994
 2774W        W19621  14.875  11.493   2.081 -0.0688 -0.1268 -0.1206
 2775W        W19622   4.455  11.987   2.397 -0.0734 -0.0468  0.0409
 2776W        W19623   2.385   8.038  13.498  0.0205  0.1571 -0.1143
 2777W        W19624   4.553  12.076   1.815 -0.1836  0.0394  0.0539
 2778W        W19625  12.990   5.948   0.910 -0.1573 -0.2020  0.1577
 2779W        W19626   5.536  16.894   4.160  0.2501 -0.2372  0.2787
 2780W        W19627  17.390   3.139  13.173  0.0815 -0.3237  0.0649
 2781W        W19628   9.172   4.071  14.132 -0.3606 -0.0434 -0.0813
 2782W        W19629  17.423   3.127  14.694 -0.1380  0.0195  0.0128
 2783W        W19630  13.824   1.255   0.584  0.3340  0.1064 -0.0137
 2784W        W19631   6.015  15.100  15.029  0.0102  0.0626 -0.1288
 2785W        W19632  12.683   9.941  12.204 -0.0283  0.0276 -0.2512
 2786W        W19633  14.638  14.975   2.340  0.0506  0.3797 -0.1261
 2787W        W19634  13.225   7.416   0.359 -0.0146 -0.2441  0.5135
 2788W        W19635   4.959  10.711  15.486  0.1919  0.0366  0.0857
 2789W        W19636   5.064  17.281  11.659  0.4187  0.0055 -0.2277
 2790W        W19637   0.764   5.706   3.321 -0.1295 -0.0516 -0.2037
 2791W        W19638   1.501   3.508  11.648  0.2583  0.1678  0.0489
 2792W        W19639   1.848  10.254  12.721 -0.1948 -0.2553 -0.0809
 2793W        W19640   4.820  12.550  11.937 -0.1229  0.0632  0.0913
 2794W        W19641   5.893   5.963   5.887  0.0697  0.0725 -0.4991
 2795W        W19642   2.252  12.554   3.261 -0.5264  0.0640  0.1348
 2796W        W19643   3.815  15.263  14.080 -0.2241  0.1316  0.1308
 2797W        W19644  17.809   9.070   5.328  0.0197  0.0139 -0.0961
 2798W        W19645   2.703   6.136   5.901 -0.0056  0.2298  0.2143
 2799W        W19646  10.627  12.473   3.377  0.0890 -0.0348  0.2407
 2800W        W19647   7.538  10.164   0.373 -0.2492  0.0053 -0.1505
 2801W        W19648   1.683   4.210   1.921 -0.2209 -0.3328 -0.3359
 2802W        W19649   7.223  17.640  16.087  0.1017  0.1400 -0.0745
 2803W        W19650  14.585   2.012  12.085 -0.0178  0.1280  0.1014
 2804W        W19651   8.842   1.080   2.544 -0.3487 -0.0895 -0.0268
 2805W        W19652  10.283   5.431  13.971 -0.0635 -0.0802  0.0059
 2806W        W19653  10.978   4.601   1.522  0.0234  0.2388  0.0285
 2807W        W19654   0.599   9.047  16.330  0.0448  0.0887  0.2104
 2808W        W19655  10.727   9.088   4.687 -0.0053 -0.1663  0.1823
 2809W        W19656   4.139   4.452   2.119  0.3461  0.1586  0.1618
 2810W        W19657  12.146   8.815  15.680 -0.2422 -0.3874 -0.0145
 2811W        W19658   9.101  17.360  15.463  0.0344 -0.1761  0.2000
 2812W        W19659  16.365   9.145  14.654  0.0190  0.3112  0.0488
 2813W        W19660   1.815  16.621   2.372  0.1922 -0.0107 -0.2127
 2814W        W19661   2.669  11.316   5.536 -0.1726  0.0196  0.0888
 2815W        W19662   2.638  11.371   2.115 -0.1062 -0.0201 -0.0345
 2816W        W19663  15.099   9.254  15.271  0.2078 -0.2237  0.0375
 2817W        W19664   5.541   7.730  14.413 -0.3580  0.0181 -0.1231
 2818W        W19665  14.421   3.665  12.402  0.0215 -0.0665 -0.1263
 2819W        W19666  10.338  17.595  15.179  0.1167  0.0394  0.3685
 2820W        W19667   5.934   1.905   5.184  0.0131  0.1993  0.2497
 2821W        W19668   2.985   3.861  13.247  0.0591 -0.0374 -0.3852
 2822W        W19669   1.156   4.422  14.179  0.2840  0.0534  0.0279
 2823W        W19670  17.389   8.357  15.840 -0.0957  0.1046  0.2009
 2824W        W19671  17.431  15.658   3.203  0.1343  0.1089 -0.1296
 2825W        W19672  13.524   4.406   3.330 -0.1210 -0.1252 -0.2091
 2826W        W19673  10.439   6.365  12.432 -0.1301 -0.1422  0.2105
 2827W        W19674  15.898  16.786  12.392 -0.0489 -0.2341 -0.0615
 2828W        W19675  16.894   8.611   4.542 -0.1385  0.1191 -0.0420
 2829W        W19676   9.152   5.529   5.563  0.1856 -0.1340  0.0964
 2830W        W19677  16.660  11.366  14.472 -0.0367  0.0063 -0.2318
 2831W        W19678  14.870   2.879  11.649 -0.1590 -0.2562 -0.3419
 2832W        W19679   2.432   0.284  13.176 -0.1357  0.0568  0.0945
 2833W        W19680   7.210   3.496   3.785 -0.1811 -0.0845  0.0331
 2834W        W19681   5.599  12.319  16.297 -0.1113  0.1757 -0.1547
 2835W        W19682   0.355  10.002  15.055 -0.1442  0.1769 -0.0486
 2836W        W19683   5.775   3.016   1.651  0.0981  0.3464 -0.0532
 2837W        W19684   7.297   7.424   1.340  0.2180 -0.0439  0.0500
 2838W        W19685  17.777  16.209   2.875 -0.1268  0.1212 -0.1550
 2839W        W19686   8.752  15.053   4.377  0.1187 -0.3893 -0.0531
 2840W        W19687  13.755  12.759   4.604  0.2706  0.1811 -0.0305
 2841W        W19688   6.314   2.697  12.731  0.2718 -0.0693 -0.0037
 2842W        W19689   7.008   0.864  12.980 -0.0041 -0.0688 -0.2405
 2843W        W19690  17.122   8.305   3.910  0.0421 -0.1456 -0.1200
 2844W        W19691  16.438  12.493  13.079 -0.1664  0.0303  0.1940
 2845W        W19692   8.178   9.259  11.731 -0.0221 -0.2052  0.0038
 2846W        W19693  14.700   6.651   1.134 -0.0220  0.0749 -0.2360
 2847W        W19694  12.716   9.231  16.417  0.4998 -0.0262 -0.0523
 2848W        W19695  15.839  16.467  14.695  0.0712 -0.2024 -0.2280
 2849W        W19696  12.607   4.432  11.794 -0.4225 -0.0508 -0.0415
 2850W        W19697   7.787  14.875  15.748  0.1875 -0.0159 -0.0969
 2851W        W19698  11.963  11.533   1.520 -0.2890 -0.0308  0.0248
 2852W        W19699  10.065   1.282   3.096 -0.1392 -0.1135  0.0319
 2853W        W19700   3.508  15.929  15.029  0.4758 -0.0171 -0.0362
 2854W        W19701   9.036   9.401  16.580 -0.1980 -0.0534 -0.0009
 2855W        W19702   3.891   2.406   0.743 -0.2162  0.3540 -0.1756
 2856W        W19703   1.831  12.070   2.541 -0.1163 -0.1488 -0.0544
 2857W        W19704  14.759   9.656   5.330  0.2408  0.2699  0.0649
 2858W        W19705   1.328  10.094   1.285  0.2421 -0.0898 -0.1952
 2859W        W19706   7.992   9.882  13.053 -0.0541 -0.0297 -0.0962
 2860W        W19707  17.161  13.988   0.050 -0.0587 -0.3004 -0.3488
 2861W        W19708  16.946  11.412   3.701 -0.2350  0.0996  0.0582
 2862W        W19709  12.930  12.334  14.898  0.2693  0.2600 -0.0181
 2863W        W19710   7.608   0.128  16.115 -0.0786 -0.1467  0.0760
 2864W        W19711  14.544  14.245  15.803  0.0230  0.0454  0.0912
 2865W        W19712  13.307  16.011   4.043 -0.1628  0.4163  0.0431
 2866W        W19713   5.849   5.305   3.233  0.5446  0.1901  0.1621
 2867W        W19714   3.962  10.715   1.034 -0.3435 -0.0171 -0.1882
 2868W        W19715   8.364  15.257   0.989  0.0841  0.0780 -0.2259
 2869W        W19716  14.371  10.428   1.592 -0.2640 -0.2951  0.2444
 2870W        W19717   9.730  10.774   3.501 -0.1830 -0.1918  0.0835
 2871W        W19718   9.949  12.191  12.309  0.1285 -0.3838  0.0633
 2872W        W19719   6.361  15.160  12.683 -0.1466 -0.1085 -0.4721
 2873W        W19720   7.966   0.219  13.585 -0.0956  0.1620 -0.0944
 2874W        W19721   3.584  17.189  14.503  0.2290 -0.2164  0.0654
 2875W        W19722  16.117  14.191   2.229 -0.0254 -0.0975  0.2070
 2876W        W19723   0.804   7.652   0.038  0.1545 -0.0670  0.2216
 2877W        W19724   4.620  17.474   3.004 -0.1799 -0.3277  0.0324
 2878W        W19725  12.979   5.383  12.511  0.1144  0.1625  0.2310
 2879W        W19726   8.104   5.773  15.558 -0.0847  0.1369  0.0152
 2880W        W19727   4.503  15.133   2.800 -0.1440 -0.3644 -0.1820
 2881W        W19728  16.587   8.829   5.009 -0.0114  0.1154  0.0344
 2882W        W19729  10.912   3.781   3.612 -0.1117 -0.0824 -0.0823
 2883W        W19730   7.608   6.215  14.940 -0.0915 -0.3436  0.0760
 2884W        W19731   7.360  15.750  11.942 -0.1610 -0.2566 -0.2212
 2885W        W19732  17.259  13.811  13.710  0.1575  0.0653  0.0132
 2886W        W19733   2.233   5.862  13.695 -0.1103  0.0847  0.0619
 2887W        W19734  15.696   4.082   4.757 -0.0481  0.1069  0.0022
 2888W        W19735   7.837  15.521  11.770 -0.0877  0.0769  0.0413
 2889W        W19736   8.820  13.935   0.567  0.3063  0.3131  0.1255
 2890W        W19737   8.456  15.769  16.584  0.0708 -0.1196  0.2293
 2891W        W19738  12.578   7.128   4.276  0.0967 -0.0166 -0.0782
 2892W        W19739   9.665  16.403   4.337 -0.0103  0.1328  0.2155
 2893W        W19740  12.342  17.740   3.255 -0.1405 -0.0757  0.0378
 2894W        W19741  11.268  14.984  14.452 -0.2049  0.1355  0.1253
 2895W        W19742   8.483   2.672   4.811  0.1043  0.1506 -0.2624
 2896W        W19743  15.514   9.104  12.537 -0.3839 -0.0791  0.0304
 2897W        W19744  10.592   0.626   2.396 -0.0729 -0.0453  0.2307
 2898W        W19745  15.356   6.567   3.946  0.2235  0.0553 -0.2807
 2899W        W19746   2.503   3.317  15.663  0.0769  0.0264  0.0476
 2900W        W19747   5.640  12.499  14.053 -0.1785 -0.2552 -0.0446
 2901W        W19748   3.812   4.169   5.361  0.1978 -0.1950  0.1420
 2902W        W19749  14.542   8.018   0.604 -0.0868 -0.0419  0.0162
 2903W        W19750   7.268   5.382   3.098 -0.1523  0.1425 -0.0184
 2904W        W19751  10.309   3.701  15.466 -0.1006  0.0072 -0.2707
 2905W        W19752   0.405  12.997   1.005  0.2357  0.0113 -0.2040
 2906W        W19753   2.384  10.872  13.899 -0.2148  0.1524 -0.1164
 2907W        W19754  15.928  14.244  15.254  0.1583 -0.2738  0.2350
 2908W        W19755   0.092  17.193  14.625 -0.1733 -0.1114  0.0045
 2909W        W19756  11.787   1.145   1.752  0.0863  0.0379  0.0376
 2910W        W19757   7.709  15.288  16.634 -0.0819 -0.1796 -0.2160
 2911W        W19758   1.767   8.770   4.679 -0.0373 -0.0754  0.1244
 2912W        W19759   8.192   2.396   1.600 -0.3610 -0.0948 -0.0382
 2913W        W19760  13.542   1.282  15.284  0.0682  0.1248 -0.2873
 2914W        W19761   0.598   7.531  16.401  0.1219 -0.2429  0.0139
 2915W        W19762   0.934   7.705   0.969 -0.1360 -0.1752  0.1213
 2916W        W19763   2.790  12.685   3.250  0.1158  0.1693  0.0218
 2917W        W19764  11.312   9.348   4.897  0.3170 -0.1407 -0.1705
 2918W        W19765  10.991  11.992  14.804 -0.1920 -0.1864 -0.0194
 2919W        W19766   1.006  17.737  15.328  0.2007 -0.1766  0.0162
 2920W        W19767   1.683   2.436   0.126 -0.2400  0.1604 -0.1316
 2921W        W19768   7.559  16.733   5.640  0.0388 -0.1745 -0.1091
 2922W        W19769   2.731   5.368  11.751 -0.1475  0.5100 -0.1004
 2923W        W19770   8.236  15.459  14.597 -0.0857  0.0530 -0.1224
 2924W        W19771  11.709   0.745  11.551 -0.0735 -0.0016 -0.1984
 2925W        W19772   1.556  10.754  16.439 -0.3092  0.2125 -0.0817
 2926W        W19773   5.705   1.999   1.372  0.0705 -0.2261  0.2401
 2927W        W19774   0.624   5.082   3.719  0.4198  0.0390  0.2742
 2928W        W19775   1.337   9.591  12.264  0.1056  0.1326  0.2503
 2929W        W19776  17.046  16.182   0.034  0.1938 -0.1459 -0.2541
 2930W        W19777  13.914   1.011  14.078  0.1899 -0.2234  0.0742
 2931W        W19778   8.504   8.907  15.402  0.3559 -0.2741 -0.2949
 2932W        W19779   8.519   5.218  13.370  0.0810 -0.1166  0.1223
 2933W        W19780  14.941   4.088  13.911  0.0119 -0.2333 -0.0342
 2934W        W19781  17.781  13.747  13.163  0.0482 -0.2088 -0.2165
 2935W        W19782   4.807   9.008   4.608 -0.3435  0.1614 -0.0705
 2936W        W19783   2.889  13.906   2.049  0.1021  0.0788  0.0528
 2937W        W19784  10.169   3.473  13.325  0.2677 -0.0052  0.0037
 2938W        W19785   8.822  11.771  14.337  0.2012 -0.1450  0.1898
 2939W        W19786  15.078  10.806   2.370  0.2311 -0.0400  0.1733
 2940W        W19787  10.868   0.945  13.426  0.1670  0.0289 -0.0034
 2941W        W19788   1.531   1.055  16.616 -0.1316  0.0461 -0.0111
 2942W        W19789  13.870  14.845  15.694 -0.2870 -0.0536  0.4463
 2943W        W19790   4.659   9.127   6.093 -0.1092 -0.1096 -0.0283
 2944W        W19791   9.720  17.952   4.166 -0.0937 -0.0667 -0.2045
 2945W        W19792   1.429  10.374  15.851 -0.2108  0.2908 -0.0152
 2946W        W19793   8.562  15.330   1.456  0.3052 -0.2155 -0.2133
 2947W        W19794  15.678   1.933  12.712  0.1889  0.1115 -0.0401
 2948W        W19795   1.746   5.554   2.774 -0.1505 -0.0275  0.0657
 2949W        W19796   8.022   9.106  15.657 -0.0543 -0.2929 -0.1410
 2950W        W19797  15.756   9.472   2.111  0.0505  0.1012 -0.0336
 2951W        W19798  10.519  12.864  15.171  0.2407  0.0552 -0.0193
 2952W        W19799   8.003   1.901   4.283  0.0108 -0.1525  0.0876
 2953W        W19800   5.615   0.178   1.388 -0.1385  0.2511  0.0789
 2954W        W19801   3.959   3.358  14.458  0.2697  0.0733 -0.2154
 2955W        W19802   2.549  14.252  14.499  0.2988  0.0296 -0.1839
 2956W        W19803  12.531   7.282   2.308 -0.1901  0.3184  0.1857
 2957W        W19804   9.884  16.668   3.108  0.0394  0.1707 -0.0062
 2958W        W19805  14.956   4.115  15.234  0.1304  0.1169  0.3386
 2959W        W19806   9.495  16.270  15.626 -0.2302  0.0739 -0.1462
 2960W        W19807   1.009  15.513   3.010  0.2001  0.1426 -0.1776
 2961W        W19808   6.916  13.504   3.269  0.1043  0.1820  0.1095
 2962W        W19809   8.831   3.973  13.535 -0.3126 -0.0841 -0.1176
 2963W        W19810   5.859  12.253   0.935 -0.0452 -0.1639 -0.2684
 2964W        W19811   7.220  16.314   0.323  0.0801  0.0001  0.1437
 2965W        W19812   9.948  12.772   3.547 -0.0281  0.1538 -0.3032
 2966W        W19813  12.286   9.507  16.693 -0.1056  0.1272  0.3115
 2967W        W19814   9.473  17.742  12.161  0.2845  0.1930 -0.1251
 2968W        W19815  11.122   5.281  16.766 -0.0333 -0.1273 -0.3003
 2969W        W19816   9.540   6.553   0.131 -0.1338 -0.2381 -0.1413
 2970W        W19817   6.621   0.859  12.179  0.2026 -0.0413  0.1858
 2971W        W19818  16.934  12.897   1.307  0.4899 -0.0412  0.0172
 2972W        W19819  11.260   8.717  15.331 -0.0623 -0.1690  0.0355
 2973W        W19820  11.999  14.640   2.693  0.0235 -0.2341 -0.0293
 2974W        W19821   0.608   0.639  12.393 -0.0785 -0.0962 -0.0312
 2975W        W19822  13.419  12.899  13.945 -0.0541  0.0849  0.1215
 2976W        W19823  17.258  11.097   3.485 -0.1770  0.0813  0.2187
 2977W        W19824   2.756   7.636   2.870 -0.0174  0.0983 -0.2203
 2978W        W19825   1.739   6.849  15.075 -0.0872 -0.1357 -0.4119
 2979W        W19826   4.867   9.347   3.373  0.0310 -0.1351 -0.2950
 2980W        W19827   1.742   2.978   0.159  0.0606 -0.2685 -0.3530
 2981W        W19828   9.951   7.919  16.465 -0.0774  0.0104  0.0124
 2982W        W19829   6.378  12.459  15.354 -0.0123  0.1232  0.0361
 2983W        W19830   2.313   4.629  15.781  0.0055  0.0979  0.2158
 2984W        W19831   5.521   5.732   1.035 -0.1670  0.0288  0.3056
 2985W        W19832   4.898  15.850   0.700 -0.1732 -0.1414  0.2549
 2986W        W19833  16.460   3.680   2.611  0.3207 -0.1806 -0.2997
 2987W        W19834   7.548   3.160   5.955  0.2089 -0.1869  0.1168
 2988W        W19835  10.289   3.644  16.566 -0.1535  0.1608  0.0976
 2989W        W19836   1.063   3.186   5.360  0.2770  0.1510  0.0564
 2990W        W19837   0.451   1.985   3.559  0.3675  0.1034  0.0200
 2991W        W19838  14.070   7.489  16.219 -0.2927  0.1923 -0.0076
 2992W        W19839  17.471   4.802  15.571 -0.0508 -0.0731  0.0888
 2993W        W19840   6.940   6.264   1.214 -0.1813 -0.1369 -0.1020
 2994W        W19841   3.508  12.075  16.314  0.0509  0.0353  0.0522
 2995W        W19842  13.559  10.182   1.420 -0.0371  0.0971 -0.0392
 2996W        W19843  12.562  10.822  12.105 -0.0370  0.1407 -0.0217
 2997W        W19844   0.678   1.884  12.754 -0.0080 -0.0174  0.1361
 2998W        W19845   9.106   6.912   1.427 -0.2427 -0.2915  0.2003
 2999W        W19846   9.217  14.455   5.893  0.1053  0.0297 -0.1469
 3000W        W19847   3.446  14.739  13.018 -0.2620 -0.1514 -0.3807
 3001W        W19848  13.495  12.296   3.122 -0.1286 -0.2958 -0.2246
 3002W        W19849   9.876   1.085  15.432  0.2378 -0.0092  0.2781
 3003W        W19850  15.102   8.462   3.143 -0.0154  0.1957  0.0697
 3004W        W19851  13.674   6.569   1.508 -0.0768  0.2506 -0.5319
 3005W        W19852   7.234   6.525  15.014 -0.0358 -0.3945 -0.2268
 3006W        W19853   7.385   1.260   1.614  0.2001  0.1651 -0.4570
 3007W        W19854  15.151   4.551   0.998  0.0840 -0.0901  0.1339
 3008W        W19855  14.029   4.933   2.284  0.0612  0.2070 -0.1221
 3009W        W19856   1.906  17.490   2.193 -0.0214  0.2046 -0.0899
 3010W        W19857   6.251  15.923  13.789 -0.1129  0.3187 -0.2094
 3011W        W19858   6.827   5.479   2.751  0.1430 -0.1585 -0.0176
 3012W        W19859  13.041   2.431   0.167  0.0789 -0.1427 -0.0050
 3013W        W19860  14.086   9.815   2.493  0.0784  0.0143 -0.1062
 3014W        W19861   0.162  12.108   1.447  0.3130  0.2395  0.0730
 3015W        W19862   3.015  15.980  13.229 -0.1933  0.2985  0.1628
 3016W        W19863  17.204  16.437   1.154  0.1119 -0.1559 -0.1239
 3017W        W19864   2.250   9.460   3.935  0.4153  0.1094 -0.1951
 3018W        W19865   0.615  10.610   2.378  0.0465  0.0032 -0.2278
 3019W        W19866  13.857  15.025  12.138  0.1162 -0.1884  0.0512
 3020W        W19867   2.070  16.802  14.864  0.0244 -0.0101 -0.3881
 3021W        W19868   1.754   4.332   4.954 -0.0546 -0.1982 -0.1964
 3022W        W19869   6.223   1.317  15.524  0.1467  0.0766  0.1200
 3023W        W19870   6.417   9.196  14.761 -0.2296  0.1854  0.2676
 3024W        W19871  11.542   1.128   4.198 -0.0741  0.0089 -0.0095
 3025W        W19872  13.592  11.695  14.576 -0.2015  0.1318 -0.2321
 3026W        W19873   4.988   5.834   6.277 -0.0381  0.0837 -0.0217
 3027W        W19874  10.129  16.039   5.909 -0.0800 -0.0805  0.2714
 3028W        W19875  14.455  11.206  13.053  0.0690 -0.0635 -0.1811
 3029W        W19876   5.736   0.281  15.664  0.0982 -0.0455 -0.0161
 3030W        W19877   6.268   7.793  14.641 -0.2087 -0.0353  0.0918
 3031W        W19878   6.740  11.118  14.536  0.0034 -0.0550 -0.0032
 3032W        W19879   4.155   3.940   2.852 -0.0243 -0.2332  0.0696
 3033W        W19880   0.089   6.275  13.778 -0.0156 -0.1649 -0.1123
 3034W        W19881   3.600   8.313   2.491  0.0673 -0.1855  0.1021
 3035W        W19882  10.621  11.579  14.594  0.2545  0.0411  0.4059
 3036W        W19883  14.149  15.328   0.161 -0.1973  0.0051  0.1270
 3037W        W19884  15.313  15.715   5.731 -0.3902 -0.2988 -0.3234
 3038W        W19885  12.130  13.915   1.375 -0.0788  0.1462  0.1572
 3039W        W19886   3.844  10.549   5.686  0.2583 -0.3833  0.1375
 3040W        W19887  15.992  16.152   3.935 -0.2286 -0.2298  0.0711
 3041W        W19888   4.021   8.035   5.137  0.3167 -0.4104 -0.1522
 3042W        W19889   3.822   9.058  11.292 -0.0302  0.1906  0.1199
 3043W        W19890   7.343   7.683  12.573  0.3269  0.1167 -0.0091
 3044W        W19891   0.663  15.675   2.075 -0.1409  0.4061  0.0903
 3045W        W19892  10.722   2.810  15.566 -0.0971 -0.1193  0.0070
 3046W        W19893   1.170  14.004  15.979  0.0035  0.1504  0.1564
 3047W        W19894   7.111   8.525   1.203  0.1195 -0.3225 -0.2989
 3048W        W19895  11.892   4.063  15.082 -0.0063  0.3120  0.0614
 3049W        W19896   1.901  11.326   6.352 -0.1639  0.1477 -0.1791
 3050W        W19897  10.537  13.649   4.793  0.0339  0.1052 -0.0865
 3051W        W19898  14.392  12.696  11.858  0.2670  0.2448  0.1478
 3052W        W19899  17.097  11.939   2.923 -0.1286  0.3588  0.5347
 3053W        W19900  14.043   4.096  11.839  0.0484  0.1873  0.0483
 3054W        W19901  11.835   0.982  13.737  0.1791 -0.2845  0.1385
 3055W        W19902   0.700  14.791   3.085  0.0039  0.1184 -0.1600
 3056W        W19903  12.644  14.802   1.742 -0.1496  0.1194 -0.2310
 3057W        W19904   1.564   4.929  10.746  0.2204  0.1564 -0.4755
 3058W        W19905  10.604  11.870  13.201  0.1232 -0.0707 -0.3597
 3059W        W19906   1.417   5.254  10.407  0.2007  0.3018 -0.1028
 3060W        W19907  17.140   9.031  13.172 -0.0364 -0.2774 -0.0216
 3061W        W19908  13.243   8.673  11.651 -0.2658 -0.4495 -0.0071
 3062W        W19909   5.933   9.402  14.026 -0.1562  0.1028 -0.0332
 3063W        W19910  17.388  14.830  13.532  0.4345 -0.0734  0.1517
 3064W        W19911  10.369  10.684   4.947  0.3177  0.1374 -0.2176
 3065W        W19912   4.878   0.834  11.986  0.3301  0.0362 -0.0510
 3066W        W19913   8.493   1.685   0.273  0.2165  0.1869  0.3819
 3067W        W19914  15.704   7.896   1.080  0.2202 -0.3082 -0.1185
 3068W        W19915  12.322   6.477  13.079  0.2467  0.0419 -0.3354
 3069W        W19916  12.540  15.651   4.779  0.1254  0.0500 -0.0083
 3070W        W19917   4.821   2.046   2.444  0.1238 -0.0360  0.2123
 3071W        W19918  11.732   9.625   3.770 -0.1229 -0.2695  0.1409
 3072W        W19919   3.732   6.069   5.024  0.2769  0.0515 -0.2623
 3073W        W19920  11.188   8.397  15.733  0.1082 -0.1928 -0.0522
 3074W        W19921   6.329  16.550   5.838  0.3082 -0.1710  0.3970
 3075W        W19922  13.653   2.033  13.956  0.1828 -0.0394  0.0385
 3076W        W19923   3.053   1.451   0.295  0.1559  0.1962 -0.3329
 3077W        W19924  14.212  13.371   4.974  0.0281  0.3161  0.2755
 3078W        W19925  13.641  10.628  14.925  0.1114  0.1784 -0.0427
 3079W        W19926   2.216   4.217  12.666 -0.1474 -0.0195 -0.0950
 3080W        W19927   1.197   4.379  13.429  0.3881 -0.1415 -0.2004
 3081W        W19928   8.052   1.554   1.698  0.1041 -0.1642  0.2902
 3082W        W19929   2.555  16.761  15.064 -0.0254  0.2843 -0.0827
 3083W        W19930  12.580   4.735  14.306  0.1541 -0.1893  0.3957
 3084W        W19931  16.160   2.257   0.968 -0.2152  0.0810  0.1059
 3085W        W19932   6.816   7.630   4.372  0.0021  0.1410  0.0456
 3086W        W19933  16.299   2.570  10.447  0.1011  0.1667  0.3326
 3087W        W19934  17.362   9.156  12.600 -0.0574 -0.1405 -0.2954
 3088W        W19935   5.373   1.729   2.245  0.0466  0.0264  0.0766
 3089W        W19936  13.972   8.186   3.540  0.2306 -0.1264  0.3242
 3090W        W19937  15.373  16.575  15.034  0.0855 -0.1419  0.3326
 3091W        W19938  15.203   7.634  15.393 -0.0240  0.1176 -0.0543
 3092W        W19939   2.363   8.445  15.600 -0.0842 -0.1696 -0.1610
 3093W        W19940   7.793  11.742   4.382  0.1221  0.0773 -0.4367
 3094W        W19941  17.729   9.114  15.992 -0.1073 -0.1693  0.2944
 3095W        W19942  14.162   4.493   2.523  0.4322 -0.0104 -0.1178
 3096W        W19943   9.528   9.916   0.977  0.0235 -0.0434 -0.1141
 3097W        W19944   8.770   6.732   2.733  0.2392 -0.0678 -0.0575
 3098W        W19945   8.890   5.598   0.597  0.2193  0.0313 -0.2425
 3099W        W19946   9.286  17.067   0.665 -0.0667 -0.1963  0.0622
 3100W        W19947   4.784  15.934  14.565  0.2172  0.1605 -0.0786
 3101W        W19948   7.736   9.837  13.926  0.0275 -0.1165  0.0967
 3102W        W19949  16.035   8.704   4.732  0.2591 -0.0392  0.3600
 3103W        W19950   3.083  12.815   3.684  0.1198 -0.0748 -0.1920
 3104W        W19951  16.126   4.755   3.944 -0.1047  0.0463  0.1221
 3105W        W19952   6.189  11.580   3.258 -0.2149  0.2346  0.1285
 3106W        W19953  17.564  17.828   1.205 -0.1218 -0.0634 -0.1483
 3107W        W19954  13.278   4.956   0.767 -0.0039 -0.0182 -0.1102
 3108W        W19955   6.981   5.773  13.867 -0.1292  0.1318 -0.0785
 3109W        W19956  16.104  11.583   3.111 -0.0950 -0.0198  0.0862
 3110W        W19957  14.242   4.052   2.923  0.1670 -0.1438  0.0009
 3111W        W19958   7.369   1.060   0.382  0.1202  0.1374 -0.2227
 3112W        W19959  10.618  17.936   5.243 -0.1652  0.0750  0.0375
 3113W        W19960   7.045   6.393   2.459  0.0173 -0.1212 -0.0413
 3114W        W19961  17.251   0.070  13.463  0.0478  0.1315  0.3299
 3115W        W19962  17.918  16.367  15.042  0.2345 -0.1273  0.0631
 3116W        W19963  15.677  12.245   4.542 -0.2331  0.0685  0.0404
 3117W        W19964   1.179   8.845   0.496  0.4644  0.0632  0.0984
 3118W        W19965   1.551   0.590  11.997  0.0805 -0.0301  0.0791
 3119W        W19966   9.141   9.104   3.081  0.0801  0.2195 -0.0858
 3120W        W19967  16.972  17.007   1.187 -0.1078 -0.1160 -0.0442
 3121W        W19968   4.757   3.012   4.308 -0.0606  0.0126 -0.0736
 3122W        W19969  12.065   1.784   4.779 -0.2625  0.0743 -0.5569
 3123W        W19970   0.704   1.972  15.564 -0.0579  0.0541 -0.1184
 3124W        W19971  11.229   6.595  14.807  0.3202 -0.0089 -0.1285
 3125W        W19972  11.227   2.965   4.349  0.3080  0.1501 -0.1607
 3126W        W19973   6.884  17.935  16.500 -0.0444  0.0468  0.0834
 3127W        W19974  11.150   6.849   3.974 -0.0411  0.0940  0.1072
 3128W        W19975   0.345  17.116   0.680 -0.3137 -0.0075  0.2346
 3129W        W19976   4.625   9.390   0.916 -0.0865  0.0315 -0.3178
 3130W        W19977  14.697   3.921   0.128 -0.0624 -0.1362  0.0214
 3131W        W19978  10.820  11.829   2.323 -0.0651  0.1090 -0.1723
 3132W        W19979  14.584   2.342   4.741  0.0628  0.1497  0.0708
 3133W        W19980   1.419  13.304  12.373 -0.0396  0.2607 -0.2408
 3134W        W19981   0.388  17.400   1.658  0.0207 -0.0487 -0.0156
 3135W        W19982  12.573  13.812  16.370  0.2987  0.1423 -0.1240
 3136W        W19983   7.098   3.702   1.825 -0.0811  0.0393 -0.0869
 3137W        W19984  15.651  12.386  13.453 -0.1419  0.1294 -0.0069
 3138W        W19985   2.838   6.807  15.311 -0.2779 -0.0490 -0.0460
 3139W        W19986  14.752  13.520   4.981  0.5398 -0.1285 -0.2251
 3140W        W19987  15.043  12.593   3.764 -0.0103 -0.0731 -0.0721
 3141W        W19988  13.395  17.877   3.722 -0.1726 -0.1640  0.0829
 3142W        W19989  12.391   2.025   4.463 -0.1723  0.0480 -0.1202
 3143W        W19990   8.097  11.549   0.138  0.0270 -0.1762  0.1784
 3144W        W19991  13.276  17.436   2.659 -0.1670  0.0380  0.5150
 3145W        W19992  15.060   6.087   2.625 -0.0080  0.0875 -0.0443
 3146W        W19993  14.097  12.327   3.729 -0.0469 -0.0662 -0.0081
 3147W        W19994   9.680   3.503  15.658  0.1994  0.2011  0.0384
 3148W        W19995  12.457   4.077  11.459  0.1982 -0.0526  0.1456
 3149W        W19996   5.822   9.587  15.814 -0.1898 -0.0513 -0.2142
 3150W        W19997   1.737   3.327   1.024 -0.2675 -0.0652 -0.0217
 3151W        W19998   5.499  16.516   3.554 -0.2987 -0.3530  0.0440
 3152W        W19999   3.777   2.129  16.199 -0.1112  0.0066 -0.0420
 3153W        W20000   6.858   2.182   4.162 -0.0612 -0.0460  0.4586
 3154W        W20001   6.995  12.347   1.503  0.1549  0.3846 -0.0750
 3155W        W20002   9.824  10.964  12.206 -0.1744 -0.0950  0.0235
 3156W        W20003  10.716  11.217   1.575  0.1202 -0.0515 -0.3033
 3157W        W20004   9.610   6.988  12.919 -0.1841 -0.2217  0.2507
 3158W        W20005   5.360   4.113  13.424 -0.2356 -0.1053 -0.0634
 3159W        W20006   1.719  15.003   0.194  0.0831  0.0044 -0.0394
 3160W        W20007  15.534  10.991   3.898  0.0911 -0.1647 -0.3167
 3161W        W20008  14.183  10.628   2.670  0.1130  0.0276  0.0084
 3162W        W20009  13.117   8.788   4.862  0.3274  0.1627  0.2282
 3163W        W20010   4.486   5.360   1.771 -0.2291 -0.1425  0.2715
 3164W        W20011   4.317   9.030  14.093 -0.2575  0.3216 -0.0050
 3165W        W20012  13.839  13.630  10.791  0.3506 -0.1193  0.1431
 3166W        W20013  11.285   0.438   0.230 -0.1146 -0.0532  0.0469
 3167W        W20014   4.542   9.168  14.942 -0.0372  0.0332  0.1510
 3168W        W20015   0.386  15.076   3.768  0.2203  0.2465  0.3050
 3169W        W20016  14.658  14.039   2.478  0.1942 -0.0978  0.2679
 3170W        W20017   8.846   4.086   4.935 -0.2070 -0.0295  0.0418
 3171W        W20018  10.849   6.091  12.707  0.0301 -0.0266  0.0211
 3172W        W20019  11.327   7.787  13.382 -0.1474 -0.0079 -0.3233
 3173W        W20020   6.557   9.282  15.808  0.1181  0.0247  0.3199
 3174W        W20021  16.111   5.626  13.623 -0.0167  0.1886  0.0314
 3175W        W20022  16.487   1.013   5.214  0.0445  0.0610  0.0807
 3176W        W20023   9.655  15.700  13.557 -0.0678  0.0471 -0.2059
 3177W        W20024   1.609   1.185   0.706  0.1710  0.1757 -0.1926
 3178W        W20025   9.571  10.574   3.914 -0.0161  0.1142 -0.0564
 3179W        W20026   0.782   0.983  16.758  0.0446  0.0979  0.0165
 3180W        W20027  14.597  16.962  10.751  0.2980 -0.2187 -0.2208
 3181W        W20028   2.587  10.595   2.542 -0.2015  0.0324  0.0550
 3182W        W20029   5.613   5.407   2.265 -0.1168  0.3732 -0.0632
 3183W        W20030  17.549  12.269  14.099 -0.1296 -0.4704 -0.2371
 3184W        W20031  16.948   4.240   6.115 -0.1368  0.4167  0.0473
 3185W        W20032   3.635   7.696   3.834 -0.2948  0.0810 -0.0322
 3186W        W20033   0.954   8.927   4.026  0.2440 -0.0942  0.3759
 3187W        W20034  16.611  11.170   5.572 -0.2563 -0.0817 -0.0062
 3188W        W20035  13.464   9.718  15.246 -0.1944 -0.1910  0.3883
 3189W        W20036   5.663   6.177  14.104  0.1804  0.2238  0.1209
 3190W        W20037  12.280   1.749  16.043 -0.2123  0.2903  0.0766
 3191W        W20038  11.203   5.521   3.730 -0.0073 -0.0671 -0.1489
 3192W        W20039   4.662  14.794  15.794 -0.2040  0.0740 -0.1411
 3193W        W20040   2.738   8.981  15.137 -0.1078  0.0582  0.1088
 3194W        W20041  12.427   0.597   0.156  0.0098 -0.0302  0.0390
 3195W        W20042  16.599  17.468   4.927  0.1298  0.2249 -0.1377
 3196W        W20043  12.996   7.133  12.315 -0.1396  0.1231  0.0561
 3197W        W20044   4.670  17.894  16.342  0.1448 -0.0614 -0.1795
 3198W        W20045  14.800   8.516   3.867 -0.1868  0.3067  0.0450
 3199W        W20046   9.378   5.425  13.710 -0.0837 -0.1012  0.1344
 3200W        W20047   1.445   9.043   3.999 -0.3579  0.0910  0.0740
 3201W        W20048  17.121  13.841   0.549  0.1270 -0.2410 -0.0231
 3202W        W20049  10.237  17.706  15.721  0.0592  0.3642  0.1246
 3203W        W20050   6.421  13.575  15.543 -0.1994 -0.0493  0.1147
 3204W        W20051   3.126  17.604   0.049  0.1822 -0.0431  0.0279
 3205W        W20052   9.748   4.457   4.764  0.0678  0.1466 -0.0412
 3206W        W20053   1.139  10.806   4.096 -0.4598  0.2886 -0.4033
 3207W        W20054  17.296  10.383   1.446  0.0581  0.4053  0.0112
 3208W        W20055   9.143   9.065  12.652  0.2222 -0.0884  0.0764
 3209W        W20056  11.434   1.232  14.579  0.2552 -0.0215 -0.2062
 3210W        W20057  12.643  12.295   0.300  0.1511 -0.2131 -0.0316
 3211W        W20058   6.285   0.010  12.074  0.1045  0.0087  0.3068
 3212W        W20059  15.152   2.707  14.658 -0.0666 -0.0121 -0.1249
 3213W        W20060   3.593   1.078  16.553 -0.2334  0.2235  0.4537
 3214W        W20061  11.582   1.922  12.709  0.0476 -0.0587  0.0614
 3215W        W20062  11.540   7.567  11.767  0.0535  0.0599 -0.2652
 3216W        W20063  10.903   5.485   4.246  0.0187 -0.0296 -0.1089
 3217W        W20064  16.738  16.863  14.454  0.0763 -0.2120  0.5604
 3218W        W20065  16.061  12.579   1.497 -0.2182 -0.0699  0.1386
 3219W        W20066   7.775   4.212  16.032 -0.1479 -0.0007  0.0640
 3220W        W20067   7.608  11.488  14.404  0.0045  0.1643 -0.1854
 3221W        W20068   7.977   7.167   0.738  0.0116 -0.1537  0.3143
 3222W        W20069   2.477   1.529  11.553 -0.1554 -0.0092  0.1528
 3223W        W20070  11.044   6.235   4.967  0.3046 -0.2293 -0.0538
 3224W        W20071   3.389  14.379  15.371 -0.0776 -0.0748  0.1950
 3225W        W20072   7.795   7.679   3.385 -0.2398 -0.1769 -0.2433
 3226W        W20073   7.100   3.659  11.449 -0.0283 -0.0502  0.1653
 3227W        W20074   7.765  14.667   1.866  0.3576 -0.0140 -0.0091
 3228W        W20075   6.139  15.215   5.393  0.1475 -0.2717 -0.0217
 3229W        W20076  13.634  10.149   2.639 -0.0835 -0.1386  0.2170
 3230W        W20077  17.306  13.259   5.699  0.4411 -0.0011  0.1959
 3231W        W20078   8.197  14.300   2.503 -0.3256  0.1408 -0.0033
 3232W        W20079   6.352   2.180  14.390 -0.0486  0.2145  0.3611
 3233W        W20080   2.604   2.903   1.807  0.0009  0.2058 -0.0753
 3234W        W20081   4.580   1.622   3.779  0.2023 -0.1005 -0.1588
 3235W        W20082  15.907  14.372   4.961 -0.0424 -0.1535 -0.0783
 3236W        W20083   2.156  15.154  13.387 -0.0455  0.2509 -0.0095
 3237W        W20084   5.262   4.588   2.672  0.1539  0.1827  0.1704
 3238W        W20085  12.464  14.599   3.002 -0.0103 -0.0337 -0.1188
 3239W        W20086   9.353   6.396  14.184  0.1382 -0.0769 -0.3268
 3240W        W20087   6.486  17.341   5.118  0.2633 -0.1064  0.1078
 3241W        W20088  14.721   2.029   0.226  0.0416  0.2132 -0.1265
 3242W        W20089   9.573  14.161  16.694 -0.2114 -0.2721  0.1310
 3243W        W20090   8.568   0.160   1.138  0.0840  0.1694 -0.3292
 3244W        W20091  16.153  12.306   0.417 -0.0214 -0.2751 -0.2068
 3245W        W20092   0.799  11.001  12.191 -0.1352  0.1064  0.4682
 3246W        W20093  17.324  12.530   1.264 -0.0216 -0.1469  0.1837
 3247W        W20094   7.459  16.993  10.342  0.0133  0.1775  0.2917
 3248W        W20095  12.124   6.618  13.857 -0.0226 -0.1051  0.0476
 3249W        W20096   8.146  13.794   3.560 -0.1818  0.0295  0.1966
 3250W        W20097   4.530   5.487  15.986 -0.4447 -0.0741 -0.0525
 3251W        W20098  14.538   1.931  15.905  0.2017 -0.0551 -0.1204
 3252W        W20099  16.282  13.561  15.554 -0.0502  0.0345  0.0759
 3253W        W20100   7.956   7.073   0.202  0.1253 -0.3971  0.1227
 3254W        W20101   6.853   4.147  16.153 -0.2094 -0.1812 -0.0308
 3255W        W20102  16.801  14.538  12.518  0.0208  0.0388  0.0546
 3256W        W20103   0.695   8.858   0.630  0.1673 -0.0684 -0.0337
 3257W        W20104   3.488  16.123   5.107  0.0068 -0.0833 -0.2789
 3258W        W20105   4.546  17.773  15.845 -0.0051 -0.3844  0.1203
 3259W        W20106  13.227  13.006   1.421 -0.1927 -0.5111  0.1228
 3260W        W20107   5.040   3.559  13.453  0.0441 -0.1276  0.0001
 3261W        W20108   4.387   9.998   4.565 -0.0736 -0.0975 -0.1088
 3262W        W20109  10.501   2.138   0.903  0.0033 -0.1498 -0.1882
 3263W        W20110   3.768  10.471   4.213  0.1250 -0.3214 -0.2228
 3264W        W20111   7.495   4.417   3.987  0.0159  0.0123 -0.1279
 3265W        W20112   0.958  16.904  15.949 -0.1773 -0.0742  0.0481
 3266W        W20113   7.016  15.858   2.896 -0.0845  0.0297 -0.3221
 3267W        W20114  16.885   7.039   4.868 -0.0726 -0.3822 -0.0621
 3268W        W20115  10.310   6.663  15.204 -0.2661 -0.0266 -0.0771
 3269W        W20116   2.777  14.464   2.300  0.2847 -0.3222 -0.2008
 3270W        W20117   1.071   1.390  14.799 -0.0957 -0.2680 -0.2476
 3271W        W20118   3.663   7.845   0.423 -0.0413 -0.1037 -0.2645
 3272W        W20119   0.574   1.221   3.052 -0.2276  0.3382 -0.0701
 3273W        W20120  13.013   8.923  16.206 -0.1904  0.0463 -0.1373
 3274W        W20121  15.876  10.095   1.345  0.1033 -0.0291 -0.1093
 3275W        W20122  13.899  12.886  13.795 -0.0546 -0.3332 -0.1676
 3276W        W20123   7.540  17.554  14.234  0.1689  0.1724  0.3615
 3277W        W20124  16.388   7.699  14.655  0.0867  0.0411 -0.0534
 3278W        W20125  10.368   4.905   4.584 -0.0320 -0.0518 -0.0457
 3279W        W20126   9.058   5.055  14.620 -0.0069 -0.0312 -0.2367
 3280W        W20127   4.415   3.548  14.612 -0.1519 -0.2894  0.1114
 3281W        W20128   0.688  15.803   3.714 -0.0984  0.1907 -0.2457
 3282W        W20129  13.738   8.508  11.609  0.1013 -0.0581  0.1424
 3283W        W20130  14.029  14.190   5.105  0.1769 -0.1326  0.1607
 3284W        W20131  12.918   9.307   2.606  0.1180 -0.2021 -0.1242
 3285W        W20132  17.617  11.524  14.439 -0.2417  0.0828  0.2104
 3286W        W20133   7.141  16.750  11.552 -0.0229 -0.0652 -0.0732
 3287W        W20134   4.738   0.564   2.006  0.1942 -0.0170 -0.1658
 3288W        W20135   6.352   0.896  11.739  0.3239 -0.0330  0.2268
 3289W        W20136   2.542   4.576   3.519  0.2422  0.0484  0.1238
 3290W        W20137  14.886  15.701   4.893 -0.1876  0.0325  0.1523
 3291W        W20138  16.564  16.044  16.795  0.0988  0.1628 -0.0709
 3292W        W20139   7.977   8.384   0.464 -0.0775 -0.2026 -0.0003
 3293W        W20140  17.147  13.588   2.747 -0.0034  0.1710  0.0646
 3294W        W20141   9.955   2.000   0.750 -0.4972 -0.2089  0.1578
 3295W        W20142  11.199   1.670   1.330  0.2185  0.0564 -0.2557
 3296W        W20143   1.310   1.164   2.839  0.1726  0.0928  0.2056
 3297W        W20144  12.559   6.524  14.870  0.1447  0.0558  0.1910
 3298W        W20145   6.444  16.325  14.198 -0.1309 -0.0486 -0.0697
 3299W        W20146   0.665   0.777  15.303  0.1006  0.1647 -0.3881
 3300W        W20147  15.946  15.870  12.114 -0.0843 -0.0326 -0.1464
 3301W        W20148   3.074  16.757  16.334 -0.2565 -0.0970  0.0043
 3302W        W20149   6.028  10.628   1.969 -0.0630 -0.1220  0.0392
 3303W        W20150   5.439   2.026  11.806  0.2108 -0.1168  0.0803
 3304W        W20151  12.955  14.916  15.392  0.2622 -0.0650  0.0530
 3305W        W20152  16.730  15.286  15.748  0.1557  0.0218 -0.0645
 3306W        W20153  12.737   3.672  15.395 -0.0852 -0.1989 -0.2630
 3307W        W20154   7.361   3.919  15.994 -0.0304 -0.2951 -0.0093
 3308W        W20155  15.130  16.336  15.989 -0.4169 -0.3648 -0.1372
 3309W        W20156   6.290   6.042  12.956 -0.2316 -0.1328  0.0025
 3310W        W20157   7.625  10.540   5.020 -0.1309  0.1903  0.2201
 3311W        W20158  14.773  15.599   5.552  0.1228  0.0145  0.1704
 3312W        W20159   8.439   1.636   1.310 -0.0540 -0.2168  0.1097
 3313W        W20160  10.155  15.268  16.279  0.2209  0.0437 -0.0602
 3314W        W20161  13.004   0.921  15.327  0.3752 -0.2634 -0.0534
 3315W        W20162   5.983  16.460  16.196 -0.3794  0.4029  0.1648
 3316W        W20163   6.069  17.737   1.891 -0.4898  0.1895 -0.0062
 3317W        W20164  13.641   0.025  16.121 -0.1032  0.0636  0.2587
 3318W        W20165  17.874   1.658  16.623 -0.4057 -0.0380  0.0237
 3319W        W20166  13.543  15.159  11.686  0.0101 -0.3077  0.0942
 3320W        W20167   8.627  12.703   2.093  0.0513  0.0805 -0.0753
 3321W        W20168   6.720   9.711  14.602  0.0820 -0.2937 -0.0543
 3322W        W20169   3.608  12.194  12.336 -0.1464 -0.1690  0.0537
 3323W        W20170   1.219  13.534   4.152 -0.0183  0.0619 -0.1474
 3324W        W20171  15.735  12.184   0.119  0.2211 -0.0884 -0.0992
 3325W        W20172  10.549   5.835  14.219 -0.0369 -0.0540 -0.0463
 3326W        W20173  14.928   5.791  13.204 -0.0650 -0.0141  0.1612
 3327W        W20174  13.047  13.361   1.765 -0.0683 -0.1615  0.0385
 3328W        W20175   7.876  17.121   0.351 -0.1545  0.3363  0.0113
 3329W        W20176   0.607  13.482   5.958 -0.2224  0.0513 -0.0533
 3330W        W20177   5.366   6.470  12.957  0.1116  0.2104 -0.1761
 3331W        W20178  17.054   6.483   5.571 -0.1881 -0.1363 -0.1534
 3332W        W20179   4.661   7.464  16.315 -0.2400 -0.0962  0.0490
 3333W        W20180   3.066   8.368  14.565 -0.3163 -0.0234 -0.0840
 3334W        W20181   3.536   4.157  16.245 -0.4354 -0.0815  0.0427
 3335W        W20182  11.971   5.089   0.341 -0.0357  0.1216  0.1327
 3336W        W20183   9.125  10.450   0.950 -0.0798 -0.0242 -0.0632
 3337W        W20184  16.409   7.590   5.346 -0.2077 -0.0812 -0.2568
 3338W        W20185  14.400  16.775   4.290  0.1855  0.0337 -0.0818
 3339W        W20186   2.135  16.412  15.254  0.2821  0.0155 -0.1688
 3340W        W20187   0.735   9.570  13.102  0.0477 -0.0671  0.4237
 3341W        W20188  17.521   0.908   4.483  0.2346 -0.2383 -0.0086
 3342W        W20189   8.678   1.311  12.081 -0.0394 -0.3463 -0.1375
 3343W        W20190   1.784   5.391  12.048  0.0989 -0.1977 -0.1010
 3344W        W20191  11.444   3.365  11.641  0.5115  0.0280 -0.1293
 3345W        W20192   8.434  17.337   3.183  0.1812 -0.2875  0.4224
 3346W        W20193   2.421   0.461  12.243  0.1339  0.1837 -0.1343
 3347W        W20194   9.289   3.874  12.248 -0.2783  0.3533  0.0514
 3348W        W20195  14.354   0.197  13.182  0.0502 -0.1298 -0.0298
 3349W        W20196  13.104   8.289  12.048  0.3984 -0.0165 -0.0185
 3350W        W20197   4.277  14.104  14.805 -0.0988  0.0357  0.0793
 3351W        W20198  13.057   4.223  14.793  0.1881 -0.3427  0.3293
 3352W        W20199   6.939  17.446   1.552 -0.0885 -0.0856  0.0640
 3353W        W20200  15.770   8.807   2.320 -0.2087  0.0012  0.1221
 3354W        W20201   8.408  15.409   2.876 -0.0576 -0.1431 -0.2687
 3355W        W20202  11.153   1.636   4.621  0.3710 -0.2383 -0.2507
 3356W        W20203  12.766   6.019  12.570 -0.1486  0.1812 -0.1769
 3357W        W20204  13.212  10.266   2.448 -0.0520  0.0070 -0.0634
 3358W        W20205   6.496  10.458  13.838  0.0197 -0.1141  0.2747
 3359W        W20206  10.514  10.147   0.481  0.1970  0.5084  0.0577
 3360W        W20207   0.657  10.348  14.728 -0.0567  0.0932 -0.0783
 3361W        W20208   2.533  14.072   1.610 -0.1506  0.2675 -0.0905
 3362W        W20209  10.380  11.903   3.463 -0.0528  0.2591 -0.0066
 3363W        W20210   9.064  10.434  16.571  0.1578  0.2307 -0.3956
 3364W        W20211   5.272   4.382  12.118  0.0714  0.1630 -0.0361
 3365W        W20212  11.542  14.404   1.908  0.0442 -0.1820  0.0881
 3366W        W20213  11.615   8.742   4.246  0.0773  0.4025  0.0710
 3367W        W20214   3.028  13.042  12.266 -0.0830  0.1275 -0.0906
 3368W        W20215   2.674   2.858  15.700 -0.1024  0.1592 -0.0505
 3369W        W20216  13.357   1.689   0.314  0.1061  0.1867 -0.2394
 3370W        W20217   5.041   3.230   0.641  0.2120 -0.0442  0.0527
 3371W        W20218  16.469  14.561   1.521  0.2247 -0.1758 -0.1505
 3372W        W20219   0.825  12.215  15.857 -0.0088 -0.3774  0.0898
 3373W        W20220  10.038   6.783  12.502  0.3175 -0.0590 -0.0896
 3374W        W20221   3.713   9.032  16.525 -0.2116 -0.1207  0.0350
 3375W        W20222  14.700  11.792  13.808  0.1930 -0.2567  0.0354
 3376W        W20223  11.777   3.592  14.930 -0.3041 -0.1632  0.1368
 3377W        W20224   6.617  10.875  15.634 -0.0105 -0.1670  0.2706
 3378W        W20225   1.707  16.988  15.223 -0.2461  0.2793  0.0264
 3379W        W20226  13.401  14.672  12.775  0.0241 -0.0956 -0.2431
 3380W        W20227  15.405  11.420   5.058 -0.0082 -0.1886 -0.0570
 3381W        W20228  14.852  17.688  16.757  0.1979  0.0902  0.0725
 3382W        W20229   3.042  16.755  15.159  0.0287 -0.0025 -0.1842
 3383W        W20230   9.444   7.096   5.452 -0.0904  0.2106  0.1567
 3384W        W20231  15.588   9.625  12.591 -0.1374 -0.2359 -0.1154
 3385W        W20232  17.211   0.074   0.345 -0.1998 -0.0811  0.0569
 3386W        W20233   0.037   8.219   5.795 -0.2581 -0.2209  0.0457
 3387W        W20234  10.562   9.872  15.657  0.1517 -0.0483 -0.0162
 3388W        W20235   9.699  11.735  14.685 -0.2483 -0.0815 -0.0815
 3389W        W20236   1.017  16.694   4.076  0.2872 -0.2293 -0.1548
 3390W        W20237  17.839  10.574   4.046  0.0293  0.5329 -0.0899
 3391W        W20238   2.002   2.879   3.591  0.0700 -0.0865 -0.2528
 3392W        W20239  13.597   3.383   3.261 -0.0084 -0.1447 -0.3648
 3393W        W20240   1.388   5.446   1.512 -0.2146 -0.1732 -0.1144
 3394W        W20241   8.736  16.888   2.336 -0.0386 -0.1134 -0.1006
 3395W        W20242  12.667  17.472   2.945  0.0434 -0.0133  0.2058
 3396W        W20243  15.062   7.436   5.322  0.0137 -0.2736  0.0415
 3397W        W20244   1.820  12.728  13.500  0.1585  0.0607  0.0878
 3398W        W20245   6.719  10.193  11.990 -0.2281  0.1399 -0.2398
 3399W        W20246  11.684   1.504   1.418 -0.2547  0.0846  0.0598
 3400W        W20247   0.434  16.874  12.103  0.0843 -0.1179  0.0693
 3401W        W20248   8.846  17.113  14.578  0.0400  0.3419  0.3345
 3402W        W20249  10.809   4.047  14.761  0.3587 -0.0693  0.1366
 3403W        W20250   6.202  12.203  11.897 -0.1342  0.3531 -0.4301
 3404W        W20251   4.763  16.849  13.387  0.2120  0.4627 -0.1639
 3405W        W20252   2.446   2.440   1.049  0.2731 -0.0925 -0.0627
 3406W        W20253   7.793   4.863   0.434  0.1004 -0.3563 -0.1582
 3407W        W20254   1.944   1.755  13.647 -0.1366 -0.1353  0.3207
 3408W        W20255  17.452  16.461  11.841  0.1994 -0.4011 -0.1884
 3409W        W20256   9.070  13.365  11.924  0.0880 -0.0417  0.2533
 3410W        W20257   8.475   8.274  14.014  0.3843  0.2073 -0.0259
 3411W        W20258  14.734   0.891  16.198 -0.2240  0.0915  0.0071
 3412W        W20259   5.357  11.898   1.674 -0.2342 -0.1529 -0.2728
 3413W        W20260   8.911  15.382  12.042  0.0786  0.0406  0.0191
 3414W        W20261  15.337  10.303   0.012 -0.1486 -0.1550  0.1005
 3415W        W20262  17.589  15.369  12.405 -0.0745 -0.0777 -0.0059
 3416W        W20263   2.682   8.241  15.897  0.0617 -0.0508 -0.1325
 3417W        W20264   5.898   3.199  11.651  0.1736  0.0077  0.0382
 3418W        W20265  15.202   6.304   5.765  0.0115  0.3723 -0.1808
 3419W        W20266   4.246  16.479   3.726 -0.4496  0.4029 -0.3278
 3420W        W20267   4.641  15.102  16.642  0.3120  0.5341 -0.0111
 3421W        W20268   6.421   4.313   4.706 -0.0833  0.0215 -0.1704
 3422W        W20269   3.568   9.507   1.872 -0.3835 -0.2705 -0.0035
 3423W        W20270   5.443   7.398   0.549  0.2104 -0.1564 -0.0985
 3424W        W20271   8.174   1.267   3.287  0.1045  0.0819 -0.1166
 3425W        W20272  10.990  16.065  13.103  0.0954  0.2942 -0.0609
 3426W        W20273   9.889  14.609   4.960 -0.0303 -0.0329  0.2032
 3427W        W20274   9.889  12.205   5.721 -0.2964 -0.2546  0.0710
 3428W        W20275   5.947  11.657   3.717  0.0175  0.1256  0.2470
 3429W        W20276  10.477   1.124   0.585 -0.0928 -0.1502 -0.0573
 3430W        W20277  14.014  13.879  12.116  0.0645  0.0311  0.1591
 3431W        W20278  12.191   5.969  11.854  0.2527 -0.0464  0.0910
 3432W        W20279   8.748   3.363   1.329  0.3481 -0.1278  0.1078
 3433W        W20280   0.747  14.353   4.759 -0.0156  0.1871 -0.0147
 3434W        W20281  15.507   2.548   5.657 -0.0801  0.1848  0.0959
 3435W        W20282   5.916   3.092  14.572 -0.1928 -0.0065 -0.3982
 3436W        W20283  17.713   9.255  12.257 -0.0890  0.1857  0.4933
 3437W        W20284  10.093  12.823  16.106 -0.0994  0.0024 -0.2393
 3438W        W20285   7.649   7.704   2.308 -0.1414  0.0438  0.0491
 3439W        W20286  14.038  12.037   2.491  0.0127  0.0851 -0.1061
 3440W        W20287   5.875  12.947   2.691 -0.2077  0.4281  0.0092
 3441W        W20288  17.916  14.707  14.901 -0.4002 -0.1478 -0.2516
 3442W        W20289  14.699  10.227   4.047  0.0020 -0.0112  0.2647
 3443W        W20290  15.265   4.288   3.271 -0.2471 -0.0512 -0.0224
 3444W        W20291   6.696   9.221   4.040 -0.1594 -0.0556  0.0412
 3445W        W20292   4.281  16.515   5.362 -0.1037  0.2841 -0.2341
 3446W        W20293  11.072   1.308   3.247 -0.1413  0.0314  0.2815
 3447W        W20294   0.311  13.995   1.498 -0.2710 -0.3418 -0.3457
 3448W        W20295   8.211   1.045  14.537 -0.0893 -0.1351 -0.3077
 3449W        W20296   1.062   7.618  15.150  0.3274 -0.0191  0.2835
 3450W        W20297   1.364  12.107   4.332 -0.2277  0.2031  0.1633
 3451W        W20298   2.283  11.949  13.025  0.3013  0.2835  0.2943
 3452W        W20299   4.127   8.612   4.218  0.1460  0.4209  0.0662
 3453W        W20300   6.583  11.448   4.695  0.1271 -0.1306 -0.1806
 3454W        W20301   5.935   2.118  14.083 -0.1428 -0.1378  0.0821
 3455W        W20302  16.517   2.061  14.909  0.1603 -0.2273 -0.2392
 3456W        W20303  16.086   9.459   0.706 -0.0108  0.0319 -0.1907
 3457W        W20304   1.371  15.399  15.723  0.1101 -0.1326  0.1348
 3458W        W20305  11.137   0.101   3.657  0.2043  0.0956  0.1190
 3459W        W20306  10.848  10.018   6.133  0.1556  0.0178 -0.0338
 3460W        W20307   3.017  10.394   1.282  0.0680  0.3530 -0.2441
 3461W        W20308  16.353   9.839  15.353 -0.0557  0.1661  0.2204
 3462W        W20309   4.039   6.196   5.415  0.1074 -0.2532 -0.3436
 3463W        W20310  13.570   4.991  15.419 -0.1462  0.1196  0.2637
 3464W        W20311  12.877  16.218   4.158  0.0368 -0.3580 -0.1532
 3465W        W20312   1.014   4.949  16.352 -0.0762  0.0350  0.1042
 3466W        W20313   9.498   8.692   2.104  0.1326 -0.0276 -0.2121
 3467W        W20314  14.291   7.394   4.737  0.0566 -0.2954  0.0624
 3468W        W20315  17.794  11.166  11.739 -0.1978 -0.0864  0.2542
 3469W        W20316   7.598  15.891  15.497  0.0654  0.1003 -0.2363
 3470W        W20317  10.924   8.174   1.676  0.2232 -0.2519 -0.1457
 3471W        W20318  15.664  17.344  15.711 -0.0988  0.1356  0.3027
 3472W        W20319   5.035   2.407   1.918  0.0063 -0.2040 -0.4366
 3473W        W20320   0.476  13.590   0.240 -0.0143  0.0844 -0.1277
 3474W        W20321  16.478   3.845  16.424  0.0541  0.0607 -0.0392
 3475W        W20322   3.489   5.330  16.072  0.2424  0.0718  0.1964
 3476W        W20323  10.097  16.864   0.449 -0.2433  0.0731  0.2175
 3477W        W20324   2.205  10.468   0.248 -0.1344 -0.0359  0.1716
 3478W        W20325  15.121  11.078   1.805  0.1275 -0.0233  0.0726
 3479W        W20326   2.648   8.187  14.723  0.0013  0.0120  0.0712
 3480W        W20327   9.081   9.085  11.908  0.2198 -0.0843 -0.1589
 3481W        W20328  13.043  15.761   5.930  0.0061  0.2571 -0.2416
 3482W        W20329   7.481   2.268   2.336 -0.2585 -0.0869 -0.1384
 3483W        W20330  14.908   9.850   1.906  0.0632  0.3068  0.1517
 3484W        W20331  12.984  14.750   0.475 -0.0502  0.2414 -0.1050
 3485W        W20332   6.604   3.419  12.161 -0.2735 -0.0976 -0.0652
 3486W        W20333  12.815   1.046  13.203 -0.3038  0.0270 -0.0500
 3487W        W20334   2.324   5.024   1.248  0.0062  0.0824 -0.1139
 3488W        W20335   0.859   4.657  12.540 -0.1302 -0.1786  0.2205
 3489W        W20336  15.205  12.403  16.668  0.0343 -0.0975  0.1232
 3490W        W20337   6.519   5.155  13.817 -0.1853 -0.3468  0.1442
 3491W        W20338  10.182   0.711   0.604 -0.0502  0.0475 -0.2013
 3492W        W20339   2.179   6.742  11.971  0.1843 -0.0276  0.2241
 3493W        W20340   0.159   6.983   3.667  0.0781 -0.1009 -0.2505
 3494W        W20341   9.967   1.254  11.413 -0.0946 -0.1872 -0.1144
 3495W        W20342  13.772  16.127   1.821  0.0528 -0.0926  0.0005
 3496W        W20343   9.127  15.970  14.736  0.0910  0.0386  0.2448
 3497W        W20344  10.547   5.940   1.031  0.4887  0.1362 -0.0258
 3498W        W20345  13.688   2.671  15.589 -0.2073 -0.3072  0.0074
 3499W        W20346   0.360  14.473   0.882 -0.3983  0.1038  0.0843
 3500W        W20347  13.973  14.541   1.908 -0.3633  0.2919 -0.1630
 3501W        W20348  15.688  16.319  14.205  0.1189  0.1975 -0.2598
 3502W        W20349  17.047   0.103  11.582 -0.0721 -0.0553  0.1583
 3503W        W20350   0.981   1.786  15.161 -0.0609  0.2654 -0.1347
 3504W        W20351   9.558   3.091  14.352  0.0508  0.1139 -0.0479
 3505W        W20352  14.909   1.829   1.053 -0.0402  0.2471  0.3298
 3506W        W20353   6.034  14.111  14.674  0.0889 -0.1613  0.3310
 3507W        W20354   6.647   4.834   5.698  0.4540  0.0325 -0.0006
 3508W        W20355  17.728  11.288   3.207  0.1865 -0.0563  0.1284
 3509W        W20356   7.538   6.096   5.398  0.2182 -0.0810  0.0275
 3510W        W20357   2.889   0.764   2.442 -0.0598 -0.2952  0.0825
 3511W        W20358   2.678  11.907   1.279  0.0468  0.2079 -0.0444
 3512W        W20359  11.972   7.906   2.251  0.3469 -0.0366  0.0720
 3513W        W20360  13.419   3.916  13.450 -0.2721 -0.1648 -0.1962
 3514W        W20361   8.827   0.362  15.178  0.0631 -0.1599  0.2260
 3515W        W20362   4.503   5.340  11.964 -0.0125 -0.1936 -0.0539
 3516W        W20363   9.507  17.737  14.680  0.0806 -0.2351 -0.0204
 3517W        W20364  10.873   9.386  14.594  0.0315 -0.1435  0.0333
 3518W        W20365   3.256  14.589  14.028 -0.1309  0.2925 -0.2366
 3519W        W20366  11.109   0.848  11.345 -0.0766 -0.0346  0.1838
 3520W        W20367  14.659   9.309   2.625 -0.0388  0.1699 -0.1169
 3521W        W20368  15.825  16.453   2.332  0.1483  0.1332 -0.2826
 3522W        W20369  15.781   5.251  15.797  0.0635  0.0210 -0.2374
 3523W        W20370  11.202   2.089  15.784 -0.0765 -0.0253 -0.0477
 3524W        W20371  13.364   4.122   4.421 -0.1307  0.0102 -0.1293
 3525W        W20372   2.560   8.917  13.423 -0.0308  0.3967  0.1687
 3526W        W20373  14.175  13.537  13.338  0.2539 -0.1304  0.1780
 3527W        W20374  14.832   5.425  14.212 -0.0251 -0.0134  0.2121
 3528W        W20375  11.762  16.095   0.073  0.4077 -0.2337  0.1831
 3529W        W20376  14.561  15.782   1.952 -0.1512 -0.1434  0.0272
 3530W        W20377  15.053   8.554  15.954 -0.0672 -0.0995  0.1084
 3531W        W20378   7.799  13.456   3.064  0.1323  0.0357  0.2405
 3532W        W20379   0.436   3.607   4.318 -0.0953 -0.1049 -0.3481
 3533W        W20380  12.613   3.099   0.578 -0.1893 -0.0834  0.0820
 3534W        W20381   6.655   3.499  16.439 -0.2525  0.0112 -0.0569
 3535W        W20382   4.028   8.635  14.166  0.4018 -0.0225  0.2057
 3536W        W20383   8.801  14.230   5.671  0.0577  0.1206  0.1970
 3537W        W20384  12.146   6.950  14.255  0.1284  0.0154  0.3978
 3538W        W20385   5.008  11.506   1.710  0.1830  0.0026 -0.2788
 3539W        W20386  16.678  15.124   4.997  0.0317 -0.1759  0.0474
 3540W        W20387   9.185   2.698  10.360  0.3275  0.3614 -0.1688
 3541W        W20388   0.802  10.907   3.746  0.1217  0.0465  0.1348
 3542W        W20389   1.494   6.435  13.795 -0.1672  0.1088 -0.2554
 3543W        W20390   2.753   8.534   4.673 -0.0390 -0.1600  0.0230
 3544W        W20391  15.026   2.250   2.497  0.1016  0.1604 -0.0773
 3545W        W20392   9.078   6.357   0.134  0.1446 -0.1328 -0.1801
 3546W        W20393   5.709  12.611   0.579 -0.0203  0.2483 -0.3670
 3547W        W20394   4.299   6.134   1.839 -0.1969 -0.0921 -0.0284
 3548W        W20395   8.669   1.779  13.904  0.0131 -0.2596 -0.2714
 3549W        W20396   7.682  10.003  11.915 -0.1564 -0.0027  0.2913
 3550W        W20397  10.508  16.538   0.362  0.1147  0.0056 -0.0214
 3551W        W20398   5.257  12.446  13.746 -0.1862  0.0256 -0.0343
 3552W        W20399  11.309   8.069  14.191  0.1447  0.2444  0.1568
 3553W        W20400  14.194  12.703   4.840 -0.2558 -0.1029 -0.1978
 3554W        W20401   1.837   4.837   4.769 -0.0678 -0.1220 -0.0048
 3555W        W20402  12.700  11.012   2.839 -0.1158  0.0791 -0.0659
 3556W        W20403   7.738   1.543   3.239  0.0421  0.1203  0.0620
 3557W        W20404  12.008  17.159  16.626  0.3508  0.0172 -0.4602
 3558W        W20405   5.753   3.575  14.593  0.2151 -0.0828  0.0466
 3559W        W20406  17.741  17.511  15.573 -0.4849 -0.4756 -0.0704
 3560W        W20407  14.952   5.109   3.302  0.0894  0.1659  0.0929
 3561W        W20408  16.339   4.701  13.845 -0.2126 -0.2192  0.3075
 3562W        W20409   3.642  10.002   4.970  0.0791  0.1043  0.3734
 3563W        W20410   0.348   2.933   4.097  0.0023 -0.0820 -0.2234
 3564W        W20411   7.123   2.982   2.525  0.3392 -0.0900  0.1062
 3565W        W20412   9.956   0.961   1.192 -0.0910  0.0021 -0.1244
 3566W        W20413   7.844  17.054  12.356  0.2351  0.1032 -0.1273
 3567W        W20414  10.059   0.986  14.216 -0.2941 -0.0444  0.2836
 3568W        W20415   8.968  15.279  10.836  0.4356 -0.2257 -0.0914
 3569W        W20416   9.091   4.908   4.146 -0.0657  0.0751 -0.0549
 3570W        W20417   3.417   4.714   0.609  0.3245 -0.1781  0.0489
 3571W        W20418   2.051   7.042  14.674  0.1224 -0.0851  0.1075
 3572W        W20419   1.404   9.089  12.580 -0.1494 -0.2083  0.0074
 3573W        W20420   0.098   5.743  13.326  0.0573  0.1581  0.1703
 3574W        W20421   0.286  10.592   3.705  0.0928  0.1228  0.1245
 3575W        W20422   8.265  16.859  14.580 -0.2309 -0.0325  0.2014
 3576W        W20423   8.218   5.674  16.194  0.0810  0.1295  0.2175
 3577W        W20424   9.282   0.488  13.887  0.0618 -0.1506 -0.0627
 3578W        W20425   0.058  16.576  16.234  0.1461 -0.1145 -0.0613
 3579W        W20426   6.253   3.434  13.965 -0.1502 -0.0685 -0.1886
 3580W        W20427  17.331  15.840  12.370 -0.1123 -0.0737  0.0759
 3581W        W20428   0.559   8.127   0.811 -0.0441 -0.0823 -0.1309
 3582W        W20429   1.948  12.198  12.279 -0.3804 -0.0863  0.1596
 3583W        W20430   3.479   2.775  15.089  0.1634 -0.2467  0.1306
 3584W        W20431  13.297  11.943  12.091  0.0774 -0.1891  0.5069
 3585W        W20432  10.909   9.549   0.967  0.1006 -0.1091  0.0082
 3586W        W20433   6.149   0.275   5.217  0.4362 -0.3580  0.1073
 3587W        W20434  17.219  16.693  15.557 -0.2023  0.2140  0.0444
 3588W        W20435  15.310   4.128  16.095  0.2143  0.0508  0.0928
 3589W        W20436   4.547  14.044   5.378  0.0333  0.0681 -0.3946
 3590W        W20437  17.107   0.054   3.521 -0.0161  0.0512 -0.0484
 3591W        W20438   0.415   6.273  11.949  0.3353 -0.4307  0.0168
 3592W        W20439   0.161   3.187  11.960  0.1498  0.1197  0.2819
 3593W        W20440   0.400   4.755   4.095  0.1990  0.0953 -0.0060
 3594W        W20441  10.613  17.280   4.943 -0.3610 -0.2267  0.0824
 3595W        W20442   2.839  10.594  12.480 -0.2277  0.0743  0.0299
 3596W        W20443   3.579  12.765   0.713  0.2805 -0.2493  0.1582
 3597W        W20444   3.413   8.884   4.952  0.1946  0.1031  0.0171
 3598W        W20445   3.404  10.978   2.077  0.0411  0.1199 -0.1605
 3599W        W20446  10.726   0.910   3.374  0.0428  0.0421 -0.0100
 3600W        W20447   2.076   0.548   0.306  0.2623  0.0411  0.0821
 3601W        W20448  16.262   5.331   1.385  0.1264  0.1495  0.0480
 3602W        W20449   1.123   8.584   2.120  0.0519  0.3895  0.1729
 3603W        W20450  17.006   8.594  14.051 -0.2022  0.1151 -0.2256
 3604W        W20451   4.675  12.253   2.830  0.0635  0.2750  0.0442
 3605W        W20452  16.396   2.518  16.052 -0.3790 -0.3067 -0.0354
 3606W        W20453   8.258  15.107   0.475  0.0208  0.1433 -0.0116
 3607W        W20454   5.402  15.027  13.857  0.1783 -0.0193  0.0712
 3608W        W20455  12.914   2.943   2.754  0.0084  0.0965  0.2614
 3609W        W20456  11.825   2.625  16.529 -0.1897 -0.2535  0.1713
 3610W        W20457  11.767  10.660   3.748 -0.4081  0.4923 -0.2749
 3611W        W20458   6.333  13.699  14.124  0.0967 -0.0181 -0.0909
 3612W        W20459   4.111   9.632  14.071  0.1827 -0.0436  0.2383
 3613W        W20460  11.236   1.172  15.419 -0.0715 -0.2143  0.0234
 3614W        W20461  13.601  16.531  15.808  0.0811 -0.1125 -0.0869
 3615W        W20462   0.353   7.199  15.147 -0.1418 -0.0557  0.3334
 3616W        W20463   9.207   6.334  15.214 -0.3216  0.0640 -0.1839
 3617W        W20464  15.066  10.380   0.766 -0.0553  0.3425  0.0477
 3618W        W20465   5.381   5.199   3.378 -0.0149 -0.0158 -0.2228
 3619W        W20466  14.039   3.204  16.660  0.3307 -0.0033 -0.1845
 3620W        W20467   4.472   1.444  12.682  0.0048 -0.1790 -0.0624
 3621W        W20468  14.964   5.335  12.022 -0.0896  0.2209  0.1820
 3622W        W20469  13.036   3.250   1.362  0.0132 -0.1679 -0.2008
 3623W        W20470   8.530  13.958   2.765  0.2220  0.1027  0.2824
 3624W        W20471   1.036   6.728  16.797  0.2147 -0.2764  0.0428
 3625W        W20472   9.698   7.718   1.043 -0.1227  0.0266 -0.0158
 3626W        W20473   9.012  16.190  15.848 -0.2131 -0.0640 -0.1691
 3627W        W20474   2.360   4.318   1.862 -0.4265  0.0545  0.1925
 3628W        W20475   8.876   9.056   5.653 -0.2325  0.3829  0.4054
 3629W        W20476  17.390   5.792   3.309  0.1570  0.1927 -0.1383
 3630W        W20477   2.336   1.039   1.729 -0.1223  0.3638 -0.0062
 3631W        W20478  15.695  10.922   5.372  0.0792  0.3559  0.1280
 3632W        W20479   1.061   0.817  14.880  0.1985 -0.0468  0.0399
 3633W        W20480  16.452  10.969  13.675  0.0209 -0.3808 -0.1863
 3634W        W20481   2.715  10.081   2.773 -0.0143 -0.0116  0.1879
 3635W        W20482   2.286   5.162  14.680  0.2832  0.1713 -0.0212
 3636W        W20483  14.591   7.848  11.768 -0.0352 -0.0048 -0.2337
 3637W        W20484  15.627  11.461   4.537  0.3978  0.0231 -0.1160
 3638W        W20485  13.424  14.095  13.863 -0.1164  0.0009 -0.1062
 3639W        W20486   7.437   2.374   0.689  0.1667 -0.1362  0.0458
 3640W        W20487  17.022   7.092  15.672  0.0776  0.3053  0.2198
 3641W        W20488   4.166   0.280  11.967 -0.0492 -0.2313  0.0340
 3642W        W20489   4.246  16.090  14.563 -0.2707  0.1804 -0.1071
 3643W        W20490   0.322   6.924   5.362 -0.0980  0.1271 -0.1637
 3644W        W20491  16.472  17.339  16.174 -0.1185 -0.0174  0.1173
 3645W        W20492  14.929  17.215   0.761  0.1251  0.3684 -0.0734
 3646W        W20493   3.386  13.963  14.066  0.3876  0.0167  0.1426
 3647W        W20494  15.808  15.203   0.884  0.1994  0.0495 -0.0980
 3648W        W20495   6.772  16.074   0.323 -0.0244 -0.1415 -0.0216
 3649W        W20496   0.856   9.179  13.933 -0.1720 -0.2100  0.0505
 3650W        W20497  15.754   4.630   5.533  0.1278  0.1641 -0.2499
 3651W        W20498  10.592   6.234   4.752  0.3041 -0.0529  0.1447
 3652W        W20499   2.791   0.276  16.447  0.0066 -0.2117  0.1498
 3653W        W20500   9.462  13.165   3.572  0.2660  0.1525  0.0944
 3654W        W20501  12.366   7.277  14.634 -0.0733 -0.3864 -0.1746
 3655W        W20502   2.563  12.623  15.972 -0.0360  0.3111 -0.6232
 3656W        W20503  10.038  15.963   3.542 -0.2103  0.1609  0.0350
 3657W        W20504  12.339   4.572   2.377 -0.0536 -0.0630 -0.0969
 3658W        W20505  12.992   7.861   0.472  0.3392  0.2007  0.1930
 3659W        W20506  13.213   0.415   4.954  0.1483  0.1842 -0.0733
 3660W        W20507  16.872  13.515   0.860  0.1445  0.2416 -0.1490
 3661W        W20508   5.089  12.851  15.223  0.0793  0.1240  0.0690
 3662W        W20509  17.452   7.738   4.035  0.2947 -0.0947  0.0357
 3663W        W20510   7.285   5.461   2.550  0.0071 -0.1818  0.0661
 3664W        W20511   0.543  17.579  12.514 -0.0490 -0.2252 -0.0788
 3665W        W20512   8.955   6.689   3.167  0.0011 -0.0821  0.0023
 3666W        W20513   5.833  15.502  16.486  0.1052 -0.1865 -0.0826
 3667W        W20514   5.197  10.361   2.108 -0.0901  0.4674 -0.1008
 3668W        W20515  13.346   1.826  12.617 -0.0306 -0.0627  0.2475
 3669W        W20516  14.630   8.405  11.817  0.1353 -0.0839  0.2530
 3670W        W20517   6.686   4.731   1.988 -0.1537 -0.2180  0.2721
 3671W        W20518   4.148   9.431  14.607 -0.1034 -0.2558  0.0048
 3672W        W20519   3.893   7.129   1.901 -0.0399 -0.0861  0.1256
 3673W        W20520   6.810   3.265   0.820 -0.1116  0.0878 -0.0031
 3674W        W20521  12.997  14.026   2.724 -0.1737  0.1765 -0.2628
 3675W        W20522   2.152   7.435   3.396 -0.2602 -0.0336 -0.2287
 3676W        W20523  10.564  11.841  15.740  0.0982 -0.0220  0.0932
 3677W        W20524   4.427   4.081   2.387  0.1383 -0.0010  0.1160
 3678W        W20525  17.724  13.574   4.910  0.0331  0.1306 -0.0657
 3679W        W20526   3.318   7.538  13.757 -0.1508 -0.0696  0.1723
 3680W        W20527  12.998  13.910  15.481  0.1220 -0.1694 -0.1226
 3681W        W20528  15.615  16.940   3.944 -0.0709 -0.0096 -0.3142
 3682W        W20529  10.723  10.425  15.694  0.2810  0.3130  0.1655
 3683W        W20530  11.751   1.887   3.734  0.2347 -0.3282  0.1369
 3684W        W20531   2.483  15.016  11.911  0.0767 -0.1835  0.0347
 3685W        W20532   8.566  15.477   3.451 -0.0077  0.1892  0.2492
 3686W        W20533  13.007  15.973   5.423  0.2233 -0.1917  0.0059
 3687W        W20534   9.990  14.644  14.641 -0.1657  0.1497  0.1576
 3688W        W20535   9.894  15.700  16.354  0.1978  0.1268  0.3168
 3689W        W20536  14.549   8.122   4.775  0.0385  0.0002 -0.1799
 3690W        W20537   7.537   8.667  15.299 -0.2010 -0.2256  0.2739
 3691W        W20538   7.288  16.773   2.981 -0.0750 -0.0434 -0.2303
 3692W        W20539   3.528  17.739   2.466  0.1497  0.0904  0.1368
 3693W        W20540   5.442  14.794   5.800 -0.1496 -0.0227 -0.0184
 3694W        W20541   3.563   1.169   5.183 -0.1203  0.1052  0.1472
 3695W        W20542  15.928  12.006   3.336 -0.1586 -0.0149 -0.0051
 3696W        W20543   3.546  16.996  14.003  0.0869  0.0570 -0.0440
 3697W        W20544   1.257   0.581  16.006 -0.1534  0.2416 -0.3279
 3698W        W20545   4.722   8.163   2.013 -0.2219 -0.1700  0.1446
 3699W        W20546  10.304   1.744  12.683  0.2716  0.2934 -0.1147
 3700W        W20547  13.284  15.259  16.479  0.0247 -0.1106 -0.1172
 3701W        W20548  15.368  14.170  12.836 -0.2534  0.2819 -0.0961
 3702W        W20549   8.315   2.533   2.750  0.1274  0.0678  0.1609
 3703W        W20550   2.943   9.767  12.260 -0.1043 -0.3117  0.3482
 3704W        W20551  11.056  14.830  12.830  0.1212  0.0970  0.1902
 3705W        W20552   5.005   6.196   1.259  0.1893 -0.0980  0.0351
 3706W        W20553  11.284   8.969  12.752 -0.1226 -0.2559  0.0739
 3707W        W20554  13.399   6.834  14.121  0.3532 -0.4198 -0.0274
 3708W        W20555  14.556   4.457  14.036 -0.2324 -0.0136  0.0394
 3709W        W20556   0.229   2.274  14.213 -0.1033  0.0911  0.0001
 3710W        W20557  16.719   2.960  13.588 -0.1879  0.2306 -0.1900
 3711W        W20558   3.022   8.562   5.084 -0.0115  0.3816  0.0223
 3712W        W20559  13.836   2.853  16.157  0.1377 -0.5800 -0.3831
 3713W        W20560   3.569  10.915   2.642 -0.0336  0.1535 -0.1914
 3714W        W20561  14.854   9.295   3.069  0.0421 -0.1223 -0.0301
 3715W        W20562   3.155   7.937  14.984  0.1903 -0.2272 -0.0385
 3716W        W20563  14.871   8.468   4.414  0.0359 -0.0479 -0.1357
 3717W        W20564   2.942  16.934  14.688 -0.1033  0.1391  0.0811
 3718W        W20565  10.875   1.292   1.463  0.1920 -0.1816 -0.2858
 3719W        W20566  16.485   4.586   4.906 -0.0472  0.0020 -0.0671
 3720W        W20567   9.298  15.761   5.365  0.2048  0.0507  0.0727
 3721W        W20568   1.701   0.930   4.049 -0.3460 -0.4704 -0.0089
 3722W        W20569   6.830   4.647  16.117  0.0171  0.1189  0.0879
 3723W        W20570  11.931   5.701   0.779 -0.2705 -0.0883 -0.2838
 3724W        W20571  15.670   7.900  16.316  0.0694  0.2237 -0.1787
 3725W        W20572  16.862   4.833   1.856 -0.1476  0.1598 -0.0648
 3726W        W20573   3.872  16.713   0.939 -0.5346  0.2464  0.0038
 3727W        W20574  12.428   0.143   3.626 -0.0108  0.0132  0.1184
 3728W        W20575  13.610   2.130   5.129 -0.0803 -0.0386  0.2276
 3729W        W20576  13.550  16.855   3.605  0.0706  0.3429 -0.2297
 3730W        W20577   9.122   4.207   0.918 -0.1876  0.0298 -0.2022
 3731W        W20578   8.729   9.262  13.181  0.2148 -0.0004  0.2123
 3732W        W20579  11.894  13.480   0.083 -0.0067  0.0033 -0.1213
 3733W        W20580   0.451  11.785   4.548 -0.1137 -0.0135  0.3067
 3734W        W20581  17.352  13.228   4.748  0.0060 -0.1723 -0.2651
 3735W        W20582   1.599  17.346   5.144 -0.1660 -0.0210  0.1353
 3736W        W20583   6.182   6.104   0.221  0.0828  0.0790 -0.1335
 3737W        W20584   5.523  12.102  11.709 -0.2584  0.1875 -0.3147
 3738W        W20585  11.216   8.439   4.543 -0.0055  0.0629 -0.0823
 3739W        W20586   2.167   5.199  15.594 -0.0428  0.1929 -0.0623
 3740W        W20587  10.391  15.071  16.684 -0.2059  0.1936  0.0867
 3741W        W20588   9.366  17.678  15.751 -0.0327 -0.2557 -0.1048
 3742W        W20589  10.555   2.046  12.348  0.0444  0.4938 -0.0124
 3743W        W20590  11.926   3.760   2.125 -0.0015  0.0777  0.1280
 3744W        W20591  16.473  11.207   1.872  0.0124 -0.1587 -0.1597
 3745W        W20592  16.863  12.294   1.231 -0.3391 -0.0295  0.1552
 3746W        W20593   4.510   6.536   4.804 -0.0335 -0.3330  0.0654
 3747W        W20594  16.086   9.523   5.157 -0.0908 -0.1583 -0.1534
 3748W        W20595  15.231  16.915  15.768  0.1687  0.1428 -0.0206
 3749W        W20596  11.589   3.102  16.306  0.2656 -0.2432  0.0397
 3750W        W20597   7.737  14.455   4.705 -0.2383  0.2018 -0.0817
 3751W        W20598   6.761  16.149  12.729  0.1042 -0.2846 -0.0327
 3752W        W20599  11.447  11.444   2.133 -0.0986  0.0074  0.2225
 3753W        W20600  14.632  11.469   0.025  0.1289  0.1396 -0.0827
 3754W        W20601  15.474   4.464  16.411  0.0766 -0.0821  0.0249
 3755W        W20602  17.415   6.270  14.598 -0.2108 -0.0117  0.0035
 3756W        W20603  11.272   9.607  12.741  0.1613  0.0707  0.0579
 3757W        W20604  16.098   2.673   3.105  0.0669 -0.1018 -0.2507
 3758W        W20605  16.041   2.718   0.082  0.1373  0.1578 -0.0382
 3759W        W20606  11.557   0.263  16.477  0.0682  0.1205  0.0658
 3760W        W20607  14.697   7.006  15.120 -0.0546 -0.1282  0.1363
 3761W        W20608   2.815   8.287   0.217  0.3833 -0.3195  0.5092
 3762W        W20609   5.450   3.503   0.815 -0.0857  0.0098  0.1977
 3763W        W20610  10.903   1.191   4.708  0.1265  0.1691  0.0745
 3764W        W20611  12.651   7.057   4.991 -0.1114 -0.0144  0.0239
 3765W        W20612   2.397   1.727   0.630  0.1577 -0.0160  0.0993
 3766W        W20613   7.109  13.984  13.038  0.1298 -0.2309  0.2263
 3767W        W20614  13.523   1.663  13.616  0.0305  0.2104  0.0943
 3768W        W20615   0.989  15.783   1.018  0.1366 -0.1130 -0.1562
 3769W        W20616   4.485   4.765  13.416 -0.1319 -0.1994 -0.2474
 3770W        W20617   2.863   6.505   3.930  0.0012 -0.2258  0.0447
 3771W        W20618  15.313   8.480   1.713  0.1863  0.2047  0.1345
 3772W        W20619  15.723  12.083  14.793  0.1087 -0.3367  0.1073
 3773W        W20620  12.934  13.680  12.533  0.0300 -0.1148 -0.0785
 3774W        W20621   5.767  16.474   0.773 -0.4450 -0.1725 -0.0122
 3775W        W20622   1.717   0.133   2.940  0.2020 -0.2223  0.3362
 3776W        W20623  10.402   8.426   2.525  0.0729  0.3284  0.0996
 3777W        W20624   3.870  15.987  11.593  0.3032 -0.0530  0.2402
 3778W        W20625  13.886  13.535  14.559  0.3569 -0.0138  0.0605
 3779W        W20626   4.470   9.029   1.327 -0.2670  0.0864 -0.0258
 3780W        W20627   5.908   1.764  15.616  0.2215 -0.1565  0.1767
 3781W        W20628   6.397   9.797  12.257  0.0556 -0.1388 -0.3171
 3782W        W20629   0.172  15.671  16.240 -0.1566 -0.2956  0.3455
 3783W        W20630  14.547   9.900  15.139  0.1686  0.1333 -0.1627
 3784W        W20631   7.576   6.345  12.082  0.2246 -0.2174  0.0980
 3785W        W20632   6.539   6.342   2.574  0.0047 -0.1029  0.3549
 3786W        W20633   4.356   1.354   1.520  0.0577  0.1297  0.0770
 3787W        W20634  17.183   7.817   0.660  0.0069 -0.1648  0.1573
 3788W        W20635  16.157  16.949   4.658 -0.0592 -0.1225  0.2392
 3789W        W20636   5.823   4.251   4.939  0.1157 -0.0385  0.1182
 3790W        W20637  13.538   3.219  16.364  0.0059 -0.1520 -0.1429
 3791W        W20638   7.547  14.189   4.228 -0.2814 -0.1280  0.0029
 3792W        W20639  13.835   3.085   0.330  0.0615 -0.1418  0.3268
 3793W        W20640  13.873  10.993   0.971 -0.0732 -0.0669  0.1894
 3794W        W20641   4.695   0.845   6.162 -0.2259  0.1108 -0.3544
 3795W        W20642  10.391   7.928   5.030 -0.4005 -0.1063 -0.1453
 3796W        W20643   1.914  11.368   1.483 -0.1971  0.1454 -0.3043
 3797W        W20644   2.672  11.194   3.851 -0.0729  0.0464 -0.0821
 3798W        W20645  14.463   6.807   3.531  0.0802  0.0959  0.1226
 3799W        W20646  16.590   9.472   0.924 -0.1787  0.2276  0.0660
 3800W        W20647   4.908  16.620   4.802 -0.0354 -0.1734 -0.0460
 3801W        W20648  13.288  17.230  14.411  0.3111  0.0662  0.0010
 3802W        W20649  11.681  10.884  13.997  0.3475 -0.0313  0.1894
 3803W        W20650  14.474   6.797  15.775  0.1231 -0.0199 -0.2579
 3804W        W20651  12.669   9.890  15.036  0.0196 -0.0917  0.0140
 3805W        W20652  13.872  11.140   5.165  0.1557 -0.1836 -0.1094
 3806W        W20653   4.864  16.460  16.433 -0.0563  0.1989 -0.0394
 3807W        W20654  17.824   8.241  14.093  0.0298 -0.4334 -0.0459
 3808W        W20655   0.246  14.894  15.358  0.1650 -0.1913  0.1445
 3809W        W20656  15.669  11.296  16.332  0.0531 -0.0643 -0.1934
 3810W        W20657  14.375  13.360   0.590 -0.1078 -0.1943 -0.3273
 3811W        W20658  16.687   9.637   1.873  0.0859 -0.0680  0.2180
 3812W        W20659  11.677   1.009   0.812  0.2340 -0.0205  0.0888
 3813W        W20660   7.885   7.350   6.168  0.2080  0.2111  0.0803
 3814W        W20661  10.418  17.735   4.875  0.2910 -0.2966  0.1029
 3815W        W20662   2.616   0.139   1.486 -0.0151 -0.1259 -0.1624
 3816W        W20663  10.705  12.376  11.819  0.4279 -0.0251 -0.0313
 3817W        W20664   4.073  16.154   0.110  0.2474  0.1944 -0.2333
 3818W        W20665  15.834  15.179   1.391  0.4182 -0.1401  0.2586
 3819W        W20666   0.092   3.718   3.969 -0.0771  0.0716 -0.2837
 3820W        W20667   2.300  14.089  12.191 -0.1776 -0.1203  0.4034
 3821W        W20668  12.029   7.300   4.276 -0.1764 -0.1267  0.1350
 3822W        W20669   0.886   5.624  14.884 -0.1877  0.0550  0.1570
 3823W        W20670   3.015  10.561   1.993 -0.2594  0.3327  0.1459
 3824W        W20671   6.879   4.966  13.576 -0.1169 -0.1685  0.3180
 3825W        W20672   9.305   8.060  14.501 -0.0510 -0.0113  0.2224
 3826W        W20673  16.990  10.956   2.962  0.2399 -0.2053  0.0009
 3827W        W20674  16.432  10.048  12.668  0.2501  0.1407 -0.2412
 3828W        W20675  13.597   2.271  14.802 -0.3056 -0.0377  0.0779
 3829W        W20676  10.777   6.711   3.591 -0.0409  0.0363 -0.0461
 3830W        W20677  11.202   6.256  15.247  0.3091 -0.1747  0.2160
 3831W        W20678  13.311   7.483   3.213  0.3037  0.1142 -0.0278
 3832W        W20679   0.268  16.124  15.361  0.1424 -0.3373 -0.2517
 3833W        W20680  15.492  16.534  15.641  0.2286 -0.0259  0.0047
 3834W        W20681  13.319   3.924  12.132 -0.0950  0.1475  0.0360
 3835W        W20682   1.169  15.751   1.981 -0.1357  0.1051  0.1060
 3836W        W20683   9.896   5.115  13.113 -0.3139  0.0140 -0.1864
 3837W        W20684   7.665   3.783  16.476  0.1000  0.2290  0.1418
 3838W        W20685  15.962   8.255   3.269  0.1530  0.0838  0.1854
 3839W        W20686  13.832   6.751  12.080 -0.0859  0.0743  0.1394
 3840W        W20687  15.477   4.211   4.252  0.0686  0.0177  0.0835
 3841W        W20688   4.747  12.183  16.074  0.0450 -0.0141  0.1103
 3842W        W20689   3.359  16.656  14.417  0.1205 -0.1685 -0.1310
 3843W        W20690   5.726   1.374  15.964 -0.1521  0.1932  0.1995
 3844W        W20691  16.743  12.326  14.724 -0.1282 -0.1648  0.0173
 3845W        W20692  14.792  12.442   2.545  0.1352  0.0162 -0.0677
 3846W        W20693   7.511  17.357   3.155 -0.0707 -0.1772 -0.0946
 3847W        W20694  17.306   3.611  13.390  0.0974  0.0680  0.0251
 3848W        W20695  11.106   2.249   0.351  0.1944  0.0102 -0.1446
 3849W        W20696   4.394   2.479   3.442  0.3991  0.0553  0.0926
 3850W        W20697   0.390   7.851   2.055  0.0084  0.1642  0.1095
 3851W        W20698  13.021   0.821  15.837 -0.2725  0.0487 -0.1093
 3852W        W20699   4.684   8.808   3.188 -0.0447  0.0515  0.0504
 3853W        W20700   6.112   0.405  15.236  0.1860 -0.1443  0.1773
 3854W        W20701  12.805  17.512   2.419  0.1138  0.1849  0.1583
 3855W        W20702  10.370   5.901   2.072  0.0843 -0.1723 -0.1761
 3856W        W20703   1.253   6.848  16.283  0.3661  0.2095 -0.2033
 3857W        W20704  17.385  16.191  13.093  0.2773 -0.0283  0.0209
 3858W        W20705  13.652   4.886   3.111  0.1777 -0.2326  0.1894
 3859W        W20706   7.997   8.900  16.609  0.1228 -0.0766  0.1355
 3860W        W20707   6.081   7.384   3.011 -0.1312 -0.0025 -0.0064
 3861W        W20708  15.266  12.712  12.849 -0.3173  0.1120  0.0437
 3862W        W20709  11.019   0.624  14.629 -0.0277  0.0442 -0.0695
 3863W        W20710   5.927  15.244   4.346  0.0011 -0.2883 -0.0629
 3864W        W20711  11.233   2.012   3.847  0.0428  0.2006  0.0608
 3865W        W20712   9.767   0.335  15.242 -0.4468  0.0430 -0.0824
 3866W        W20713  17.172   6.176   1.060  0.0747  0.1662 -0.3294
 3867W        W20714   8.673   7.638   4.906  0.0728  0.1817  0.2412
 3868W        W20715   4.741  14.855  14.525  0.1996  0.0701 -0.1464
 3869W        W20716   4.554  16.926  14.951  0.0810  0.1463 -0.1715
 3870W        W20717  10.412   6.065   2.853  0.0806  0.1347 -0.0246
 3871W        W20718   6.040  13.162  11.771 -0.0727 -0.1208  0.0087
 3872W        W20719  13.042   5.613   5.565  0.0257  0.0405  0.0497
 3873W        W20720   9.706   8.522  13.268  0.1104  0.1048 -0.0198
 3874W        W20721   3.422  16.563   4.838  0.0569  0.0617 -0.0786
 3875W        W20722  15.133  13.736  13.335 -0.0027  0.0866 -0.0232
 3876W        W20723   2.274   7.356   2.869 -0.1328  0.0608 -0.3805
 3877W        W20724   7.055  11.936   1.138  0.0913  0.2013  0.0815
 3878W        W20725   4.945  12.763  14.755  0.2579  0.0544  0.1343
 3879W        W20726   0.369   6.134   3.322  0.1474 -0.0570  0.0352
 3880W        W20727   9.067   2.662  11.961  0.2914 -0.0664 -0.0149
 3881W        W20728   5.948   6.876   1.745 -0.2571 -0.1219 -0.2417
 3882W        W20729   0.533   2.747  16.543 -0.2572  0.0245  0.1660
 3883W        W20730   1.183   8.714   0.991  0.0460  0.1614  0.2197
 3884W        W20731   4.127   5.053   0.237  0.3612  0.3116  0.0078
 3885W        W20732   4.889   0.014   1.274  0.3015  0.1546  0.0882
 3886W        W20733   6.754  10.233   1.004 -0.1457  0.1824 -0.1544
 3887W        W20734   5.516  15.714   2.656 -0.0806 -0.3074  0.2083
 3888W        W20735   7.436   3.779  13.244  0.2444 -0.2163  0.2204
 3889W        W20736  17.375   5.214   5.160 -0.2884  0.1572 -0.3594
 3890W        W20737   1.034  16.539   3.584 -0.0389 -0.1640  0.0916
 3891W        W20738  16.762   3.289  10.929  0.4052  0.3015  0.0262
 3892W        W20739   5.257   2.857   2.280 -0.0305 -0.0485  0.0316
 3893W        W20740   7.660  14.124  16.317 -0.2645 -0.3197 -0.1595
 3894W        W20741   5.758   6.739   4.654  0.0060 -0.3102  0.1287
 3895W        W20742  15.216   8.952   3.078  0.3384  0.2728  0.1138
 3896W        W20743  10.424  10.334  13.412 -0.0944  0.2363  0.0197
 3897W        W20744   5.365  11.969   5.765 -0.1156 -0.0395 -0.0162
 3898W        W20745  15.735   4.995   0.893  0.0128 -0.2402  0.0846
 3899W        W20746  10.942   8.627   0.381  0.1286  0.2821 -0.1102
 3900W        W20747   6.071   7.942   0.296 -0.3519  0.0969  0.0123
 3901W        W20748   2.753  11.003   2.937 -0.0241 -0.0796 -0.3993
 3902W        W20749   2.951   6.515   0.917 -0.2328 -0.2457 -0.4038
 3903W        W20750   2.618   9.836  13.403 -0.1163 -0.3420 -0.1146
 3904W        W20751  16.423   9.169  13.061  0.0132  0.0603 -0.2725
 3905W        W20752   7.031   8.430  15.722  0.0842 -0.0282 -0.1167
 3906W        W20753  17.925  14.456   2.578 -0.0869 -0.0033 -0.3558
 3907W        W20754  15.223   9.460  15.940  0.2545  0.0487  0.0096
 3908W        W20755   8.943  10.163  12.502 -0.2057 -0.1147  0.0142
 3909W        W20756  14.627   0.660   3.333 -0.3741 -0.1270  0.0037
 3910W        W20757   6.686   9.054   4.593 -0.3257  0.0463  0.0092
 3911W        W20758   8.586   9.689   1.708  0.3212  0.0802  0.0310
 3912W        W20759   2.416   9.788  11.302  0.1037 -0.2139  0.3770
 3913W        W20760   5.124  15.682   2.341 -0.1772  0.2139 -0.0396
 3914W        W20761  16.137  14.614   1.954  0.2030  0.2160 -0.1556
 3915W        W20762   9.702  15.796  13.029  0.1285 -0.0959  0.1193
 3916W        W20763  13.023   9.897   3.277  0.1762  0.0310  0.3246
 3917W        W20764   1.668  10.652   3.869  0.3303 -0.0860  0.0085
 3918W        W20765  17.230   0.558   4.682  0.1231  0.0245 -0.0719
 3919W        W20766  16.845   1.797  14.241  0.1267  0.3136 -0.0387
 3920W        W20767  12.033  16.094  11.987  0.1794  0.1586 -0.2407
 3921W        W20768   1.542   7.649   4.486  0.1531 -0.3385 -0.1705
 3922W        W20769  14.992  13.093   4.669 -0.0383 -0.0209 -0.1634
 3923W        W20770  15.247  15.277  11.814  0.1943 -0.1136  0.0491
 3924W        W20771  16.121   2.307  15.698  0.1978 -0.0620 -0.0709
 3925W        W20772   0.230   6.576  12.417 -0.2417  0.1020  0.1511
 3926W        W20773   7.324  12.560  13.360  0.0884  0.0448  0.3687
 3927W        W20774   6.364   9.459   0.558  0.3062 -0.2193 -0.1456
 3928W        W20775  12.174  13.534  13.709  0.1481 -0.1659 -0.0067
 3929W        W20776   5.539   2.459  12.090  0.3490  0.0671 -0.1510
 3930W        W20777   2.166   9.928  15.600 -0.0505 -0.0273 -0.1179
 3931W        W20778  14.037  17.054   2.120 -0.1112  0.0716  0.1540
 3932W        W20779   5.362   8.390   3.991 -0.2422  0.0706 -0.0101
 3933W        W20780  10.205   9.312   4.968 -0.0235 -0.0926 -0.2606
 3934W        W20781   3.490  13.204  15.169  0.0026  0.0087  0.0082
 3935W        W20782  17.420  12.099  15.791 -0.3142  0.0008  0.1587
 3936W        W20783  10.348  11.869  12.793 -0.1187  0.0754  0.0281
 3937W        W20784   6.737  14.598   4.994 -0.0233 -0.1077 -0.1326
 3938W        W20785   4.808  11.146  14.500 -0.3150 -0.1303 -0.1013
 3939W        W20786   1.671   5.625   5.077  0.1815 -0.0319  0.1507
 3940W        W20787   4.832  11.358  13.461  0.0624  0.0500 -0.2578
 3941W        W20788   1.913   8.852   1.614 -0.1060 -0.3789  0.2071
 3942W        W20789   8.944   8.303  14.312 -0.1179  0.1521  0.2112
 3943W        W20790   1.348   0.162   4.572 -0.1435 -0.1457 -0.2338
 3944W        W20791   6.453   7.950   4.756  0.2478 -0.1550 -0.0557
 3945W        W20792  13.337  16.413   1.974 -0.1667 -0.2184 -0.0255
 3946W        W20793   0.657   5.354   1.620 -0.0107 -0.1046 -0.0089
 3947W        W20794   4.787  17.211   3.930 -0.0223  0.0304 -0.3432
 3948W        W20795  13.532   1.531   1.090  0.0071 -0.2153 -0.2020
 3949W        W20796  14.952   4.678  15.397 -0.0433  0.2740  0.1538
 3950W        W20797  16.715  12.247   2.193  0.0116  0.0638 -0.0183
 3951W        W20798  11.335  16.043  11.735 -0.1315 -0.0833 -0.1838
 3952W        W20799  16.644   5.423   5.998 -0.1621  0.1676 -0.0817
 3953W        W20800  13.469   0.780  15.508 -0.0595  0.0734  0.1037
 3954W        W20801   0.486   9.770  11.764 -0.3190  0.0644  0.1984
 3955W        W20802   4.539  12.856   5.141  0.0305 -0.0735  0.1783
 3956W        W20803  11.581   4.932   0.866  0.0166 -0.1127 -0.2145
 3957W        W20804  16.906   4.114  12.359  0.0031 -0.3955 -0.2281
 3958W        W20805  10.749   8.130   3.665  0.3459  0.1952  0.0137
 3959W        W20806   3.354   2.785   2.446 -0.1164 -0.1740 -0.1781
 3960W        W20807   2.341   9.127   1.611 -0.0726 -0.3246  0.2266
 3961W        W20808   4.355  15.833  11.588  0.0629  0.0425  0.2095
 3962W        W20809   4.902   0.445  16.462 -0.2645 -0.2167  0.2693
 3963W        W20810   7.850   5.337  16.377  0.0027 -0.0078  0.1286
 3964W        W20811   9.946  10.861  13.039  0.1791  0.3588  0.0621
 3965W        W20812   4.221   9.228  16.755  0.0630  0.1097 -0.0729
 3966W        W20813  10.130   7.784  12.900 -0.1823 -0.2616  0.3680
 3967W        W20814   6.512   4.282   1.819  0.2213 -0.2866  0.0811
 3968W        W20815  12.897  10.803   0.704 -0.1707  0.0025 -0.2450
 3969W        W20816  12.115   4.420  15.553 -0.0127 -0.2354 -0.0387
 3970W        W20817  13.945   2.547   0.493 -0.0235 -0.4060  0.2634
 3971W        W20818  11.571   5.133   3.253 -0.0284 -0.0648  0.1320
 3972W        W20819   0.837   5.391  15.324 -0.1499  0.2713  0.1488
 3973W        W20820   6.644  16.931   5.670  0.0039 -0.4020  0.2469
 3974W        W20821  14.195  15.366  11.962 -0.1145  0.0144 -0.2531
 3975W        W20822   7.288  12.124   2.821  0.0117  0.2840  0.1178
 3976W        W20823   6.420  15.472   2.106 -0.0938  0.3508  0.0371
 3977W        W20824  15.843   3.132  14.254 -0.1679 -0.0626 -0.1708
 3978W        W20825  17.776  11.431   2.127  0.1758  0.1818 -0.0901
 3979W        W20826   5.948   0.497  14.723  0.0477  0.0620  0.3891
 3980W        W20827  15.746   5.604  15.425  0.1087 -0.4050 -0.1585
 3981W        W20828  14.421   3.199  15.876  0.0607 -0.0944  0.3298
 3982W        W20829  14.296  12.466   2.698  0.1824 -0.2093  0.1069
 3983W        W20830   9.290   1.495   4.136  0.0666 -0.2314  0.0535
 3984W        W20831   4.819   5.003   1.877 -0.0941  0.1852  0.0200
 3985W        W20832   7.839   1.688  12.258  0.2270  0.0081  0.1386
 3986W        W20833  14.293  15.371   2.124  0.0857  0.0280  0.0932
 3987W        W20834   4.443   3.365  15.047 -0.1608 -0.2757  0.1155
 3988W        W20835   3.256   9.304   1.513 -0.2829 -0.2394 -0.0368
 3989W        W20836   6.596   3.010  14.457 -0.0884 -0.2034  0.2205
 3990W        W20837   4.219  17.920  13.093 -0.0126  0.1068  0.1374
 3991W        W20838   5.576  13.832   3.176 -0.0412 -0.2000 -0.0298
 3992W        W20839  17.215   3.229  13.687  0.1795  0.0125 -0.1837
 3993W        W20840   2.860  13.159   2.978 -0.0750 -0.4539 -0.3420
 3994W        W20841   9.666  10.202   5.108  0.0418  0.1051 -0.1876
 3995W        W20842   2.776   9.184   3.509  0.2628  0.1067  0.1489
 3996W        W20843   3.663   6.357   3.366  0.2123  0.1313  0.1501
 3997W        W20844  15.374   2.770   3.469  0.2336  0.2101 -0.0080
 3998W        W20845   2.061   4.858   5.638  0.0830 -0.4186  0.1945
 3999W        W20846  10.343   9.291  14.621 -0.1094  0.0644 -0.0019
 4000W        W20847   7.918   5.836   1.547  0.0199  0.2178 -0.0110
 4001W        W20848   4.069   4.908   2.847  0.1234 -0.0354 -0.0615
 4002W        W20849   9.663   6.594   2.917  0.0803 -0.3867  0.0250
 4003W        W20850   1.411  17.605   3.886 -0.0520 -0.0492  0.0863
 4004W        W20851   8.000  14.179   1.907 -0.1774  0.0966 -0.2059
 4005W        W20852   4.175  13.105  11.526  0.1301 -0.0227 -0.1233
 4006W        W20853   4.624   2.630   1.209 -0.2323  0.1211  0.0129
 4007W        W20854   7.580  17.086  12.947 -0.0715  0.1649  0.0015
 4008W        W20855  10.265   5.513   0.160 -0.0020  0.2873 -0.0974
 4009W        W20856  12.248   9.613   3.992  0.2351  0.1890  0.1046
 4010W        W20857  10.374  12.505   2.129  0.0368  0.1907  0.2274
 4011W        W20858   1.045   0.033  14.415 -0.1282 -0.4223  0.1232
 4012W        W20859  12.140   8.030   0.243 -0.2082  0.1655 -0.1142
 4013W        W20860  11.937   9.331  15.435 -0.0749  0.2351  0.3049
 4014W        W20861   3.212   0.521  13.632  0.2921  0.1011  0.2791
 4015W        W20862   0.052   8.862  15.086  0.0109 -0.0901  0.0275
 4016W        W20863   0.263  17.678   4.676 -0.0230  0.0147  0.2471
 4017W        W20864  12.575  17.005  12.806 -0.3952 -0.2019 -0.0049
 4018W        W20865   8.580   9.059   3.026 -0.1120 -0.1265 -0.1352
 4019W        W20866   1.547   4.758   1.875  0.2630 -0.1155 -0.0148
 4020W        W20867  17.213   9.765   3.155  0.2651 -0.1522 -0.0527
 4021W        W20868   7.771  17.552   2.015 -0.1638  0.2682 -0.2803
 4022W        W20869  15.259   7.474   5.843  0.0887 -0.4022  0.1616
 4023W        W20870   1.227  17.648   4.490  0.1330 -0.0299  0.0352
 4024W        W20871  11.098   7.728  12.693 -0.0282  0.1022 -0.1521
 4025W        W20872   7.253  14.394  16.567 -0.2397 -0.0343 -0.0398
 4026W        W20873   7.644  11.200   1.263  0.0782  0.3560  0.1448
 4027W        W20874  16.881   3.396   0.188 -0.1171  0.0043  0.4282
 4028W        W20875   2.802  11.501   3.085 -0.2280  0.1052  0.2271
 4029W        W20876   7.688  12.390  15.684  0.1574  0.2362 -0.0406
 4030W        W20877   8.190  16.329   0.168 -0.0390  0.1118 -0.0593
 4031W        W20878   0.721  17.436   3.686  0.0496 -0.0571 -0.1501
 4032W        W20879   9.643   7.083   3.235 -0.1455 -0.0241  0.2259
 4033W        W20880  12.001   2.734  15.336 -0.0906  0.1429  0.0170
 4034W        W20881  10.612  16.825  12.783  0.4485 -0.1199  0.1972
 4035W        W20882  15.429   4.673   0.569 -0.1439 -0.1048  0.4079
 4036W        W20883   7.689  15.597  14.493  0.0479 -0.1177  0.2986
 4037W        W20884   8.471   8.624  12.387 -0.1113  0.1352  0.2801
 4038W        W20885   7.913  13.432   0.421 -0.1352  0.0494  0.0788
 4039W        W20886  10.472  13.208  16.061  0.0802 -0.0994  0.0407
 4040W        W20887   5.003   6.872  15.760  0.0091  0.1075  0.5081
 4041W        W20888  13.964  17.643  15.495  0.0034 -0.1153 -0.0660
 4042W        W20889  15.838   4.500  15.435 -0.2489 -0.2794 -0.0183
 4043W        W20890  17.891  11.501   1.439  0.0977 -0.2249  0.1596
 4044W        W20891   2.030  10.607   3.538  0.0665 -0.1731 -0.0544
 4045W        W20892   3.958   3.483  14.940 -0.1393 -0.0935  0.1806
 4046W        W20893   1.485   2.290   2.929  0.0740  0.1910  0.1492
 4047W        W20894   0.778  16.015  15.454 -0.0605  0.2466  0.2048
 4048W        W20895   3.280  16.697  12.520  0.2331  0.1654 -0.0833
 4049W        W20896   9.535  10.196  12.503  0.0874  0.1402  0.1275
 4050W        W20897   8.846  16.261   3.101 -0.1419  0.1291 -0.1921
 4051W        W20898   9.016  17.705  16.495 -0.1798  0.0455  0.1726
 4052W        W20899  14.362   0.832  15.288  0.0361  0.0229 -0.3550
 4053W        W20900  13.397   5.118  12.651  0.2642  0.0256  0.0586
 4054W        W20901  12.099  10.825  12.272  0.0096 -0.1068 -0.0184
 4055W        W20902   5.656  13.758  15.879  0.1586 -0.0626 -0.2218
 4056W        W20903  17.718  17.634   3.819 -0.0058  0.2173 -0.1642
 4057W        W20904   9.591   0.209   1.124  0.1651 -0.0498 -0.1550
 4058W        W20905   1.702   7.396   1.561 -0.0688 -0.0301  0.0940
 4059W        W20906   9.933   2.903  13.340  0.3334  0.1705 -0.0958
 4060W        W20907   4.192   9.909   0.818 -0.0119  0.2165  0.1476
 4061W        W20908  17.393  16.049   0.400  0.2096 -0.2852  0.0397
 4062W        W20909   8.705  16.644  15.700  0.0294 -0.0829 -0.0941
 4063W        W20910  10.868   4.928   2.192 -0.1120 -0.1884 -0.2357
 4064W        W20911  11.821   1.777  14.073 -0.3024 -0.1617  0.4655
 4065W        W20912  16.459   6.968  13.421 -0.0464  0.0646  0.0454
 4066W        W20913   2.994  14.388  13.631 -0.3604  0.0073 -0.4226
 4067W        W20914   6.046  16.705  10.933  0.1033  0.0511 -0.0315
 4068W        W20915  13.233  17.323  11.834  0.1366  0.2234 -0.3706
 4069W        W20916  17.092  17.576   2.798 -0.0076  0.1337 -0.1868
 4070W        W20917   0.083   1.167   2.697 -0.1944  0.0509  0.1290
 4071W        W20918   3.350  11.386  11.956  0.2286 -0.2487  0.1844
 4072W        W20919   2.165   8.508  11.606 -0.0795  0.0069 -0.1829
 4073W        W20920  15.312   5.151  14.629 -0.1797  0.0521 -0.3519
 4074W        W20921   1.527   4.453  12.091  0.0374  0.1422  0.2032
 4075W        W20922   9.042   5.364  13.313  0.0449 -0.1173  0.1667
 4076W        W20923   6.607  12.544  14.913  0.0680 -0.2988 -0.0017
 4077W        W20924  12.382   9.597  13.426 -0.0205 -0.1421  0.1144
 4078W        W20925  10.744   2.165  15.461  0.1310 -0.2684 -0.0937
 4079W        W20926   0.399  15.550  16.674  0.0552  0.0703 -0.0028
 4080W        W20927   0.707  12.421   3.118  0.0684 -0.0638  0.1181
 4081W        W20928  13.115  10.093  15.090 -0.2162 -0.2063  0.1779
 4082W        W20929   0.405  10.701  11.562 -0.0851  0.0994  0.0548
 4083W        W20930  13.709   6.343   4.597  0.2188 -0.2691  0.0019
 4084W        W20931  13.065   2.458   0.737  0.1517 -0.0544  0.0049
 4085W        W20932  14.978  10.351   2.738  0.1599 -0.0018 -0.2395
 4086W        W20933  12.472  14.434   0.393  0.2277 -0.2457 -0.0578
 4087W        W20934   0.436  16.668   5.051 -0.0426  0.1119  0.0530
 4088W        W20935  14.838  16.342  14.906  0.4236 -0.5146 -0.3024
 4089W        W20936   7.256   0.838   3.495 -0.2996  0.1211  0.1700
 4090W        W20937  14.273  10.369  12.607  0.0105  0.0082 -0.1687
 4091W        W20938  17.932   5.371   4.316  0.1302 -0.2788  0.2559
 4092W        W20939   8.506   8.887  11.956 -0.0182  0.1920 -0.0990
 4093W        W20940   4.638   1.342   0.277  0.2783  0.0380 -0.0179
 4094W        W20941  10.206   4.072  16.306 -0.1888  0.0974 -0.0460
 4095W        W20942   9.917   4.769   1.643  0.2402 -0.2020 -0.1504
 4096W        W20943  16.790   7.036   4.325  0.0387  0.0596  0.0703
 4097W        W20944  16.194   7.458  15.731 -0.1694 -0.1743  0.2122
 4098W        W20945   8.533  12.006   2.814  0.2554 -0.0077  0.1557
 4099W        W20946  10.293  10.145  14.847  0.0520 -0.1415  0.1253
 4100W        W20947   2.057  16.153   5.013 -0.0635 -0.4842  0.1400
 4101W        W20948  16.966  12.383  15.867 -0.0020 -0.0170 -0.1975
 4102W        W20949   1.189  16.873   0.889  0.1578  0.0580  0.0653
 4103W        W20950  11.214  13.261   3.801  0.2621 -0.0281  0.0030
 4104W        W20951   3.980  12.100  16.086  0.0925 -0.2249 -0.1842
 4105W        W20952   8.897   7.418   2.058 -0.1059  0.1905 -0.1359
 4106W        W20953   8.556   6.146   4.460 -0.2344  0.4471 -0.0546
 4107W        W20954   6.906  14.432  13.115 -0.1650  0.0473 -0.0508
 4108W        W20955   0.944  11.357   1.806  0.4018 -0.0017  0.0871
 4109W        W20956   9.140  13.715  12.297 -0.1810 -0.1917  0.1323
 4110W        W20957   9.077   0.104  14.704  0.1196  0.0882  0.2680
 4111W        W20958   4.392   7.660  13.190 -0.1536  0.0073 -0.1683
 4112W        W20959  14.999  14.567   6.310 -0.1517  0.0302 -0.0280
 4113W        W20960  15.076   8.033  11.965  0.3999 -0.1367 -0.3527
 4114W        W20961   8.856   1.390  15.257  0.2760  0.1825 -0.0583
 4115W        W20962  10.231   6.518  16.609  0.2842 -0.0894  0.0485
 4116W        W20963   6.038   6.402  14.874 -0.0075  0.0057 -0.0176
 4117W        W20964   5.218   4.167   1.331 -0.1019 -0.2420  0.3001
 4118W        W20965   0.860   8.374  15.934 -0.4112 -0.1653  0.0031
 4119W        W20966  10.131   2.957   1.399  0.1298 -0.2416  0.0153
 4120W        W20967  16.693  12.827  13.370 -0.1769  0.1807  0.1070
 4121W        W20968   8.026  11.704   1.353  0.2357 -0.1804 -0.3908
 4122W        W20969   9.981  13.601   5.638  0.0908 -0.0757 -0.0296
 4123W        W20970   5.802  17.123  14.588  0.1126  0.0992  0.1346
 4124W        W20971   8.619  17.130  15.905 -0.0694  0.0930 -0.0358
 4125W        W20972  11.925   1.905   4.215  0.1665 -0.0670 -0.0223
 4126W        W20973   4.137   7.903  14.899 -0.2419  0.4031  0.0535
 4127W        W20974   9.904   7.397  16.204 -0.0461  0.0938  0.1394
 4128W        W20975  10.988   9.423   3.835 -0.0812  0.2429  0.1019
 4129W        W20976  15.410   0.263  14.796 -0.0599 -0.1625  0.1249
 4130W        W20977   7.137  12.445   4.410 -0.0724 -0.1772  0.5175
 4131W        W20978  12.666   6.338  15.302  0.0536 -0.0830  0.0793
 4132W        W20979  10.487   4.853  12.248  0.1491 -0.3477  0.0068
 4133W        W20980   5.386   0.918   5.176 -0.3226 -0.3422 -0.0521
 4134W        W20981  15.372  14.504   0.723 -0.0855 -0.1790 -0.1879
 4135W        W20982  17.162  11.676  15.894  0.1344  0.2915 -0.1106
 4136W        W20983  12.787  12.162   4.218  0.3262 -0.0463 -0.0480
 4137W        W20984   1.664   4.158  16.536 -0.2108 -0.0470 -0.0608
 4138W        W20985  14.262   9.040   2.694 -0.0338  0.1170  0.0164
 4139W        W20986   5.929  16.754  13.324  0.1402  0.2155 -0.0707
 4140W        W20987  14.473  11.152   0.349  0.1677 -0.0839 -0.0717
 4141W        W20988  11.569   2.598   3.487  0.2320 -0.0788 -0.0073
 4142W        W20989  17.886   8.249   4.790  0.2938  0.3551  0.0549
 4143W        W20990   4.078  14.696  13.974  0.0813  0.1909  0.0656
 4144W        W20991   0.074   4.871  14.828  0.1569  0.2815  0.0116
 4145W        W20992   5.901  17.443  12.601  0.2573  0.0916  0.3824
 4146W        W20993   9.158   0.322   4.480 -0.0102 -0.2111 -0.0075
 4147W        W20994  12.890  15.338   5.111 -0.0006  0.0224  0.1681
 4148W        W20995   5.938  16.898   2.464 -0.0744  0.0411  0.1987
 4149W        W20996  15.182   5.966  15.711  0.1717  0.0661  0.1698
 4150W        W20997  14.005   6.757  15.925  0.1883 -0.0780  0.1978
 4151W        W20998  11.765   1.527   4.503 -0.0828  0.1098  0.3391
 4152W        W20999   8.537  15.936   2.137 -0.1283 -0.2803 -0.1088
 4153W        W21000   7.197   0.848  14.740  0.0196  0.2896 -0.0863
 4154W        W21001   6.489   2.571  14.665  0.3688  0.1398  0.1197
 4155W        W21002  10.971   2.094   0.917 -0.0595 -0.0443 -0.0759
 4156W        W21003  11.124  14.004   1.866  0.1549  0.1019  0.1507
 4157W        W21004  15.498  15.342  13.503  0.1182 -0.0303 -0.0854
 4158W        W21005  11.915   3.276  13.995  0.2774  0.2541  0.0259
 4159W        W21006   8.135   1.825  14.162  0.1239 -0.0142  0.0895
 4160W        W21007   5.823  10.509  12.084 -0.3903 -0.0100 -0.1173
 4161W        W21008  13.269  10.455   2.930 -0.3260 -0.0060  0.1496
 4162W        W21009   2.081   5.487  15.134  0.2505  0.1743 -0.1336
 4163W        W21010   1.359   8.741   1.525  0.1216  0.0152  0.1916
 4164W        W21011  12.500  10.883   4.875 -0.0312 -0.0515 -0.0480
 4165W        W21012   9.192   5.730  15.295 -0.0059 -0.3026  0.2121
 4166W        W21013   9.759   2.169   4.118  0.0895  0.1604 -0.0611
 4167W        W21014  17.226   8.464  13.150 -0.1369 -0.1615  0.3226
 4168W        W21015  12.978   7.861  11.738 -0.0304  0.4790  0.2574
 4169W        W21016  10.428   2.201  13.982 -0.0092 -0.3265 -0.2243
 4170W        W21017   2.157   3.805   3.658  0.1227  0.2891  0.0474
 4171W        W21018  10.947   0.829   6.019 -0.0067 -0.1115 -0.2193
 4172W        W21019  15.215   7.959  14.953 -0.1815 -0.0830  0.2236
 4173W        W21020  14.708   2.561   2.061  0.0030 -0.0844  0.0251
 4174W        W21021   8.676   2.427   1.772 -0.0853 -0.1270  0.1157
 4175W        W21022   9.437  11.351   4.672  0.1459  0.2107 -0.3833
 4176W        W21023   5.834   8.127  15.338  0.3201  0.1388 -0.0083
 4177W        W21024  13.865  13.052   3.297 -0.2302  0.0044  0.2249
 4178W        W21025   6.724   0.227  11.394  0.2587  0.2090  0.5568
 4179W        W21026   5.925   9.682   4.783  0.0387 -0.1038  0.2063
 4180W        W21027  16.483  15.412   2.975  0.2518  0.0551 -0.0426
 4181W        W21028   1.662   7.153  15.510  0.2997 -0.1478 -0.0823
 4182W        W21029  13.056   3.324   3.648 -0.2237  0.0829  0.1112
 4183W        W21030   3.206   5.304   1.393  0.3131  0.0631  0.1869
 4184W        W21031   7.200  17.950  14.341  0.1019  0.1857  0.3045
 4185W        W21032   5.052   2.281  12.069 -0.0438 -0.0468 -0.0124
 4186W        W21033   1.057  11.674   2.448  0.0065 -0.3411  0.1648
 4187W        W21034  13.685  15.346  15.424 -0.0749  0.0775 -0.0127
 4188W        W21035   0.920  15.202   3.908  0.0549 -0.1698  0.0442
 4189W        W21036   2.330  11.963   3.830  0.1533 -0.0568  0.0271
 4190W        W21037  12.345  10.040   4.224 -0.0357  0.2355  0.1783
 4191W        W21038   5.711  17.602  15.174  0.2761  0.0301 -0.0394
 4192W        W21039  11.485  12.506  12.140  0.3216 -0.0245 -0.1227
 4193W        W21040  17.063   2.583   0.678  0.1822  0.0514  0.1012
 4194W        W21041   8.724   4.888   2.071 -0.0928  0.3230  0.1166
 4195W        W21042   8.261   4.355   3.483  0.2680  0.1689  0.0580
 4196W        W21043  17.685  14.352  14.450  0.0410  0.1160 -0.1135
 4197W        W21044   9.879   4.266   2.484  0.1319  0.0985 -0.0695
 4198W        W21045  14.394  12.715  16.133 -0.2104 -0.1093  0.0125
 4199W        W21046   3.307   7.532   2.688  0.0834 -0.0912 -0.3670
 4200W        W21047   2.082  11.972  16.119 -0.1611  0.2202 -0.2078
 4201W        W21048  11.264   9.766   3.701  0.0624 -0.1451  0.1079
 4202W        W21049   7.924   8.053  16.439  0.0408  0.2142 -0.0454
 4203W        W21050   0.244  15.900   3.858  0.0104 -0.1605 -0.3638
 4204W        W21051  12.713  14.125  15.820  0.1695  0.1627 -0.0781
 4205W        W21052  10.426   4.050   6.129 -0.0022 -0.0377 -0.0788
 4206W        W21053   4.618  14.098  15.889 -0.4913 -0.2254  0.0969
 4207W        W21054  14.416   5.261  11.962  0.1969 -0.2652 -0.0622
 4208W        W21055  10.697   9.425  14.143  0.0479 -0.2580 -0.2786
 4209W        W21056  16.281  17.707   3.402 -0.3617 -0.2588  0.1305
 4210W        W21057  17.190   2.988   0.407  0.4116 -0.0204  0.0317
 4211W        W21058   7.183   7.645   4.825  0.0920 -0.3686 -0.3192
 4212W        W21059   8.018  13.789  14.788 -0.0342 -0.1972 -0.0940
 4213W        W21060  15.135   3.371  12.424  0.1829  0.1732  0.0324
 4214W        W21061  13.959  15.385   4.161 -0.3042 -0.0173  0.3208
 4215W        W21062   3.181   1.082   1.455  0.0619  0.0527  0.0781
 4216W        W21063  15.082   2.317  11.564 -0.2487 -0.0887 -0.0698
 4217W        W21064   8.800   1.376   3.450 -0.0521  0.1576  0.0920
 4218W        W21065  17.466   0.598  12.320 -0.0655  0.3001  0.0631
 4219W        W21066  17.181   0.154  12.888  0.0802 -0.1103  0.1870
 4220W        W21067  10.756   5.371   5.224  0.1087 -0.2015  0.1870
 4221W        W21068  11.299   7.644  15.958  0.0103 -0.1439  0.2385
 4222W        W21069   0.194  11.189  15.194 -0.2574 -0.2020 -0.0465
 4223W        W21070  17.744   5.951   0.819  0.1177 -0.2115 -0.1089
 4224W        W21071   0.835  11.491   2.945  0.0811 -0.2567  0.0489
 4225W        W21072  16.418   1.038  12.362  0.2925  0.2689  0.0307
 4226W        W21073  10.940  11.155  14.458 -0.1471 -0.2278 -0.0626
 4227W        W21074   5.523   8.960  15.838  0.1974  0.5394  0.2699
 4228W        W21075  15.928  12.462  12.994  0.1163 -0.0340  0.0055
 4229W        W21076   0.430   3.504  15.461  0.0014  0.0236 -0.2942
 4230W        W21077  15.455   1.082  11.689  0.0283 -0.1657  0.2795
 4231W        W21078   3.849  15.102   5.093  0.0063 -0.1268  0.0914
 4232W        W21079   4.611   8.673  12.006  0.0226  0.1166 -0.1748
 4233W        W21080   7.061   9.989   0.256 -0.0459 -0.1591  0.1907
 4234W        W21081   6.898  14.988   5.254 -0.2918  0.2145 -0.4813
 4235W        W21082   1.662   9.885  13.780 -0.3638  0.0760 -0.0104
 4236W        W21083  17.847  10.385  15.772 -0.0659 -0.0548  0.2209
 4237W        W21084  17.899  17.541  14.982  0.0613  0.1651 -0.2282
 4238W        W21085   6.994   5.420   4.140 -0.1537 -0.1183  0.3876
 4239W        W21086  16.176  12.637  15.525  0.0542  0.0936  0.0020
 4240W        W21087  17.510   9.624  16.631  0.4465  0.0949  0.0279
 4241W        W21088  11.336   3.311  14.833 -0.2488  0.0367 -0.1905
 4242W        W21089  13.540  11.393  13.013 -0.1164 -0.0315  0.0340
 4243W        W21090  10.641  15.245   0.330  0.1570 -0.0303  0.0406
 4244W        W21091  17.811  12.459   5.007  0.0365 -0.3902  0.0444
 4245W        W21092  12.998   0.386   5.850 -0.2001  0.0311 -0.1763
 4246W        W21093   2.362   0.924   0.465  0.0289 -0.3806 -0.1498
 4247W        W21094  11.390   9.188  13.309  0.2747  0.0656 -0.0679
 4248W        W21095   3.991  16.653  13.230  0.1274 -0.1951  0.0452
 4249W        W21096   5.365   7.299  11.942  0.1299 -0.1204 -0.1025
 4250W        W21097   3.887  17.793   1.972 -0.1392 -0.0051  0.1122
 4251W        W21098   7.876   1.995   2.938  0.0643 -0.0220 -0.0011
 4252W        W21099   8.498  10.511   4.772  0.0374  0.3030 -0.1110
 4253W        W21100   4.689  15.871  16.234 -0.2779  0.3631 -0.0077
 4254W        W21101   7.262  11.555  10.812 -0.3355 -0.2272  0.0920
 4255W        W21102  17.201   2.209   2.708  0.1159 -0.2147  0.2916
 4256W        W21103   6.986   8.480  11.132 -0.0421  0.0416 -0.0895
 4257W        W21104   9.329  16.760   6.402 -0.1185  0.1712 -0.1815
 4258W        W21105  15.075   5.479   4.681  0.0337  0.3910  0.0776
 4259W        W21106  16.134   6.713  15.549 -0.2227  0.0321  0.0564
 4260W        W21107  11.370   9.542   5.345 -0.4150  0.2474 -0.0591
 4261W        W21108   2.041   7.113   4.341 -0.0888  0.1303 -0.0166
 4262W        W21109  13.997   0.561   1.868  0.1416  0.2369  0.0420
 4263W        W21110   8.004   4.717   1.798 -0.1624  0.0629 -0.0950
 4264W        W21111   5.448   9.640  14.081 -0.4156 -0.3648  0.1595
 4265W        W21112  11.452   3.623   2.294  0.0792  0.0891 -0.0442
 4266W        W21113  12.557   7.182  12.081  0.0124 -0.0722  0.1658
 4267W        W21114  13.304  17.862   5.116  0.2055 -0.5391 -0.0028
 4268W        W21115   7.770   8.452   1.986 -0.1766  0.2191 -0.3323
 4269W        W21116  10.513   8.158   2.992  0.0599  0.1156 -0.0921
 4270W        W21117  10.890  17.426   2.566 -0.3783 -0.1934 -0.0611
 4271W        W21118   4.110  17.012   3.838 -0.2962  0.1512 -0.2100
 4272W        W21119   9.248  16.973  14.912 -0.1237 -0.0558  0.1631
 4273W        W21120  10.937   2.461  12.542  0.0148  0.1125 -0.1512
 4274W        W21121  16.035  17.209   1.865 -0.2834 -0.1110  0.0656
 4275W        W21122   1.193  15.049  16.631  0.0476  0.2551 -0.0064
 4276W        W21123  11.776   8.847   1.896  0.2970 -0.3316  0.0553
 4277W        W21124   1.394   2.739   3.193  0.0660 -0.1442  0.2027
 4278W        W21125   2.267   3.188   4.666 -0.1126 -0.3557 -0.1724
 4279W        W21126   2.084   6.479  16.641  0.0427  0.2878 -0.1702
 4280W        W21127   0.742   8.071  14.077 -0.0994  0.1889  0.1781
 4281W        W21128   8.308  14.994  14.727 -0.1559 -0.2934  0.0502
 4282W        W21129  10.902   2.841   5.186 -0.1551  0.0451  0.1928
 4283W        W21130  17.122   1.547  12.374 -0.1754  0.0000  0.0945
 4284W        W21131   3.999   6.587   5.126 -0.1023 -0.2711  0.2132
 4285W        W21132  10.096   2.002   1.727  0.1403 -0.2278  0.0116
 4286W        W21133  16.440   6.999   3.843  0.3481 -0.3890  0.2507
 4287W        W21134  15.920  10.604   3.964  0.1090  0.2519 -0.0958
 4288W        W21135   3.223   0.934   0.141  0.0914  0.0463 -0.1276
 4289W        W21136   4.815  14.685  13.604  0.0047  0.1227  0.0946
 4290W        W21137   7.684  13.919   3.253  0.0689 -0.2097  0.0242
 4291W        W21138  14.835  17.712   4.932  0.0211 -0.0163  0.2699
 4292W        W21139   7.370   4.416  12.928 -0.0162  0.0678 -0.0097
 4293W        W21140   3.189   1.478  13.395 -0.1701  0.3245  0.3205
 4294W        W21141   3.134   0.469   3.883  0.0531  0.4984 -0.0127
 4295W        W21142   7.601   4.963   1.986  0.1169  0.0227  0.2524
 4296W        W21143  11.313  13.345  16.213  0.0556  0.1310 -0.0143
 4297W        W21144  12.281   4.778  13.878 -0.1570 -0.0215 -0.0863
 4298W        W21145  17.867   3.295  14.599 -0.1535  0.0232  0.1611
 4299W        W21146   5.454   6.851  15.963  0.1466 -0.0309 -0.1612
 4300W        W21147  10.597   0.130   2.619  0.2723  0.3602  0.0564
 4301W        W21148  13.385   1.204   3.485  0.2080 -0.2601  0.0854
 4302W        W21149  11.433  15.619   1.225  0.0379 -0.0677 -0.0015
 4303W        W21150   4.988  10.164  13.444  0.1353  0.2175 -0.0405
 4304W        W21151  14.984  16.602   3.814  0.0939 -0.1187 -0.1131
 4305W        W21152  15.164   0.401  12.836 -0.0591 -0.0758 -0.0397
 4306W        W21153   9.099  15.268  12.446 -0.1792  0.0134 -0.0718
 4307W        W21154  16.021   8.286  16.199  0.0032  0.0864 -0.0464
 4308W        W21155   2.421  16.490  12.772  0.3859 -0.1548 -0.1173
 4309W        W21156   3.600  13.486  14.310  0.3399 -0.0858  0.1394
 4310W        W21157   7.904  11.925   2.630  0.2407 -0.1539 -0.1377
 4311W        W21158   8.439   2.077  15.983  0.2178 -0.2692 -0.1881
 4312W        W21159  11.303  15.757  14.820 -0.0359  0.3979  0.0511
 4313W        W21160  15.044   5.556  12.571  0.1369 -0.1462  0.0156
 4314W        W21161  17.160   7.923  15.621  0.0703  0.3648 -0.3902
 4315W        W21162  13.371   8.773   4.394  0.0036 -0.0353 -0.1673
 4316W        W21163   3.104   5.956   1.732  0.2322 -0.0713 -0.1933
 4317W        W21164   6.557   1.244  11.430  0.2602 -0.2291 -0.1091
 4318W        W21165   7.957   1.590   5.088  0.0594 -0.1176  0.1800
 4319W        W21166   6.427  12.322  15.834 -0.0988  0.0185 -0.3364
 4320W        W21167   0.874   6.768  14.648 -0.1031  0.1419  0.1475
 4321W        W21168   9.366   4.249  11.895 -0.1983 -0.0284  0.0420
 4322W        W21169  11.028  16.557   0.360  0.0586 -0.3073 -0.0469
 4323W        W21170  16.169   5.128  14.161  0.0788 -0.1867  0.2813
 4324W        W21171  16.583   4.152   3.884  0.4512 -0.0343  0.0591
 4325W        W21172   5.647   2.745   4.548  0.2586 -0.0805  0.0277
 4326W        W21173   2.553   8.721   5.162  0.2572 -0.1924 -0.0470
 4327W        W21174  14.603   2.288   3.047  0.0410 -0.1397 -0.2199
 4328W        W21175   3.407  14.125   0.597  0.3906 -0.0322 -0.0620
 4329W        W21176   5.270   4.343  16.610  0.3075 -0.3251  0.0439
 4330W        W21177  15.660   6.698  15.659  0.0633  0.0086 -0.2279
 4331W        W21178  12.485   4.628  14.782  0.1620  0.0583 -0.0883
 4332W        W21179   3.456   0.903   4.614  0.0488  0.3545 -0.2749
 4333W        W21180  13.725   0.678  16.253  0.0770  0.0266 -0.0720
 4334W        W21181  12.734  15.484   3.611  0.1410 -0.4045 -0.1664
 4335W        W21182  10.945  13.364   0.994 -0.1160 -0.1909 -0.0167
 4336W        W21183   4.343  14.451  13.648  0.0664  0.0724  0.1097
 4337W        W21184  10.274   8.833  13.706  0.0108 -0.2327 -0.0788
 4338W        W21185   8.165   6.962   2.192 -0.4118  0.1003  0.2741
 4339W        W21186  10.111   1.848   3.827 -0.1548 -0.1252  0.1974
 4340W        W21187  16.458  14.400   4.696  0.0441  0.2669  0.2178
 4341W        W21188   9.863   4.301  15.432 -0.1136 -0.1354  0.3145
 4342W        W21189  11.129   7.917  14.624 -0.1893  0.2670 -0.0857
 4343W        W21190  11.676   5.165   2.741  0.1334 -0.1676  0.1240
 4344W        W21191   1.522   0.951   1.108 -0.3153  0.1127  0.1921
 4345W        W21192   3.740   6.287   0.271  0.2122  0.1815 -0.0422
 4346W        W21193   4.848   0.956  16.181 -0.0294 -0.1161  0.0608
 4347W        W21194   4.698   6.522   1.813  0.2048  0.0097 -0.1795
 4348W        W21195   0.137  12.709   2.439 -0.2446 -0.0363 -0.3636
 4349W        W21196  10.478  15.131  13.192  0.1587 -0.3004  0.0027
 4350W        W21197  11.226  11.263   4.503  0.7968 -0.2968  0.2015
 4351W        W21198   6.435   9.907  13.691 -0.5347 -0.2030 -0.1101
 4352W        W21199   9.960  17.803  14.959 -0.1416  0.0576  0.1862
 4353W        W21200  13.054   9.746   4.684 -0.0414  0.0919  0.1261
 4354W        W21201   7.236  16.642   3.580 -0.0101 -0.0631  0.1239
 4355W        W21202   9.199   4.529  10.445 -0.0456 -0.1880 -0.2120
 4356W        W21203  11.087   3.295   0.314 -0.2203 -0.1559 -0.0321
 4357W        W21204  16.270  11.349  13.957  0.1690 -0.0487 -0.1358
 4358W        W21205   3.552  14.893  14.891 -0.0550  0.2167  0.0713
 4359W        W21206   4.385   9.014   2.174  0.1218 -0.0414 -0.0897
 4360W        W21207  13.859   3.649   4.824 -0.0421  0.1669  0.0634
 4361W        W21208  13.246   1.823  14.897  0.0445  0.2377  0.3273
 4362W        W21209   9.894  10.356   2.135 -0.2941  0.0862 -0.0376
 4363W        W21210  13.710   8.809   6.310  0.0366  0.0252  0.0896
 4364W        W21211   9.522   6.049   0.369 -0.2953 -0.3017 -0.0953
 4365W        W21212   3.869  10.318  11.822 -0.0794 -0.1175 -0.0159
 4366W        W21213  11.107   4.770   5.911 -0.0245 -0.0918 -0.0045
 4367W        W21214   5.425   4.575  14.394 -0.1620 -0.1339 -0.2172
 4368W        W21215   2.593   7.879   6.210  0.1116  0.1293  0.1591
 4369W        W21216  13.816  17.644  12.608  0.2214 -0.0880 -0.2866
 4370W        W21217  14.175  13.102  15.823  0.1998 -0.0834  0.3495
 4371W        W21218   8.260   0.509   4.450 -0.1117  0.2289  0.0989
 4372W        W21219  16.883   7.052  11.591  0.2079 -0.1519 -0.0467
 4373W        W21220   3.120   5.485   1.890 -0.3422 -0.0317  0.0109
 4374W        W21221  12.201   3.174  13.072 -0.2405 -0.1391  0.0708
 4375W        W21222  14.454  10.680  11.640  0.1409 -0.2348 -0.0312
 4376W        W21223   9.826  11.547  15.157 -0.1915 -0.1506  0.2628
 4377W        W21224  10.864   7.703   5.125 -0.0921  0.4123 -0.3448
 4378W        W21225   2.473   5.316  16.555  0.0292  0.2622  0.1352
 4379W        W21226   2.029  14.828  12.655 -0.3143 -0.0310 -0.2199
 4380W        W21227  17.643   4.576  15.080 -0.0060 -0.0490  0.1509
 4381W        W21228   4.436   0.389   1.292  0.1806  0.2901  0.2892
 4382W        W21229  11.538  11.713   1.231  0.1125  0.1889  0.1115
 4383W        W21230  16.364   6.294   4.997  0.1603  0.2514  0.1675
 4384W        W21231   8.974   7.811  15.192  0.0853  0.0510 -0.0295
 4385W        W21232  10.629   0.547   3.751 -0.1347 -0.0329 -0.1099
 4386W        W21233   5.813   9.383   2.824  0.1562  0.0607 -0.2934
 4387W        W21234  10.665   0.955  14.849 -0.1614 -0.0736 -0.1965
 4388W        W21235   6.692   4.747  12.700 -0.3807  0.4049  0.0125
 4389W        W21236  15.503   1.468   5.564  0.1811 -0.1141 -0.1121
 4390W        W21237   4.934   8.862  13.352 -0.1520 -0.5762  0.0070
 4391W        W21238  11.550   9.496  13.783  0.1681 -0.3191  0.1723
 4392W        W21239   4.259   1.403   5.614 -0.1370 -0.1094  0.0560
 4393W        W21240   0.072  12.846   4.285 -0.0142  0.0155  0.1032
 4394W        W21241   4.691   6.798   3.243  0.0182 -0.3923  0.0281
 4395W        W21242   7.430  15.608  11.411  0.2103 -0.0677  0.0903
 4396W        W21243  16.394  12.471   1.820 -0.1381  0.0757  0.2494
 4397W        W21244   3.379   4.297   0.363  0.0668 -0.1085 -0.1090
 4398W        W21245   8.984  12.038   0.057 -0.0112 -0.0076  0.0088
 4399W        W21246  10.521   7.957  15.933 -0.0599  0.1007  0.0865
 4400W        W21247   8.477  17.310   0.906 -0.0421  0.3411  0.0191
 4401W        W21248   8.128   7.336   4.277 -0.1127  0.0019  0.1340
 4402W        W21249   0.872  13.882  11.494 -0.0699 -0.1168 -0.1725
 4403W        W21250  11.309   4.445   1.961  0.1163 -0.1025  0.0565
 4404W        W21251  14.217   5.935  12.444 -0.0558  0.3499 -0.0697
 4405W        W21252   4.366  16.533  15.203  0.1590  0.0947  0.0643
 4406W        W21253   2.361  10.412  15.594 -0.1139 -0.0292 -0.1337
 4407W        W21254   7.565  17.763  13.622 -0.0628  0.0686  0.2867
 4408W        W21255  13.218   8.467   2.012  0.1053  0.1969  0.0023
 4409W        W21256  11.098  10.520  12.495 -0.0447  0.0925  0.0293
 4410W        W21257  11.818   4.584  13.231 -0.2081  0.0041 -0.1660
 4411W        W21258   4.736   5.969  12.623 -0.2516 -0.0179  0.0287
 4412W        W21259  12.527  15.045   2.131 -0.1221  0.0317 -0.0596
 4413W        W21260   7.164  15.796  15.279 -0.3903 -0.0741  0.0937
 4414W        W21261  15.196   6.706   0.971  0.2113  0.4800  0.1175
 4415W        W21262   2.399   4.953   4.776 -0.0220  0.0966 -0.0425
 4416W        W21263   6.235  13.852   0.630  0.2591  0.0872  0.1970
 4417W        W21264  11.685  15.237   0.947 -0.3921 -0.1716 -0.0556
 4418W        W21265  14.778  16.501  14.474  0.4814  0.2200 -0.4251
 4419W        W21266  15.690  15.777   5.441  0.0661 -0.1380  0.2056
 4420W        W21267  11.153   8.148   2.223  0.0709  0.0706  0.0750
 4421W        W21268   6.026   0.833  15.510  0.1430  0.0789  0.1473
 4422W        W21269   2.446   6.609   5.503 -0.0806 -0.4089  0.2272
 4423W        W21270   9.722   1.883   1.407  0.1777 -0.0030  0.1536
 4424W        W21271  15.383   8.436   4.449  0.2366  0.0614 -0.0274
 4425W        W21272   9.433   3.491  15.179 -0.0716 -0.0629  0.0820
 4426W        W21273  17.636  12.740  16.773 -0.2023 -0.1009 -0.0634
 4427W        W21274  13.718  16.578  11.674  0.2456  0.0519  0.0511
 4428W        W21275   2.029  13.483  13.155 -0.0343  0.1878 -0.1001
 4429W        W21276  12.967  17.531   5.280 -0.1266 -0.0541  0.2727
 4430W        W21277   0.813   8.523  12.994 -0.1324  0.0156 -0.2139
 4431W        W21278   4.841   9.977  14.572  0.2029 -0.4413  0.2004
 4432W        W21279   7.710   6.249   3.270 -0.1069 -0.0828  0.0895
 4433W        W21280   1.444  12.658   3.515  0.1131  0.0876 -0.0975
 4434W        W21281   9.703   7.657   5.722  0.3097  0.1419  0.3604
 4435W        W21282   8.280   3.269   4.616  0.2576 -0.0246 -0.2475
 4436W        W21283   6.336   2.293   2.962  0.3915 -0.2150  0.0632
 4437W        W21284  16.790   7.832  12.258  0.5979  0.1979 -0.2665
 4438W        W21285   3.964   7.489  16.362  0.0115 -0.2674  0.2278
 4439W        W21286  12.690  10.460  13.361  0.1663  0.0402  0.1611
 4440W        W21287  16.155  16.332   4.912 -0.1253  0.0253  0.1356
 4441W        W21288   5.291   5.799   2.201 -0.1377 -0.1068  0.1100
 4442W        W21289   0.052   7.980  13.162 -0.2131  0.0684  0.2642
 4443W        W21290   8.809   6.009  12.588 -0.5825  0.2117  0.0703
 4444W        W21291   4.239  10.049   0.311  0.0111 -0.0414 -0.0837
 4445W        W21292  10.676  10.286  12.584  0.0751  0.5079 -0.0783
 4446W        W21293   0.431   8.272  16.194  0.1057  0.4814 -0.1779
 4447W        W21294   9.223   2.689   1.791  0.1753  0.0836 -0.0386
 4448W        W21295  11.256  12.477  13.154 -0.2116 -0.2277  0.5430
 4449W        W21296   7.091   8.188   0.770  0.0797 -0.3580  0.0412
 4450W        W21297   3.614   8.847  15.043  0.1893 -0.1445 -0.1438
 4451W        W21298   9.204  14.760   4.306  0.0110  0.2830 -0.1518
 4452W        W21299  10.106   0.123  11.376 -0.3136  0.0609  0.1088
 4453W        W21300  10.080  15.994  12.581  0.1622 -0.0770  0.1236
 4454W        W21301   2.144  16.441  16.084  0.0142 -0.0939  0.0972
 4455W        W21302  10.077   2.398   5.235 -0.2618 -0.2029  0.1518
 4456W        W21303   9.843   8.130   2.796  0.0446  0.2677  0.0113
 4457W        W21304  12.189  16.101   5.993  0.0578 -0.0025 -0.0450
 4458W        W21305   2.792  11.850  13.802  0.1185  0.0558  0.1744
 4459W        W21306  16.536   6.714  11.472  0.2801 -0.0367 -0.0538
 4460W        W21307  16.078   7.288   6.287 -0.1847 -0.0325  0.2999
 4461W        W21308  11.874   1.191  11.843 -0.1413 -0.4188 -0.2590
 4462W        W21309   1.235   8.187   1.693 -0.0282 -0.0204  0.1555
 4463W        W21310   9.104  17.669  14.224 -0.2818 -0.0720 -0.2898
 4464W        W21311   6.185   4.134  14.656 -0.0255  0.0499  0.2257
 4465W        W21312   7.016  13.563  15.567  0.1743  0.0787  0.0371
 4466W        W21313   5.573   5.470  13.327 -0.0818 -0.1162 -0.2790
 4467W        W21314   1.697   4.024  11.855  0.1170 -0.0021 -0.1007
 4468W        W21315   7.667  11.540  13.382  0.0137 -0.0261  0.0586
 4469W        W21316   4.761  12.392   2.346 -0.2657 -0.0568  0.2182
 4470W        W21317   6.894  14.443  15.311 -0.0539 -0.0691  0.0820
 4471W        W21318  16.768   6.530  13.399 -0.2205  0.0086 -0.1383
 4472W        W21319   9.467   4.103   1.995  0.0563  0.0144  0.0902
 4473W        W21320   4.320   6.091  15.227  0.2491  0.0655  0.0092
 4474W        W21321  12.194  14.983  13.434 -0.0730 -0.2925  0.0981
 4475W        W21322   3.195   0.936   3.326 -0.1398  0.2596 -0.0436
 4476W        W21323  16.485   5.668   0.372 -0.2686  0.2602 -0.0730
 4477W        W21324   9.457  14.842   5.092  0.2175  0.0227 -0.2269
 4478W        W21325  16.925  10.714   0.489 -0.0407 -0.0133 -0.0512
 4479W        W21326   4.802  16.474   2.861 -0.0522  0.0355 -0.0529
 4480W        W21327  15.793   4.741  12.470 -0.3921 -0.1434  0.3580
 4481W        W21328  15.814  11.580  14.114 -0.1349  0.1760  0.0242
 4482W        W21329   5.373  16.569  12.833 -0.1544 -0.0267  0.0707
 4483W        W21330  12.478   5.607  11.982 -0.1983 -0.0605  0.3406
 4484W        W21331   3.917   4.308  12.804 -0.0324  0.4198 -0.0606
 4485W        W21332   4.688  11.294  15.041 -0.0381  0.1993 -0.1648
 4486W        W21333   2.431  16.589   0.495  0.2005 -0.1115  0.0603
 4487W        W21334   0.084  14.406   1.692  0.0391 -0.0129  0.1211
 4488W        W21335  13.771   4.845   3.638  0.1411  0.1820 -0.0897
 4489W        W21336   4.941  15.514  13.142  0.0141 -0.0264 -0.1876
 4490W        W21337   6.700   6.414  11.727 -0.0849 -0.0638 -0.1813
 4491W        W21338   6.418   5.838  15.427 -0.0285  0.0785  0.1347
 4492W        W21339   7.072  15.506   3.883  0.2190  0.3234 -0.1537
 4493W        W21340   8.416   6.620   4.239 -0.2303 -0.0425 -0.3359
 4494W        W21341   0.658   6.193  15.980  0.0449  0.0625 -0.1047
 4495W        W21342  12.372  11.919   4.133  0.2431  0.4432 -0.1031
 4496W        W21343   9.116   1.903  13.618 -0.0448 -0.0355  0.0630
 4497W        W21344  14.576  16.593   0.437  0.0543 -0.1133  0.1265
 4498W        W21345   1.698   2.721   2.781  0.0400 -0.0770 -0.0424
 4499W        W21346  10.592   9.110   5.153 -0.0958 -0.3813 -0.0477
 4500W        W21347   3.458   6.040  14.098 -0.1076 -0.3961 -0.0996
 4501W        W21348  10.787  13.245  15.498  0.1140 -0.2102  0.2256
 4502W        W21349   2.769   2.798  14.406  0.0447  0.2439  0.1731
 4503W        W21350  10.133  10.387   3.676  0.0213  0.1263  0.2381
 4504W        W21351   9.355  10.779   0.613  0.0249  0.0540  0.0936
 4505W        W21352  13.228   1.724   3.274  0.2064  0.3660  0.1302
 4506W        W21353   9.058   2.117  15.601 -0.3367  0.0315  0.0612
 4507W        W21354   5.113  17.704  13.004 -0.2235  0.0900  0.2121
 4508W        W21355  14.047  12.054   0.617  0.2154  0.3109  0.3155
 4509W        W21356  13.659  15.529  13.156 -0.1223  0.0974 -0.1369
 4510W        W21357  15.017   0.166   4.684  0.2049  0.0262 -0.2595
 4511W        W21358  11.546   7.836   1.886 -0.1190  0.1307 -0.2246
 4512W        W21359  11.764   6.636  14.537 -0.0311  0.0150  0.1235
 4513W        W21360  15.696   2.042   6.048  0.1550  0.0601  0.0123
 4514W        W21361   9.492   1.189  15.828 -0.0017  0.0490 -0.0114
 4515W        W21362  13.870  12.150   1.063 -0.0102  0.0970 -0.1053
 4516W        W21363  12.797   0.636  16.524  0.0297 -0.1052 -0.2172
 4517W        W21364  16.219  10.645  13.339 -0.1243  0.0728 -0.0084
 4518W        W21365   8.692   5.790  15.883 -0.1356 -0.2024 -0.0431
 4519W        W21366   8.203   0.855   3.702  0.0817 -0.1791 -0.0984
 4520W        W21367   5.027  16.304  11.121  0.2011 -0.1113  0.2061
 4521W        W21368  10.163  15.938   0.500  0.2423 -0.0666 -0.1417
 4522W        W21369   5.877   0.695   0.021 -0.0267  0.2966 -0.1231
 4523W        W21370  16.096  10.373   0.480  0.3469  0.1730 -0.3450
 4524W        W21371   5.840  16.971   0.696 -0.1087  0.0437 -0.0115
 4525W        W21372  12.734  11.300   0.362 -0.1150  0.1852  0.0253
 4526W        W21373   2.692  16.512   4.920 -0.0422 -0.1815  0.1706
 4527W        W21374   9.945   2.538   1.610  0.3293 -0.0940 -0.0838
 4528W        W21375   0.170  17.873  15.782  0.0179  0.0921 -0.3987
 4529W        W21376   2.038  16.602   4.246 -0.2352  0.0422  0.0174
 4530W        W21377  15.790  13.698  14.702  0.0109  0.0421 -0.0554
 4531W        W21378   3.409   1.508  11.322 -0.3782  0.0995 -0.0630
 4532W        W21379   4.212   7.559   6.487 -0.1278 -0.2655  0.1357
 4533W        W21380  12.783   9.299   3.878 -0.2520 -0.0530  0.0487
 4534W        W21381  15.995   2.774  13.552 -0.3104  0.0822  0.2233
 4535W        W21382   9.664   6.438  12.961 -0.0683 -0.1076 -0.0839
 4536W        W21383   0.487   5.052  16.468  0.2372 -0.3058 -0.0047
 4537W        W21384  13.552   0.270  14.323 -0.0140  0.1317 -0.1102
 4538W        W21385   2.533  16.717  14.570 -0.0413 -0.0971  0.0564
 4539W        W21386   3.524   1.171  14.875  0.2395 -0.2357  0.0405
 4540W        W21387   8.215   0.621  13.438  0.3854  0.0129 -0.1288
 4541W        W21388  11.946  13.702  15.515 -0.0408  0.1133 -0.3539
 4542W        W21389  10.925   4.737  11.979 -0.1619 -0.1129  0.0901
 4543W        W21390  15.402  13.566   1.105 -0.1594  0.0738 -0.1778
 4544W        W21391   2.049   5.347  13.572 -0.3734  0.0007  0.1421
 4545W        W21392  13.732  14.561  16.760  0.4288 -0.0476  0.0499
 4546W        W21393  11.000   6.454  13.037 -0.2711  0.1962  0.1148
 4547W        W21394   3.954   2.436  16.634  0.2279  0.1993  0.1236
 4548W        W21395   1.531  15.276   5.552 -0.0049  0.0599  0.0710
 4549W        W21396  15.461   8.019   4.870 -0.0842 -0.1189 -0.1572
 4550W        W21397   8.020  12.144  14.757  0.0713 -0.0998 -0.1087
 4551W        W21398   9.645   3.375   4.476 -0.1846 -0.0644 -0.1424
 4552W        W21399   6.989   8.544  12.159  0.0854 -0.0196  0.0014
 4553W        W21400  17.078  16.775   2.358 -0.2167  0.1600 -0.1523
 4554W        W21401  11.328   5.273  13.712 -0.1225  0.0326  0.3462
 4555W        W21402   6.444   2.300   5.012  0.1083  0.1012  0.0324
 4556W        W21403   1.655  17.941   4.247 -0.1897  0.1538  0.0219
 4557W        W21404  14.478  17.295  13.149  0.1254 -0.0810 -0.1358
 4558W        W21405   1.406   7.042  12.631  0.0745  0.1361 -0.0343
 4559W        W21406  11.999   2.416   4.212 -0.0876 -0.0384  0.1493
 4560W        W21407  12.245  16.743   5.251 -0.1069 -0.3728  0.0817
 4561W        W21408   9.090   5.636  11.740 -0.1377 -0.0939  0.1910
 4562W        W21409   8.370   3.770   1.182  0.0057 -0.2361 -0.4306
 4563W        W21410   9.273   3.055   2.993  0.1481  0.1998  0.3445
 4564W        W21411   9.409   7.189  11.805 -0.3016  0.2231  0.1768
 4565W        W21412  16.952   7.631  14.858 -0.0194 -0.0365  0.2985
 4566W        W21413   5.451  13.775   1.363 -0.0331 -0.1316  0.0738
 4567W        W21414   9.173   5.082  16.312  0.0050 -0.1123 -0.0214
 4568W        W21415   5.489  16.008   3.947 -0.0172  0.1772  0.2175
 4569W        W21416   3.478  14.322   1.841 -0.0876 -0.2533  0.1503
 4570W        W21417  14.046   5.196   3.395 -0.2423  0.2397 -0.1819
 4571W        W21418  13.357   1.044  12.965  0.0870  0.3248  0.0769
 4572W        W21419   0.683   3.908  12.082 -0.1327 -0.0674 -0.3711
 4573W        W21420  12.146   0.331   0.835 -0.2434  0.0051  0.2212
 4574W        W21421  17.077   5.050  16.146 -0.4542  0.1914  0.0675
 4575W        W21422   6.263  16.521   4.964 -0.1576 -0.1018  0.2213
 4576W        W21423   9.595  13.838   2.912  0.1861 -0.0570  0.2454
 4577W        W21424   6.543   6.901   1.730  0.2175  0.0194 -0.2949
 4578W        W21425  15.743  15.203   4.483  0.1981 -0.1157 -0.1539
 4579W        W21426   1.457  11.191  16.724  0.2170 -0.0613  0.1012
 4580W        W21427  10.063  11.152   0.468  0.1536  0.1734 -0.1378
 4581W        W21428   4.613   1.369   5.192  0.1501  0.1988 -0.4027
 4582W        W21429   3.798   1.732  10.606  0.2335  0.0314  0.2813
 4583W        W21430   7.653   8.048  12.689 -0.1256  0.0061 -0.0562
 4584W        W21431  13.366  15.111   0.184 -0.2019 -0.3525 -0.0550
 4585W        W21432   7.239   4.804  16.432  0.1440  0.0786  0.1555
 4586W        W21433  12.533  17.642  15.515  0.1140 -0.3979  0.3475
 4587W        W21434   5.938  12.230   3.811 -0.0098  0.1915 -0.3286
 4588W        W21435  17.144   2.182  16.483  0.0577 -0.0359  0.2420
 4589W        W21436   5.975   0.221   2.137 -0.1446 -0.0040 -0.0929
 4590W        W21437   3.393   1.260   4.241  0.1045  0.0706  0.1598
 4591W        W21438  12.910  10.181   5.862  0.2482  0.0712  0.0974
 4592W        W21439   4.534   6.988  14.403  0.1677 -0.0352 -0.1304
 4593W        W21440  14.147   8.231   2.371 -0.1849  0.1375  0.0478
 4594W        W21441  13.004  11.502  14.143 -0.2361  0.1312 -0.1000
 4595W        W21442  17.465  14.254  15.911  0.0897 -0.0766 -0.0220
 4596W        W21443  15.771  13.133   0.066  0.0491 -0.3805  0.1418
 4597W        W21444   1.674  11.245  14.189 -0.2505 -0.1567  0.2859
 4598W        W21445  13.462   1.581   5.015  0.0862  0.0233 -0.0148
 4599W        W21446   4.515   9.303   3.018  0.1889 -0.0141  0.1768
 4600W        W21447   5.352   7.364  14.762 -0.1820 -0.1866  0.0522
 4601W        W21448  11.183  16.527  11.922  0.0118  0.1786  0.1510
 4602W        W21449  16.794  16.041   3.670  0.1509 -0.2443  0.0166
 4603W        W21450  12.127   4.338  14.712  0.1721 -0.0981 -0.1883
 4604W        W21451   3.371   6.919   0.609  0.1923 -0.0994 -0.1128
 4605W        W21452  10.366  10.252   2.527 -0.1056 -0.2329  0.0509
 4606W        W21453   2.545   2.040  16.351  0.0365  0.3287  0.1941
 4607W        W21454   2.696   1.342  13.201  0.0217  0.3230 -0.2267
 4608W        W21455  17.610  15.782  16.130 -0.1107 -0.4585 -0.1969
 4609W        W21456   8.204  16.436   6.516 -0.1298 -0.3130  0.2826
 4610W        W21457   5.622  15.907  16.725  0.0607 -0.1652 -0.0581
 4611W        W21458  15.299   1.309   4.275 -0.0214 -0.0885 -0.0341
 4612W        W21459  12.944   6.244   4.291 -0.2585 -0.0322 -0.0324
 4613W        W21460   4.448  12.193  13.150  0.1746 -0.0454 -0.0085
 4614W        W21461  13.270  13.909   2.240  0.1249  0.3543  0.0156
 4615W        W21462  10.204  17.442   5.248 -0.0317  0.1446  0.1096
 4616W        W21463  13.375  16.634  13.776  0.1724  0.0607  0.2350
 4617W        W21464   4.896  13.695  14.270 -0.0931  0.1006  0.0712
 4618W        W21465  16.064   9.005  16.716 -0.1167 -0.3838 -0.0861
 4619W        W21466   8.062   4.756   3.729 -0.3877  0.2510  0.1310
 4620W        W21467  13.706  16.204  12.754 -0.4214 -0.2682  0.1167
 4621W        W21468  16.311   7.856   4.022  0.2438 -0.2792 -0.0412
 4622W        W21469  13.080   0.444   1.749  0.2073 -0.1527  0.2292
 4623W        W21470  12.745  14.939   6.357 -0.0194  0.0905 -0.0830
 4624W        W21471  13.273  14.829   5.245 -0.0572  0.1464 -0.1192
 4625W        W21472   3.920   4.417  16.096  0.1241 -0.0976 -0.3906
 4626W        W21473   8.169   5.942   5.942 -0.0751  0.2779  0.0160
 4627W        W21474   3.045   9.731   0.691  0.0998  0.1950  0.4860
 4628W        W21475   0.382  13.725   5.547 -0.2160  0.0413 -0.0094
 4629W        W21476  12.680   8.487  16.278 -0.2629 -0.1586 -0.0161
 4630W        W21477   1.619  13.394   5.213 -0.0326  0.0027 -0.1076
 4631W        W21478   6.245   7.783   5.248  0.0772  0.1391 -0.0461
 4632W        W21479  17.601   8.895  12.961  0.1562 -0.1798  0.1923
 4633W        W21480  13.252  16.738  14.288  0.0190 -0.1342 -0.1343
 4634W        W21481   3.506  12.941   0.133 -0.1205  0.2527 -0.0046
 4635W        W21482   3.826  11.223   3.043  0.0349 -0.1766 -0.2205
 4636W        W21483  10.553   9.746   2.823  0.0680 -0.0374 -0.1333
 4637W        W21484   2.358   5.775   2.251 -0.3791 -0.2016  0.0605
 4638W        W21485   4.100  12.700  13.920 -0.1235 -0.0078 -0.2063
 4639W        W21486  17.028   9.722  16.399 -0.0284 -0.1498 -0.1292
 4640W        W21487  14.300  11.177   4.296  0.1473  0.1823 -0.0132
 4641W        W21488   1.353   5.268  15.653 -0.2200 -0.0325  0.0344
 4642W        W21489   6.974   8.633   2.583 -0.0068 -0.1603  0.4749
 4643W        W21490  10.890   3.931   5.293  0.3110 -0.1961  0.0232
 4644W        W21491  12.349  14.403  13.844  0.1151 -0.3764 -0.1786
 4645W        W21492  10.023  10.769  14.261 -0.0602 -0.0778  0.0847
 4646W        W21493   3.420  12.944  13.717  0.3282 -0.3863 -0.0853
 4647W        W21494   2.115  10.881   3.935 -0.0899 -0.0528  0.0989
 4648W        W21495   7.325  14.679   5.162 -0.2440 -0.0058  0.1399
 4649W        W21496   2.544   7.604   1.838  0.0157 -0.0038 -0.2051
 4650W        W21497  11.915  17.594  15.988 -0.0878 -0.3527  0.0139
 4651W        W21498  17.253  10.362   0.239  0.3090  0.0810  0.2039
 4652W        W21499   9.328  12.556   1.407  0.1026 -0.1389  0.1119
 4653W        W21500  14.721   9.056  14.347  0.2271  0.1552 -0.2475
 4654W        W21501   6.015   5.490   4.197 -0.1052 -0.0871 -0.1003
 4655W        W21502   6.649   8.895   1.303 -0.3663 -0.2292 -0.1432
 4656W        W21503  17.388  13.076   4.201  0.3204  0.1611 -0.1685
 4657W        W21504  10.513   6.826  12.721  0.3424 -0.0308 -0.1123
 4658W        W21505   5.161  13.967  15.937  0.0470 -0.0486 -0.0788
 4659W        W21506  12.208   1.016  14.096  0.1491 -0.0905  0.0572
 4660W        W21507  11.731   7.442   2.956  0.1241 -0.3464 -0.1341
 4661W        W21508  11.651  11.914   2.477 -0.0085  0.1658 -0.0908
 4662W        W21509  11.625   6.961  14.138  0.0551  0.0235 -0.0585
 4663W        W21510  13.036  10.946   4.747  0.0507 -0.0856 -0.0863
 4664W        W21511   0.617  17.322  13.015 -0.0046 -0.1597 -0.0093
 4665W        W21512  12.535  16.400  14.871  0.2585  0.2269  0.0272
 4666W        W21513  13.902  17.583   0.646  0.0347  0.0718 -0.0067
 4667W        W21514   5.564  10.393   3.848  0.0332 -0.0794 -0.2632
 4668W        W21515  10.338   4.699   1.298 -0.0964  0.0475 -0.3837
 4669W        W21516   4.053  15.358  16.060 -0.1541  0.0198  0.1954
 4670W        W21517  12.621  12.853   2.977 -0.0230  0.1842 -0.1633
 4671W        W21518   2.473   0.416  14.021 -0.5268  0.0820  0.1287
 4672W        W21519  13.947  15.018   4.523 -0.1782 -0.0377  0.0154
 4673W        W21520   4.689  16.279  15.531  0.1877  0.0418 -0.1388
 4674W        W21521   6.983  15.120   3.518  0.1541  0.2760 -0.2107
 4675W        W21522  14.588  14.438   2.154  0.0312 -0.0393  0.3088
 4676W        W21523  13.775  16.996   1.272  0.0821 -0.0012  0.1781
 4677W        W21524  10.812  16.649  12.285  0.1263 -0.1065 -0.0262
 4678W        W21525   6.942  11.400  13.738 -0.1718 -0.0853 -0.0612
 4679W        W21526  10.946  10.150  15.307  0.3514  0.1573  0.0841
 4680W        W21527  10.221   8.673   3.079 -0.0846 -0.0180  0.1092
 4681W        W21528  12.572   7.938   3.496  0.1319  0.1166  0.1415
 4682W        W21529   4.035  11.872  13.125 -0.1814  0.0398 -0.0373
 4683W        W21530  12.186  11.124  13.742  0.0189 -0.0434 -0.0733
 4684W        W21531  10.597   0.942  14.335 -0.0828  0.0639  0.0367
 4685W        W21532  15.537  10.875   2.182  0.0183  0.1536 -0.0396
 4686W        W21533  12.175  11.328   4.437 -0.2235  0.0962  0.2020
 4687W        W21534   5.754   9.489   5.279 -0.0555 -0.1257 -0.0611
 4688W        W21535  13.634   8.788   3.621 -0.1100  0.2810  0.2302
 4689W        W21536  13.050  14.829   3.039 -0.2260  0.1678 -0.2054
 4690W        W21537  12.217   2.258   4.878 -0.3166  0.2299  0.1110
 4691W        W21538   1.541   6.156   2.182  0.0103 -0.0434  0.3320
 4692W        W21539   9.290  11.640   0.104 -0.1346  0.0618 -0.0335
 4693W        W21540   4.620  14.896   4.196  0.0653  0.0690 -0.3437
 4694W        W21541   7.578  14.967  15.278 -0.2104  0.1633 -0.0688
 4695W        W21542  11.978   3.086   4.492 -0.0740 -0.1653  0.4201
 4696W        W21543   7.111  13.890   4.290 -0.0547 -0.0050 -0.1166
 4697W        W21544   3.882   4.944   2.378  0.1463 -0.0423  0.0198
 4698W        W21545   6.062  14.574   1.203 -0.2238 -0.2645 -0.2114
 4699W        W21546   6.182   9.972  14.184 -0.0601 -0.0449  0.3261
 4700W        W21547  11.093  15.450   0.424 -0.1231  0.1385 -0.3579
 4701W        W21548   7.085   8.483  12.796  0.1715 -0.5897 -0.0239
 4702W        W21549  10.203  10.927  13.782  0.1694  0.2542  0.1741
 4703W        W21550   7.285  12.536   3.304  0.0852  0.0089 -0.3232
 4704W        W21551   8.442  16.563   0.610 -0.1219 -0.0564  0.0551
 4705W        W21552   5.120   7.418   4.245  0.0547  0.2270 -0.0967
 4706W        W21553  16.401   7.419   4.350 -0.1140  0.2683 -0.2906
 4707W        W21554   6.551   1.614   1.966 -0.0837  0.3225  0.1027
 4708W        W21555  17.659   4.296   3.178  0.3787 -0.2561  0.1693
 4709W        W21556   8.364   4.440   2.951 -0.0471 -0.0512 -0.0837
 4710W        W21557  12.884   5.049  15.524 -0.1701 -0.1496  0.0672
 4711W        W21558  16.065  11.779  12.333 -0.0029 -0.0670 -0.0012
 4712W        W21559  10.879   3.929   4.393 -0.2399  0.0607  0.0596
 4713W        W21560   6.957   2.268   0.839 -0.2275 -0.1126 -0.0427
 4714W        W21561  12.631   3.612   3.278  0.0456  0.0566  0.2296
 4715W        W21562   2.673   7.719  14.966 -0.1043  0.3759  0.1331
 4716W        W21563  10.681   0.988  12.079 -0.1865  0.2523 -0.1141
 4717W        W21564  11.513  16.393   2.883  0.1184 -0.0777  0.2157
 4718W        W21565  17.553   6.415   4.434  0.0070 -0.0525 -0.0935
 4719W        W21566  11.742   7.802   3.351  0.0920 -0.0180  0.2589
 4720W        W21567  14.158  16.300  15.674  0.0560  0.1556 -0.0236
 4721W        W21568  15.761  15.682   6.354 -0.2392  0.0082  0.0233
 4722W        W21569  12.567   2.133   2.065  0.1841  0.2744 -0.1699
 4723W        W21570  10.800   2.920  12.346 -0.0548 -0.0896  0.1191
 4724W        W21571   6.560  17.476   0.599 -0.1044  0.1445  0.0776
 4725W        W21572   6.871   3.998  11.993  0.0372  0.1055  0.1941
 4726W        W21573   8.985  16.054   3.567 -0.2607  0.0885 -0.2195
 4727W        W21574  16.618  13.581   3.817  0.0204  0.0916  0.2054
 4728W        W21575   7.439   0.871  13.756  0.0226 -0.3167  0.0122
 4729W        W21576  16.967   5.717   4.644 -0.1216  0.1333 -0.1914
 4730W        W21577   9.797   0.442  11.528  0.1403  0.0947  0.1501
 4731W        W21578   9.780   5.309   1.462  0.1038  0.1736  0.0216
 4732W        W21579  14.398  16.539  12.199  0.0778  0.3802  0.4286
 4733W        W21580   0.694  15.120  11.820 -0.1608  0.1965 -0.1704
 4734W        W21581   1.332  12.503   5.659  0.0775 -0.0852 -0.3605
 4735W        W21582  12.987  15.056   5.589  0.0807  0.1961  0.2688
 4736W        W21583  12.906  15.819   0.539 -0.1197 -0.0501  0.0960
 4737W        W21584  12.779   0.907  14.891  0.1575 -0.3172  0.1691
 4738W        W21585   8.204  10.736   3.539 -0.0609 -0.0646 -0.0110
 4739W        W21586  12.071  10.517   4.119  0.0165  0.1621  0.0387
 4740W        W21587   1.430  13.752   5.485 -0.2828 -0.3188 -0.1123
 4741W        W21588   8.849  15.751  15.970  0.0273  0.0359 -0.0020
 4742W        W21589   5.817   1.775  16.787 -0.1900 -0.3238  0.0221
 4743W        W21590  16.501  13.502  12.884  0.1659  0.1119  0.0104
 4744W        W21591  14.483   6.780  14.708  0.2694  0.1169  0.0967
 4745W        W21592   5.478   0.581   4.145  0.2920  0.1072  0.2157
 4746W        W21593   2.678  17.652  15.862  0.0379 -0.1132 -0.0400
 4747W        W21594   7.782  16.485   3.107 -0.2548  0.1210 -0.0955
 4748W        W21595   7.809   7.234  11.834  0.1398 -0.3196 -0.0998
 4749W        W21596  15.478  10.968  16.654  0.0726 -0.0281  0.1053
 4750W        W21597   2.186  17.718  15.761 -0.0271 -0.0603  0.1869
 4751W        W21598   1.193  17.308  11.994 -0.2067  0.2810  0.3299
 4752W        W21599   3.501   0.704  11.583 -0.0352 -0.0301 -0.1651
 4753W        W21600   9.567   3.513   3.225 -0.2956  0.0138  0.1179
 4754W        W21601  12.806  17.889  15.900 -0.0814 -0.0823  0.0915
 4755W        W21602  11.535   0.938  12.150 -0.0328 -0.2074 -0.3854
 4756W        W21603   9.583  11.256   0.975 -0.0696 -0.0573 -0.0779
 4757W        W21604   7.092   6.837   5.364 -0.2417  0.0452 -0.1895
 4758W        W21605   2.907   0.661  14.712 -0.0685  0.0682 -0.0338
 4759W        W21606  16.150   7.109  14.607  0.2247  0.1536  0.1211
 4760W        W21607   2.112   0.209  14.676 -0.3242 -0.0146  0.2466
 4761W        W21608  14.187   1.497   0.845 -0.0827  0.0535  0.0264
 4762W        W21609   2.153   5.737  15.863 -0.2996  0.1009 -0.2512
 4763W        W21610  16.600  16.264   1.736  0.1160  0.4179 -0.1898
 4764W        W21611  17.194   6.106  15.946  0.0755  0.2275 -0.1695
 4765W        W21612   3.964  15.723   3.957  0.0936 -0.0739 -0.2487
 4766W        W21613   5.781   9.248  15.381  0.1578 -0.2249 -0.0040
 4767W        W21614   5.333   6.997  12.317 -0.0173  0.0890  0.1243
 4768W        W21615  14.216   4.790   0.864 -0.0282  0.1218 -0.1355
 4769W        W21616  16.915  17.559   1.797 -0.0589 -0.1322 -0.2241
 4770W        W21617   2.825  14.590  14.241  0.0777 -0.1635  0.0137
 4771W        W21618  14.027   1.520  15.261 -0.1983 -0.0375  0.0137
 4772W        W21619   9.912   6.384  16.129 -0.1223 -0.3064  0.0423
 4773W        W21620   4.367   6.603   6.228  0.1057  0.1808 -0.0665
 4774W        W21621   0.593  11.912  16.273  0.2614 -0.0598  0.1606
 4775W        W21622   9.174   8.680   5.411  0.1839 -0.0526 -0.1751
 4776W        W21623   1.589   4.241   4.447 -0.0428 -0.0010 -0.0540
 4777W        W21624  11.234   2.973   2.938 -0.0068 -0.1460  0.1125
 4778W        W21625   6.380  15.367  13.688 -0.1536 -0.1973 -0.0594
 4779W        W21626   9.491   6.499   6.425 -0.2087  0.1221 -0.0528
 4780W        W21627  16.822  14.517   1.188 -0.1794 -0.0939  0.1761
 4781W        W21628  17.770   3.294  13.434 -0.0645 -0.1041 -0.1076
 4782W        W21629  14.488  11.261   1.157  0.1466  0.0980 -0.0696
 4783W        W21630   4.526   5.110   0.448  0.1248 -0.2515 -0.0030
 4784W        W21631   7.065   8.073   0.263 -0.1313 -0.1329 -0.1200
 4785W        W21632   2.620  10.493   1.655  0.1016 -0.1350  0.0137
 4786W        W21633   1.802   9.809  10.583 -0.3998  0.0791 -0.1837
 4787W        W21634  13.063   8.804   2.527 -0.1939 -0.3137 -0.2931
 4788W        W21635   6.235   8.119   0.938 -0.3021 -0.2310  0.0048
 4789W        W21636   0.739  15.630   0.420  0.0359 -0.2575  0.3420
 4790W        W21637   8.186   7.294  15.208 -0.0263  0.1559  0.2385
 4791W        W21638   7.709  12.721  14.477  0.2129 -0.0349 -0.0834
 4792W        W21639   6.738   4.111  12.437  0.1090  0.0171 -0.1033
 4793W        W21640  17.627   1.898   1.359 -0.0108  0.1861 -0.1599
 4794W        W21641   9.391  12.974  13.901 -0.1941  0.0025 -0.0292
 4795W        W21642  15.372   0.563  16.774 -0.0843 -0.2078 -0.2965
 4796W        W21643   1.887  12.680   0.467  0.4481 -0.0740 -0.3782
 4797W        W21644   8.455   4.597  12.111 -0.1027 -0.1547 -0.1957
 4798W        W21645   8.353   1.227   0.575  0.1805  0.2063 -0.2232
 4799W        W21646  14.839  16.957  13.405  0.3693  0.2314  0.0446
 4800W        W21647  14.842  13.717   3.310  0.3233  0.0953  0.4165
 4801W        W21648  16.869  14.339   5.417 -0.3259 -0.3689 -0.2460
 4802W        W21649  16.185   1.058  14.232  0.0746  0.0220  0.0292
 4803W        W21650   1.314   3.193  12.026  0.2478  0.2835  0.1987
 4804W        W21651  17.013   1.347  14.396  0.0754 -0.0203 -0.1934
 4805W        W21652   6.793  17.144  14.320 -0.2285  0.0851  0.0157
 4806W        W21653  12.848  16.005  11.287 -0.1365 -0.2424 -0.0871
 4807W        W21654   2.963   8.338   4.194  0.1403  0.2449 -0.0058
 4808W        W21655   8.897  15.237   2.209  0.0704  0.1662 -0.4515
 4809W        W21656   5.442   5.978  13.278 -0.0776  0.2062  0.0697
 4810W        W21657   0.989  15.340  16.024 -0.0778 -0.1293  0.0124
 4811W        W21658   1.267  15.292   3.393  0.0847  0.0216 -0.0148
 4812W        W21659   8.389  17.736   4.112  0.1965 -0.1091  0.0806
 4813W        W21660  12.021  14.417   3.092 -0.0140  0.1218  0.2477
 4814W        W21661   8.561   4.698  16.291  0.2104  0.1593 -0.1224
 4815W        W21662  15.863  12.653   4.920 -0.0093  0.0700  0.0850
 4816W        W21663  16.578   5.728  12.294 -0.3038 -0.0064  0.0183
 4817W        W21664   2.191  11.521   1.911  0.2347  0.1657  0.3284
 4818W        W21665  16.872  10.424  13.174 -0.0333  0.1001 -0.2396
 4819W        W21666   1.555   0.991   3.253 -0.0562 -0.1700 -0.3912
 4820W        W21667   7.303   4.497  15.866 -0.1652 -0.0646 -0.1012
 4821W        W21668   3.763   7.651  12.496  0.3764  0.0166  0.2018
 4822W        W21669  10.429   1.869   2.068 -0.1162  0.1290  0.0438
 4823W        W21670   0.250  12.068  13.099  0.0596 -0.0728  0.0015
 4824W        W21671  12.697   2.316  15.470 -0.1514  0.2096  0.1892
 4825W        W21672   4.432   6.059   2.853  0.0012 -0.2720  0.1134
 4826W        W21673   0.258  10.835  15.975 -0.2055 -0.1437 -0.0280
 4827W        W21674  13.681   8.618   1.818 -0.0495 -0.0155 -0.1812
 4828W        W21675   7.892   0.146   3.286  0.0114 -0.0099 -0.0547
 4829W        W21676   0.799   9.914   3.918 -0.1223 -0.2672  0.1220
 4830W        W21677   4.770   2.254  13.657  0.0565  0.2323 -0.0652
 4831W        W21678  10.721   4.705  14.265  0.0742 -0.3264  0.1114
 4832W        W21679  11.187   5.113   2.806  0.1539 -0.3553 -0.2682
 4833W        W21680   9.725   2.221   4.580 -0.1040  0.1081  0.1982
 4834W        W21681   8.142   5.009  15.539  0.2135  0.0053  0.2909
 4835W        W21682  12.129   9.463  12.323 -0.2640 -0.0087 -0.1206
 4836W        W21683  12.933  10.627  16.466  0.2493 -0.0724 -0.2511
 4837W        W21684   8.086  13.643   2.572 -0.0179  0.1693  0.0220
 4838W        W21685  17.386   5.956  14.054  0.1561 -0.1913 -0.0244
 4839W        W21686  16.309   5.178  11.708  0.0394 -0.3318  0.0177
 4840W        W21687   7.603   6.275   1.701  0.0962  0.2153 -0.1055
 4841W        W21688  11.727  17.588   4.376 -0.1351  0.2151  0.0725
 4842W        W21689   4.090   0.365  10.022 -0.4350  0.0239  0.1444
 4843W        W21690  14.172   8.820   0.640 -0.2578 -0.4268  0.1993
 4844W        W21691  14.362   3.623   2.766 -0.2099  0.0933  0.2078
 4845W        W21692  13.690   4.228  16.235  0.1069 -0.1686 -0.1080
 4846W        W21693   0.143  13.332   1.527  0.0141 -0.1167  0.2671
 4847W        W21694   3.711  15.816  15.963  0.0554  0.0503 -0.1003
 4848W        W21695   3.656   0.362   3.697  0.1886 -0.0924 -0.1389
 4849W        W21696   7.504   0.128  15.168 -0.2235  0.0599 -0.1477
 4850W        W21697  11.153   2.471   3.031 -0.0150 -0.0170 -0.2601
 4851W        W21698  17.315  15.798   2.729  0.2125  0.0355  0.3122
 4852W        W21699  11.588   4.518  12.754 -0.2911 -0.1576 -0.3495
 4853W        W21700  10.387  17.855   0.400  0.2476  0.1902 -0.3366
 4854W        W21701   6.195  16.935  12.740  0.0753 -0.0818  0.0709
 4855W        W21702  14.128   8.256  13.095 -0.1294  0.1153  0.0902
 4856W        W21703   6.898  16.363  13.171  0.1402  0.0265  0.1463
 4857W        W21704   6.833  17.165  11.640 -0.2297  0.2595 -0.3082
 4858W        W21705   9.690  14.965  11.688 -0.0172 -0.3524 -0.1684
 4859W        W21706   6.937  15.308  13.987 -0.0633  0.2468  0.1179
 4860W        W21707   1.848  17.017  13.301 -0.0638  0.2299  0.0810
 4861W        W21708   8.447   3.973   2.074 -0.0675  0.0708  0.2173
 4862W        W21709   2.676  12.128  16.036  0.3069 -0.1181  0.0910
 4863W        W21710  15.778   6.880   4.054  0.1034  0.3540  0.1046
 4864W        W21711   2.758   3.635  14.685  0.2240  0.0888  0.0151
 4865W        W21712   7.715   8.465   0.045 -0.1894  0.0201  0.2103
 4866W        W21713  11.187   8.421  14.860 -0.0073  0.2414  0.0536
 4867W        W21714  15.671   9.840  13.308  0.2259  0.0052  0.1295
 4868W        W21715   3.429  12.223   1.518  0.2770  0.0500  0.2278
 4869W        W21716   5.498  17.937   3.320 -0.2427 -0.0935 -0.2038
 4870W        W21717  15.141  10.580  13.467  0.2886  0.1983 -0.0449
 4871W        W21718  16.383   3.461   0.485 -0.1683 -0.4016 -0.1772
 4872W        W21719  17.154   2.560   1.734 -0.0276 -0.0597  0.1061
 4873W        W21720  12.299   9.894  12.546  0.0931  0.0128 -0.0538
 4874W        W21721  11.273  11.118  12.152 -0.1749 -0.0910 -0.0987
 4875W        W21722   6.323  14.600  14.025  0.0110 -0.1893 -0.0355
 4876W        W21723  16.695   5.818  12.820  0.2079  0.1355 -0.0501
 4877W        W21724  16.380  15.856   3.928 -0.0432 -0.0428 -0.0079
 4878W        W21725   4.038  13.285   1.829 -0.0747 -0.2460 -0.1216
 4879W        W21726   8.343   7.178  12.633 -0.3202 -0.3967 -0.0936
 4880W        W21727  16.696  17.106  16.679  0.1815  0.2494  0.0323
 4881W        W21728   3.414  13.765  15.144  0.3558  0.3326  0.0884
 4882W        W21729   9.950  12.843  14.051 -0.1791 -0.2715  0.1737
 4883W        W21730  13.540  14.401   5.172  0.2743  0.0885 -0.3275
 4884W        W21731  11.090   0.191  13.002  0.0565 -0.0454  0.0431
 4885W        W21732   9.561   5.903  12.682  0.2313  0.1675  0.2376
 4886W        W21733   0.717   2.484  11.375  0.0108  0.1049  0.0670
 4887W        W21734  10.907  13.611  14.695 -0.0370  0.0578 -0.2032
 4888W        W21735  17.590  11.797  13.971 -0.0317 -0.0077  0.1057
 4889W        W21736   0.304   0.834  16.718  0.0052 -0.0399 -0.0649
 4890W        W21737   2.970   1.188  10.746  0.2465  0.0431 -0.0039
 4891W        W21738  12.025   5.596  14.216  0.1609 -0.1827 -0.1066
 4892W        W21739  10.278  11.950  16.707 -0.0380  0.0525  0.0120
 4893W        W21740   2.949   8.745  13.163 -0.1982  0.2155  0.3453
 4894W        W21741   3.293  11.626  13.780 -0.1015  0.0683 -0.2100
 4895W        W21742  11.571  13.204  15.808  0.0982  0.1790 -0.1568
 4896W        W21743   5.828  17.608   3.140 -0.0260 -0.3350  0.1940
 4897W        W21744   1.104   3.558   2.655  0.2493 -0.0966 -0.1156
 4898W        W21745   6.551   3.362   4.447 -0.1822  0.0375 -0.2911
 4899W        W21746   9.309   0.384   2.346  0.0669 -0.2134 -0.1423
 4900W        W21747   6.910   1.059  16.598  0.1953  0.0997  0.1084
 4901W        W21748  10.201   6.564   1.703  0.0744 -0.0723  0.3265
 4902W        W21749   2.327   1.613   3.559  0.0065  0.2255  0.0239
 4903W        W21750   8.889   8.201   0.573  0.4566  0.0339  0.0110
 4904W        W21751  13.788   4.215   4.874  0.0030 -0.0324 -0.0163
 4905W        W21752  12.110   6.704  16.429  0.5195 -0.0480  0.2183
 4906W        W21753   1.577   0.282  12.470  0.1980 -0.1955  0.1314
 4907W        W21754  15.502  14.069  14.931  0.0591 -0.1253 -0.1297
 4908W        W21755   5.338  12.955   0.637  0.1577 -0.1008  0.2277
 4909W        W21756   5.624   9.867   3.906 -0.1162  0.2192 -0.1384
 4910W        W21757  17.187  12.363  14.502  0.2233 -0.0374  0.0577
 4911W        W21758  13.837   3.008  14.266 -0.1353  0.0710  0.1563
 4912W        W21759   0.944   8.063   4.501 -0.2587  0.0525  0.0848
 4913W        W21760   3.313  13.583   4.329  0.0055 -0.2448  0.0620
 4914W        W21761  12.903   0.565   2.252  0.0046 -0.1447 -0.0470
 4915W        W21762   9.892   5.755   0.483 -0.0629  0.3821  0.2287
 4916W        W21763   1.009  16.179   3.951  0.0575 -0.2109  0.2135
 4917W        W21764  13.598  10.840   0.209 -0.4174 -0.2225 -0.0924
 4918W        W21765   3.981   3.420  15.926  0.2569 -0.0438 -0.1667
 4919W        W21766  11.118   4.008   2.082  0.0663  0.0177  0.0452
 4920W        W21767   2.085   8.519   4.336  0.1946 -0.2882  0.3453
 4921W        W21768   5.755  11.413   1.076 -0.0234 -0.0838 -0.1314
 4922W        W21769   1.428  16.544  12.360  0.3888  0.0937  0.1272
 4923W        W21770   5.353   8.194  14.808  0.3658 -0.1936  0.1191
 4924W        W21771   2.925  17.651   3.979  0.1564  0.2511 -0.2097
 4925W        W21772  13.855  17.794   3.477 -0.2759  0.0877 -0.0128
 4926W        W21773   2.926  11.527  12.443 -0.0739  0.0556  0.3739
 4927W        W21774  16.984   0.530  12.455  0.1969  0.0250 -0.1676
 4928W        W21775   9.436   3.310   0.281  0.1303 -0.1859 -0.2931
 4929W        W21776   3.249  13.741  10.875  0.1333 -0.0356  0.0008
 4930W        W21777  10.677   0.660   0.738 -0.0412 -0.0648 -0.0839
 4931W        W21778  10.230  16.630   1.883  0.0069  0.0727 -0.0133
 4932W        W21779  10.973   6.781   1.414 -0.0493 -0.1267  0.0786
 4933W        W21780  13.725   1.795   0.706 -0.1307  0.1461 -0.1123
 4934W        W21781   5.014   9.475  14.219 -0.3370  0.0635  0.1828
 4935W        W21782   1.842   6.137   1.443 -0.2445  0.1381  0.1110
 4936W        W21783  17.932  16.387   4.375 -0.0338  0.1434 -0.0087
 4937W        W21784   3.641  12.639   6.209  0.0212  0.0605  0.1131
 4938W        W21785  14.514  13.857  13.789 -0.3248 -0.0177  0.0040
 4939W        W21786   2.750  12.573   6.078 -0.1320  0.2567  0.2731
 4940W        W21787  14.604  13.219  13.128  0.3441  0.0944 -0.0533
 4941W        W21788  12.995  14.760   3.904 -0.2192  0.0636 -0.3259
 4942W        W21789  12.789  17.102   1.992 -0.0327 -0.1497  0.1522
 4943W        W21790   3.139  17.445   4.949 -0.3685  0.0317  0.1404
 4944W        W21791   5.185   2.202   0.151 -0.2096 -0.2777 -0.2728
 4945W        W21792  12.105   1.922  12.870 -0.0391  0.3514 -0.0239
 4946W        W21793  16.726   4.420  11.896 -0.2591 -0.1240  0.0188
 4947W        W21794   5.269   2.007  13.720 -0.3041  0.0084 -0.0388
 4948W        W21795   8.956   0.686   2.221  0.0258 -0.1004  0.0094
 4949W        W21796   4.924  11.044  11.963  0.0652 -0.0955  0.0474
 4950W        W21797   8.619  11.240  14.438  0.2858  0.2281 -0.1021
 4951W        W21798  15.602  12.469  14.390 -0.0594  0.1036  0.0206
 4952W        W21799   0.040  12.450  11.854 -0.1566  0.1300 -0.0041
 4953W        W21800   7.188   1.611   1.891  0.2059  0.1515 -0.1948
 4954W        W21801   0.384   6.074   3.813 -0.4284  0.0173  0.0403
 4955W        W21802   8.345  10.969   1.647  0.5156  0.1626 -0.1026
 4956W        W21803   4.792   7.951   1.515  0.0607 -0.3399  0.2159
 4957W        W21804  15.010   6.387  14.312 -0.0377  0.1904 -0.3275
 4958W        W21805  10.237  15.028  15.381  0.0414 -0.0345  0.2843
 4959W        W21806   6.078  11.235  12.633  0.0910  0.2061 -0.2350
 4960W        W21807  12.323  10.070   0.881 -0.1408  0.0575 -0.0707
 4961W        W21808   4.040  17.443   0.401  0.1330 -0.4364  0.2705
 4962W        W21809   6.903  16.148  15.513 -0.2668  0.0485 -0.1039
 4963W        W21810  13.602   6.547  16.268 -0.1202  0.1520  0.0304
 4964W        W21811   5.458   5.809   5.655 -0.3214 -0.0360  0.0009
 4965W        W21812   5.571   8.320  11.074 -0.1228 -0.4611 -0.1776
 4966W        W21813   3.324  11.662  16.714  0.3150  0.1176 -0.2857
 4967W        W21814   1.275   8.891   3.035 -0.0816  0.1178  0.2507
 4968W        W21815   3.389   6.084   4.551 -0.0955 -0.1228  0.1988
 4969W        W21816  12.487  16.164   1.851  0.0396  0.2322 -0.2565
 4970W        W21817   0.176   9.606  12.596 -0.0594 -0.1227  0.0399
 4971W        W21818  13.291   3.996   2.606 -0.1113 -0.1419  0.1063
 4972W        W21819  16.967   5.036   5.530  0.2552  0.0363 -0.1230
 4973W        W21820  10.504  13.116   2.733  0.1720  0.0277  0.2059
 4974W        W21821   3.242   9.511  12.647  0.1201 -0.2653  0.0779
 4975W        W21822  13.177   6.670  16.536 -0.1100 -0.0785 -0.0678
 4976W        W21823  15.882   7.482  11.692  0.0140  0.1462 -0.5201
 4977W        W21824  12.277   8.657  12.535  0.1333  0.0002  0.1169
 4978W        W21825  16.405   2.489  14.530  0.0461 -0.2347  0.0844
 4979W        W21826  15.405   2.992   1.439 -0.0712 -0.0179 -0.0032
 4980W        W21827   3.093   7.591  11.962  0.0979 -0.1148 -0.0856
 4981W        W21828   0.460   8.236  12.795  0.0387 -0.2018 -0.0442
 4982W        W21829   7.223  15.856   0.483  0.0964 -0.0866 -0.1225
 4983W        W21830   2.979   1.364   3.098  0.0512  0.3070  0.0095
 4984W        W21831  10.864   8.989   3.681  0.2905  0.0859  0.1109
 4985W        W21832  10.940  15.035  13.257 -0.0622  0.0035 -0.1845
 4986W        W21833   1.143  14.967  15.750  0.0254 -0.0941  0.0514
 4987W        W21834   7.515  16.376   2.643  0.1520 -0.1488  0.0415
 4988W        W21835  15.167  13.913   1.465 -0.1712 -0.0863  0.0542
 4989W        W21836  12.283  15.662  15.484 -0.1121 -0.1359  0.0213
 4990W        W21837  15.774   0.915   1.886  0.2204 -0.1527  0.1373
 4991W        W21838  11.977  12.014   3.678  0.0157 -0.0369  0.0517
 4992W        W21839   0.147   7.786  12.728  0.2310 -0.0899 -0.0710
 4993W        W21840  16.516   3.575   1.405 -0.1063 -0.1055 -0.1758
 4994W        W21841  17.425   3.432   0.370  0.0644 -0.0235 -0.1072
 4995W        W21842  16.880   1.048  11.583 -0.0046 -0.1604 -0.0720
 4996W        W21843   4.512   4.238   3.168 -0.2419  0.1841 -0.0855
 4997W        W21844   5.031  11.770  12.636  0.1435  0.0236 -0.0600
 4998W        W21845   7.998   5.443   1.873  0.0120 -0.0209  0.0604
 4999W        W21846  12.217   8.683  11.953  0.1085 -0.1216  0.1712
 5000W        W21847   4.916  14.255   1.567  0.0258  0.1284  0.0044
 5001W        W21848  15.586   3.342   3.846  0.0414  0.1728 -0.1130
 5002W        W21849   3.399  15.447  13.747  0.0743  0.1386 -0.2929
 5003W        W21850  13.090  13.613  12.099 -0.1417  0.1882  0.0908
 5004W        W21851   2.320   2.460  13.966  0.1049 -0.2278  0.2642
 5005W        W21852   3.154   9.959  15.895 -0.0078  0.0762 -0.1737
 5006W        W21853  17.074   6.565  11.668  0.2822 -0.0408 -0.0211
 5007W        W21854   9.868   8.568   2.556  0.2964 -0.1232 -0.1672
 5008W        W21855   4.772  15.218   1.609  0.0738  0.1078  0.5159
 5009W        W21856  17.389   5.175  12.619  0.2764 -0.0067 -0.1300
 5010W        W21857  13.320   7.742   5.186 -0.0557 -0.2861 -0.1062
 5011W        W21858  13.324   2.731  15.036 -0.0351  0.1816 -0.0946
 5012W        W21859  17.057   3.528   1.702  0.2035  0.2556 -0.0952
 5013W        W21860   5.616   9.386  13.634 -0.0373  0.0431 -0.1924
 5014W        W21861  12.588  14.760  13.111 -0.0309 -0.2306 -0.0071
 5015W        W21862   2.145   5.662   5.211 -0.3598 -0.0622 -0.0995
 5016W        W21863  12.208   2.895   5.135  0.0002  0.4022  0.3211
 5017W        W21864   8.098  11.785   1.876 -0.0700 -0.1682  0.0392
 5018W        W21865   6.851   3.372  14.689  0.1217  0.1189 -0.3505
 5019W        W21866   0.845   5.118  15.886 -0.2838 -0.0184 -0.0852
 5020W        W21867   5.909   5.593   1.328  0.2974 -0.1976  0.2490
 5021W        W21868  14.154  13.031  13.375 -0.2622  0.3283 -0.0978
 5022W        W21869  15.532   7.402  16.049  0.0768 -0.0414  0.3141
 5023W        W21870   6.329  14.105   2.391  0.0049  0.1778  0.1058
 5024W        W21871   8.460   4.119  12.383 -0.1141 -0.0422 -0.2047
 5025W        W21872   4.872  14.311   3.068 -0.3998  0.2659  0.1753
 5026W        W21873   9.607   7.067   4.234  0.0855  0.0333  0.1955
 5027W        W21874  13.130   4.518  11.679 -0.2855 -0.3321  0.0761
 5028W        W21875   6.985  11.109   0.789 -0.0434  0.2249 -0.0171
 5029W        W21876  17.249   5.360   3.660 -0.2295 -0.0998 -0.2038
 5030W        W21877  12.704  14.561   4.707 -0.0645 -0.3576  0.1242
 5031W        W21878  13.932   7.990   0.710 -0.0016  0.0912  0.0041
 5032W        W21879   4.012   3.449   2.919 -0.1834  0.1341 -0.0526
 5033W        W21880  10.230  12.348  16.343  0.1721 -0.2588  0.0205
 5034W        W21881  10.926  14.829   3.842 -0.0367 -0.2515  0.1748
 5035W        W21882   5.679  11.136   0.114  0.0898  0.1333  0.1833
 5036W        W21883   3.893   2.069   2.579  0.0660  0.1671 -0.0968
 5037W        W21884   6.341  17.804  11.376  0.1133  0.2436  0.1260
 5038W        W21885   2.201  13.978  13.174  0.1035  0.3130 -0.0121
 5039W        W21886   9.166  14.442  12.831 -0.0781 -0.4284  0.0618
 5040W        W21887  13.050   9.151  11.787  0.1271 -0.2977  0.3942
 5041W        W21888   8.843   2.309   4.039 -0.2536 -0.1367  0.0184
 5042W        W21889   5.159  16.754   1.555  0.1243  0.1696 -0.0812
 5043W        W21890   7.226   9.244  15.232  0.0673 -0.2226 -0.0060
 5044W        W21891   6.045  11.484  16.307  0.1443 -0.0438 -0.1961
 5045W        W21892   4.115  13.154   2.364  0.1186  0.2659 -0.3618
 5046W        W21893   7.686   6.864   2.948 -0.0601 -0.3450  0.1597
 5047W        W21894   7.557   6.715   2.047  0.0663 -0.1030  0.0784
 5048W        W21895   0.788   8.800  12.590  0.3434  0.1288  0.2850
 5049W        W21896  16.509   4.145  13.349  0.2885 -0.0869 -0.1794
 5050W        W21897   8.033  15.679  14.173  0.0121 -0.1389 -0.1385
 5051W        W21898   8.141   4.129  14.225 -0.0666  0.1861 -0.1488
 5052W        W21899  17.038  14.823  13.921  0.0404 -0.0150 -0.1280
 5053W        W21900  16.411  16.786  15.733  0.2976  0.0563 -0.1110
 5054W        W21901   8.135   3.298  15.836 -0.3292  0.1054 -0.0707
 5055W        W21902   4.730   7.295   1.395  0.0371 -0.1655 -0.0654
 5056W        W21903   1.026  11.308   4.048  0.3199  0.0407 -0.1024
 5057W        W21904   4.679   3.939  14.654  0.2372  0.0137  0.1604
 5058W        W21905   6.596   2.753   1.447  0.1759 -0.1786  0.0999
 5059W        W21906  12.830  16.704   4.104  0.2323  0.1231  0.2304
 5060W        W21907   6.150  14.120  14.020 -0.2895 -0.1758  0.3634
 5061W        W21908  12.944   7.940  14.714  0.0611  0.0513 -0.0077
 5062W        W21909  13.731  16.427   4.839  0.0314 -0.0384 -0.1500
 5063W        W21910  12.205  14.669  16.479  0.0519  0.2118 -0.0555
 5064W        W21911   4.917   5.084  13.386  0.2088 -0.0447 -0.1902
 5065W        W21912   3.960   7.976  15.414 -0.5725 -0.0753 -0.2544
 5066W        W21913  11.579   9.000  15.616  0.0329  0.4400  0.4612
 5067W        W21914  10.215  10.819   4.442  0.0380  0.1193 -0.1925
 5068W        W21915   3.184   6.129   5.039 -0.0334 -0.0184 -0.0152
 5069W        W21916   1.330   5.249  11.965 -0.2460 -0.0898  0.3867
 5070W        W21917  10.368   0.518   4.342  0.2474  0.2053  0.1610
 5071W        W21918  17.251   3.120  16.107  0.2316  0.0526  0.0932
 5072W        W21919   1.615   9.174   4.443  0.0998 -0.1023 -0.2277
 5073W        W21920   5.429  14.394   3.844  0.1367 -0.1570  0.2951
 5074W        W21921  15.274   9.874   1.499  0.0570  0.1655  0.0594
 5075W        W21922   8.574  11.505   6.247  0.1340  0.1798  0.3626
 5076W        W21923   3.440   3.409   1.107 -0.4808  0.0086  0.0919
 5077W        W21924   4.616  17.720  12.808 -0.2434 -0.1980 -0.0706
 5078W        W21925   4.721   9.104   1.771 -0.0911  0.1608  0.1614
 5079W        W21926   9.110  11.368  15.261 -0.2005 -0.0841 -0.1117
 5080W        W21927   1.039   4.735   3.211 -0.0399  0.0506 -0.0487
 5081W        W21928  13.810   2.053  12.693 -0.0916  0.4132 -0.0318
 5082W        W21929   6.370   1.714  14.509  0.0559 -0.3939 -0.1125
 5083W        W21930   3.411  14.002   2.659 -0.1129  0.4641 -0.0391
 5084W        W21931  16.424   7.423  15.254 -0.1267 -0.0027 -0.3045
 5085W        W21932   9.436   0.651   3.707  0.1369  0.0882  0.2390
 5086W        W21933   6.794   6.131   0.378 -0.0201  0.0354  0.3118
 5087W        W21934  15.130   6.069   0.435  0.0863  0.1155 -0.3068
 5088W        W21935   2.388  15.213  14.865  0.0972  0.0092 -0.1600
 5089W        W21936   0.007   4.624   3.509  0.3603  0.1692  0.1129
 5090W        W21937  12.531  16.083  11.702  0.3010 -0.0385  0.2414
 5091W        W21938   1.590  14.169   0.196 -0.0658  0.0322  0.0922
 5092W        W21939  11.052   5.790  14.034  0.2974  0.2672 -0.0483
 5093W        W21940  16.522   8.730  12.780  0.1182 -0.1172 -0.0529
 5094W        W21941   4.032  12.187   2.594 -0.0874 -0.1378  0.1016
 5095W        W21942  15.630  11.230  14.741  0.1777 -0.0393  0.0585
 5096W        W21943   8.139  10.467   1.873 -0.1079 -0.0759  0.2908
 5097W        W21944   9.428   8.225  11.593  0.3980 -0.0786 -0.2101
 5098W        W21945   0.135   4.562   3.050 -0.1369 -0.3435 -0.1732
 5099W        W21946   3.176   8.536   2.766  0.0703 -0.2096 -0.1995
 5100W        W21947   2.240  15.521  15.260  0.0825  0.2486 -0.0180
 5101W        W21948   3.960  11.244  11.226  0.0417 -0.1642  0.2318
 5102W        W21949  13.538   0.310  15.391  0.1869 -0.0132 -0.0065
 5103W        W21950   6.630   0.264  12.427 -0.2348 -0.1047 -0.2577
 5104W        W21951  12.529   6.865  13.931 -0.0917  0.0125 -0.1622
 5105W        W21952   8.347   2.733   0.897  0.1702 -0.2370 -0.0790
 5106W        W21953  17.417   0.404   2.619  0.0085 -0.0472  0.2156
 5107W        W21954  17.805   6.902   5.706  0.0653  0.2575 -0.0480
 5108W        W21955   4.560   4.306  15.043  0.0595 -0.0019  0.1168
 5109W        W21956   1.589   6.389  12.509 -0.0966  0.0318  0.0231
 5110W        W21957   6.032  12.135  12.354 -0.1421  0.2954 -0.1690
 5111W        W21958  16.047   0.449  16.605 -0.1587 -0.1116  0.0897
 5112W        W21959   6.277   8.321   4.454 -0.1228 -0.1694 -0.0296
 5113W        W21960   2.779  13.577  15.123  0.0550  0.1573 -0.0182
 5114W        W21961  12.605  15.519   0.110 -0.1424  0.0275  0.1298
 5115W        W21962  14.130   2.706   2.375 -0.3255  0.1082 -0.0395
 5116W        W21963  10.574  17.021   0.132  0.2762 -0.0537  0.0627
 5117W        W21964  15.265  14.076   0.464  0.0614 -0.2949 -0.2222
 5118W        W21965   3.982  11.011  13.223 -0.0924  0.1417  0.0930
 5119W        W21966  14.870  17.269  15.948 -0.0520 -0.0967  0.0523
 5120W        W21967   8.220   1.869  15.348  0.1576 -0.1248 -0.2495
 5121W        W21968   5.623  10.629  14.160  0.0287 -0.1814 -0.0066
 5122W        W21969   4.474   4.032   5.123 -0.3532 -0.0609  0.0428
 5123W        W21970  17.611  12.034   5.003  0.0926  0.0126  0.0467
 5124W        W21971   7.597   0.815   1.684 -0.0800 -0.0446 -0.3804
 5125W        W21972   0.025  10.382   6.024 -0.1219  0.0565 -0.2561
 5126W        W21973  15.522   3.124   5.565  0.1595  0.0215  0.0374
 5127W        W21974  11.258   8.991   2.696 -0.3527  0.0978  0.2201
 5128W        W21975   2.327  12.260   5.323  0.2896 -0.1790  0.1846
 5129W        W21976   2.296  12.881   2.108  0.0417 -0.0693  0.3401
 5130W        W21977   4.792   0.124  16.797 -0.0685 -0.1616  0.1932
 5131W        W21978   5.611  10.746   2.246  0.0090  0.2077 -0.0115
 5132W        W21979   4.308   8.979   0.426 -0.1480 -0.1366 -0.1477
 5133W        W21980  15.535  10.395   4.700  0.1415 -0.4053  0.2105
 5134W        W21981   5.023  15.021   1.179 -0.0961 -0.2356  0.1889
 5135W        W21982   7.709  12.364  13.124  0.1922  0.1760 -0.3931
 5136W        W21983  13.217   6.243  16.186  0.0067 -0.1877 -0.1827
 5137W        W21984  15.307  12.005  12.252 -0.0564 -0.0185 -0.0893
 5138W        W21985   0.409   7.991   0.170  0.1733  0.1304 -0.4405
 5139W        W21986  15.879   9.124  13.871  0.0249  0.1281  0.0066
 5140W        W21987   6.215  11.172  14.823 -0.0793  0.1686 -0.0830
 5141W        W21988   0.517   9.484  12.260  0.2649  0.0405 -0.3318
 5142W        W21989  15.244  15.610   5.234  0.0316 -0.1214 -0.1920
 5143W        W21990   9.868   4.351  16.028 -0.5263  0.0390 -0.0459
 5144W        W21991   4.203   1.127  12.341 -0.1276 -0.0340  0.2233
 5145W        W21992   5.937   6.892  15.912  0.2245 -0.2266 -0.1182
 5146W        W21993  14.327   1.714   2.404 -0.2192  0.0040 -0.0609
 5147W        W21994   8.023   3.019  13.116  0.4145  0.1584 -0.2956
 5148W        W21995   4.986  14.085  11.685 -0.2101  0.2389  0.1066
 5149W        W21996   9.920   6.652   3.456 -0.1039  0.0666 -0.1019
 5150W        W21997   9.402   7.242   0.285 -0.0146  0.0107  0.0437
 5151W        W21998  15.387   1.362   3.748  0.0483 -0.0931 -0.1656
 5152W        W21999   6.264   8.225  15.074  0.0492 -0.2347  0.0365
 5153W        W22000  16.761   4.231  15.829 -0.0886 -0.1948  0.0247
 5154W        W22001  11.032  10.834  15.760  0.1485  0.0679  0.2189
 5155W        W22002  13.902  16.717   2.528 -0.0574 -0.1059 -0.3607
 5156W        W22003   3.925  17.615   1.342  0.1637  0.1134 -0.1090
 5157W        W22004  14.494   5.577   3.923  0.3334  0.0993 -0.4148
 5158W        W22005   2.047   1.521   4.773  0.1190  0.2249  0.1584
 5159W        W22006  11.500  10.096   4.536 -0.1887  0.0133  0.4010
 5160W        W22007  13.368  17.063  16.097  0.2687  0.2189 -0.2152
 5161W        W22008   5.025   3.426   1.723 -0.1841  0.3490 -0.1862
 5162W        W22009  16.128   4.463   5.917 -0.1293  0.0674  0.2985
 5163W        W22010  12.187   4.972   0.872 -0.0139  0.0895  0.1241
 5164W        W22011  11.112   7.167  14.009  0.2532 -0.0627  0.2972
 5165W        W22012   6.415  15.001   3.705  0.3556 -0.0032  0.0337
 5166W        W22013   0.189  11.658  14.385  0.0049  0.1657  0.1089
 5167W        W22014   4.196   9.435   1.155  0.0321 -0.1022 -0.2176
 5168W        W22015  15.913   5.121  11.398 -0.1177 -0.1155 -0.1355
 5169W        W22016  17.846  16.571  14.526  0.0386 -0.1769 -0.1338
 5170W        W22017   5.650   9.657  11.576 -0.0125 -0.0478 -0.3034
 5171W        W22018  16.616  13.327  14.749  0.0138  0.1917 -0.0479
 5172W        W22019   8.898   7.233  14.499 -0.1424  0.0484 -0.0375
 5173W        W22020  16.996  12.702   2.987  0.3249 -0.1608  0.0350
 5174W        W22021   1.884  11.680   0.628 -0.0881 -0.1658 -0.0475
 5175W        W22022   5.809  17.721  15.683 -0.0375 -0.0340  0.0299
 5176W        W22023  14.792  13.439   6.598  0.0647 -0.0925 -0.1779
 5177W        W22024   7.239   7.965  16.606  0.3392  0.0398  0.0984
 5178W        W22025  14.457  17.160  13.681 -0.1032  0.0218  0.0729
 5179W        W22026   3.836  15.771  14.704  0.2436 -0.1228 -0.2491
 5180W        W22027  16.327  12.970   4.407 -0.1709  0.0991 -0.0727
 5181W        W22028  14.479   6.445   4.455 -0.1474  0.1848  0.0184
 5182W        W22029   7.633   3.228   0.445 -0.1945 -0.0963  0.0185
 5183W        W22030   9.844   1.376   3.591  0.1741  0.2317 -0.0493
 5184W        W22031  11.236   7.412   2.653  0.1376  0.0807 -0.2335
 5185W        W22032  15.142   5.639  14.743  0.0613  0.0833 -0.0076
 5186W        W22033   0.829  16.680  14.650 -0.1937 -0.2104 -0.1409
 5187W        W22034  15.591   5.751  14.858  0.0766 -0.0910 -0.3622
 5188W        W22035  15.419  12.873  15.174  0.1628  0.1328  0.0970
 5189W        W22036  17.172  12.203  16.322  0.1529 -0.1012  0.1492
 5190W        W22037   7.656  17.523  12.134  0.0223  0.2738  0.2467
 5191W        W22038  13.377  14.136   3.742 -0.1111  0.3720 -0.0864
 5192W        W22039   5.640   7.799  13.896 -0.0259 -0.1358  0.3094
 5193W        W22040  11.553  16.103   1.036 -0.0123 -0.2244  0.2116
 5194W        W22041   1.022   2.816   1.342 -0.2355  0.2511  0.4306
 5195W        W22042  10.261  13.833  12.777 -0.1060 -0.0936  0.0334
 5196W        W22043   0.510   9.559  14.930 -0.1203 -0.0105  0.2401
 5197W        W22044   6.699   8.860  16.664 -0.0148  0.1415 -0.0671
 5198W        W22045  13.966  17.106  12.857 -0.0712  0.4487 -0.0397
 5199W        W22046  14.183   3.940   1.573  0.1886  0.1401 -0.3291
 5200W        W22047   1.866   3.705   0.759 -0.1871  0.1487 -0.0247
 5201W        W22048   2.564   4.491   5.233 -0.0894  0.0666 -0.1608
 5202W        W22049   2.135   4.789  14.312 -0.0191  0.6277  0.1678
 5203W        W22050  16.773   0.999   2.603 -0.1078 -0.0601 -0.0007
 5204W        W22051   6.142  13.219  16.254 -0.0510 -0.0292 -0.3755
 5205W        W22052   3.160   6.624   3.452 -0.1211  0.2082  0.1471
 5206W        W22053  14.693   6.271   1.921  0.0526  0.5012 -0.2605
 5207W        W22054   3.712   0.056  16.249  0.1079 -0.0141  0.3695
 5208W        W22055  10.391   9.725   5.257 -0.2019 -0.2741  0.2350
 5209W        W22056  12.676  11.591   5.461  0.2847 -0.2239 -0.0624
 5210W        W22057   5.357  17.659  11.969 -0.2413  0.1303 -0.0379
 5211W        W22058  11.576  14.636  12.911  0.0831 -0.0081  0.2401
 5212W        W22059   0.527   8.464   0.418 -0.3879 -0.1337  0.2053
 5213W        W22060   0.872   8.052  14.943  0.0914 -0.1117 -0.2378
 5214W        W22061   3.722  11.268   0.084  0.1436 -0.0977 -0.2036
 5215W        W22062  11.504   2.326  12.348  0.0709  0.1951  0.1285
 5216W        W22063  15.848   9.193   4.730 -0.0807  0.1393 -0.1481
 5217W        W22064   4.654  16.871   3.614 -0.1256  0.2867  0.2199
 5218W        W22065   5.146   1.540  16.038 -0.1049  0.1879 -0.0718
 5219W        W22066  11.764   5.912  12.591 -0.0779 -0.1195 -0.0772
 5220W        W22067   3.334   1.518  16.684  0.0350 -0.0306 -0.0216
 5221W        W22068  15.940   0.092   1.431 -0.0015 -0.0836  0.3865
 5222W        W22069   0.434  17.193   4.647  0.2530 -0.2685 -0.1035
 5223W        W22070  12.205   8.473  14.412 -0.2851  0.3727  0.0238
 5224W        W22071   1.730   6.296   0.234  0.3815 -0.0892 -0.0778
 5225W        W22072   8.357   6.289  11.916 -0.0183  0.1151  0.1777
 5226W        W22073   5.881   6.801   0.923  0.2601  0.1862  0.1425
 5227W        W22074   6.379   4.716   1.575 -0.1218 -0.0197 -0.1726
 5228W        W22075  16.909   2.259  13.618  0.3300  0.2039 -0.4960
 5229W        W22076  12.869   7.586   0.922  0.0190  0.0395  0.0637
 5230W        W22077   5.877   5.535  14.699 -0.0453  0.1264 -0.2783
 5231W        W22078   6.519   2.611   5.390 -0.0492 -0.1371  0.2623
 5232W        W22079  16.365  10.206   1.264  0.3563 -0.1263 -0.1264
 5233W        W22080   5.512  10.551  12.551  0.0324  0.1590 -0.1320
 5234W        W22081   5.168  10.347  14.281  0.0660  0.0168 -0.1163
 5235W        W22082   3.555   7.956   5.765  0.3098  0.0291  0.1898
 5236W        W22083   8.298  17.893   3.566  0.0710  0.0782 -0.2771
 5237W        W22084   4.177  15.023  15.658  0.1006 -0.0014 -0.0305
 5238W        W22085   5.935   4.093   2.593  0.2807 -0.0427 -0.0200
 5239W        W22086   1.549  12.161  14.148 -0.1792  0.0565  0.0245
 5240W        W22087  17.704  12.003  14.493  0.3877  0.0044 -0.2824
 5241W        W22088   5.395  11.538  15.517 -0.1955  0.0547 -0.2600
 5242W        W22089   9.218  11.854  11.854 -0.1085  0.2704 -0.0098
 5243W        W22090   3.096  16.400  11.210 -0.0966  0.1131  0.0888
 5244W        W22091  14.107   8.347  14.167  0.0355 -0.1776 -0.0823
 5245W        W22092  10.138   1.236   3.985  0.0400 -0.2334  0.2576
 5246W        W22093  10.565  10.825  15.949 -0.0626 -0.3481  0.5220
 5247W        W22094  14.983   5.741   1.353 -0.2465  0.2838  0.0265
 5248W        W22095  15.687  17.383  14.275  0.2379  0.2498 -0.0227
 5249W        W22096   7.148   5.263  13.126  0.1056  0.1699  0.2176
 5250W        W22097   0.357   7.979   3.686 -0.0532  0.1302  0.1343
 5251W        W22098   3.605   3.015   0.769  0.1245  0.1470 -0.1862
 5252W        W22099   4.670  17.119   2.613  0.0553 -0.0795  0.2170
 5253W        W22100   1.827  11.104   2.993  0.0544 -0.1150  0.0413
 5254W        W22101   8.886  12.746   0.708  0.2441 -0.0109  0.1941
 5255W        W22102   0.777   2.348   1.103  0.0165 -0.1135  0.1727
 5256W        W22103  11.817  11.183   3.182 -0.1913 -0.0649 -0.2458
 5257W        W22104  14.930  16.831  15.055 -0.0650 -0.1481 -0.2419
 5258W        W22105   4.726   0.251   3.695 -0.3267  0.0485 -0.2264
 5259W        W22106   4.213   6.385  15.648  0.1079 -0.0230  0.0699
 5260W        W22107  15.207   4.957   1.259 -0.1194  0.0368 -0.0226
 5261W        W22108   8.793  13.752  12.621 -0.1807 -0.0527  0.0994
 5262W        W22109   9.402  11.041  13.021  0.3013 -0.3269 -0.0077
 5263W        W22110  10.298  10.716   2.197 -0.1938  0.2650  0.1565
 5264W        W22111  15.030   0.446   0.363  0.2702 -0.1966 -0.4924
 5265W        W22112  17.923   9.707   3.818 -0.0578 -0.0992  0.1969
 5266W        W22113  16.674   6.558  11.934  0.0233  0.0712 -0.0018
 5267W        W22114  10.732  16.124   2.277 -0.0482 -0.0897  0.0301
 5268W        W22115  16.127  16.551  16.071  0.0282 -0.0053 -0.0429
 5269W        W22116  16.631   2.060  12.411  0.1043  0.1472 -0.0438
 5270W        W22117   7.100   6.199  14.070  0.0481  0.0401  0.2325
 5271W        W22118   4.612   7.253  15.292  0.1733  0.1318 -0.0363
 5272W        W22119  10.486  13.089   1.956 -0.0657  0.0324 -0.1111
 5273W        W22120  12.687   6.642   4.117  0.1071 -0.1371  0.0472
 5274W        W22121  16.415   3.650  14.736 -0.0121 -0.0450  0.3046
 5275W        W22122   6.739   5.054   5.126 -0.4085  0.0856 -0.0528
 5276W        W22123  12.573  17.698   5.569 -0.0272 -0.2993  0.0877
 5277W        W22124   5.274   0.112  14.350 -0.0875 -0.0852 -0.1584
 5278W        W22125  10.274  11.983  13.981  0.0685 -0.0907 -0.1028
 5279W        W22126   0.585  14.399  14.083  0.0955 -0.2073  0.0021
 5280W        W22127   6.723  10.144   0.543  0.1787 -0.1765  0.1261
 5281W        W22128  12.444  14.815   0.762  0.0051 -0.0821 -0.0536
 5282W        W22129   8.045  10.169   0.305  0.4338 -0.1515 -0.0306
 5283W        W22130   6.376   0.623   1.330  0.2757  0.1755 -0.0022
 5284W        W22131   3.960   6.880  13.562  0.0433  0.0375  0.0026
 5285W        W22132   7.516   4.257  13.347  0.1854  0.1291 -0.1155
 5286W        W22133  10.197   0.940   5.235  0.0867  0.4507 -0.1343
 5287W        W22134   4.889  17.769   4.032  0.1267 -0.0611  0.0786
 5288W        W22135   2.526  13.732  14.246 -0.2302 -0.3748 -0.0221
 5289W        W22136  17.283   7.538  16.384  0.0289  0.0342  0.0312
 5290W        W22137  15.117  10.479   3.849 -0.1031  0.1566  0.0920
 5291W        W22138  13.607   9.244   4.446 -0.3259  0.0076 -0.0565
 5292W        W22139  13.422   5.412  12.197  0.0488 -0.0020  0.0142
 5293W        W22140   1.552   1.559   1.200  0.0381  0.2740  0.0861
 5294W        W22141  14.122   7.475   2.111 -0.3109 -0.2934 -0.1699
 5295W        W22142   6.559   2.640  15.133 -0.0414  0.0453 -0.2925
 5296W        W22143   7.559   2.664   3.345 -0.2719  0.0308  0.0068
 5297W        W22144   4.624   2.535   4.020 -0.0676  0.0431  0.0386
 5298W        W22145  13.986  17.268  15.816  0.0612 -0.4162  0.0672
 5299W        W22146   7.678   8.769   2.452 -0.1961  0.0001  0.1204
 5300W        W22147   3.601  14.694   2.344  0.1609 -0.1412  0.0350
 5301W        W22148  13.916  10.850  15.801  0.0204 -0.0379  0.1658
 5302W        W22149   0.774   6.950  15.475 -0.1371  0.0548  0.1634
 5303W        W22150   0.135  12.761  13.545  0.1223  0.2297  0.0733
 5304W        W22151  16.024   2.298  13.579 -0.0301 -0.1695  0.0520
 5305W        W22152   4.067   0.891   3.746  0.1095 -0.1399  0.4125
 5306W        W22153  15.970   7.594   2.594  0.1267 -0.0688 -0.1557
 5307W        W22154   6.877  15.222  12.721  0.0426 -0.0389  0.1565
 5308W        W22155   0.842   3.278   2.030  0.0815  0.4670  0.2256
 5309W        W22156   7.765   0.532  12.903 -0.0397 -0.1815  0.0858
 5310W        W22157   9.320   2.069   3.375  0.3183  0.1093 -0.1810
 5311W        W22158   9.711  10.659  12.610 -0.0875 -0.2021 -0.0961
 5312W        W22159   1.205  11.706   3.198  0.0941  0.2751 -0.1202
 5313W        W22160  15.956  13.567  16.753  0.0421  0.0993  0.2022
 5314W        W22161   6.482   3.412  13.073 -0.4980  0.2656 -0.1173
 5315W        W22162   4.727  17.423   4.686  0.3163 -0.2090  0.0440
 5316W        W22163  17.326   2.696  12.863 -0.1505 -0.1324  0.0461
 5317W        W22164   0.320   9.889   1.387  0.0434 -0.0561  0.2242
 5318W        W22165   0.997  16.301   0.919  0.0760  0.3089  0.0507
 5319W        W22166  15.412  14.605  12.375  0.0096  0.1795 -0.0463
 5320W        W22167   9.488  12.641   5.594  0.1356 -0.1177  0.2891
 5321W        W22168   7.070   1.432  10.232  0.0097  0.0894  0.1465
 5322W        W22169   8.798  13.888  13.656 -0.3921  0.1995  0.0972
 5323W        W22170   1.947   1.897   0.380 -0.1751  0.0137  0.1116
 5324W        W22171   8.954  11.778   3.422 -0.0280 -0.0992  0.0350
 5325W        W22172   6.685   3.199   1.320  0.0586  0.1058  0.0923
 5326W        W22173  12.041  14.025  14.022 -0.1432  0.0730  0.1068
 5327W        W22174   8.411   0.849  13.006 -0.1168 -0.0229  0.2064
 5328W        W22175  11.398  10.176   3.988  0.2125 -0.1357  0.0213
 5329W        W22176  13.005  14.880  12.094 -0.1245 -0.1718 -0.0539
 5330W        W22177   1.157   9.355   4.228 -0.2166  0.2274  0.0666
 5331W        W22178   0.013   3.605  14.260  0.1895 -0.1716  0.2082
 5332W        W22179  13.956  13.271  12.945  0.0465  0.3185  0.2922
 5333W        W22180   8.122  13.608  13.605  0.2180  0.0675 -0.1292
 5334W        W22181  16.746   1.856   1.626 -0.0005  0.2376  0.1359
 5335W        W22182   9.458   2.891  12.165  0.2421  0.0135 -0.0338
 5336W        W22183   9.913  12.363  13.256  0.1518 -0.2981 -0.0092
 5337W        W22184  13.886  12.744  15.010 -0.1791  0.0201 -0.2597
 5338W        W22185   0.764  15.693  12.569  0.0096  0.0780  0.1252
 5339W        W22186   3.491  12.997  13.089  0.3984  0.0356  0.0219
 5340W        W22187   0.207   7.504  14.749 -0.1203  0.0246 -0.2560
 5341W        W22188   7.642  12.226  14.417  0.2525  0.0878 -0.2808
 5342W        W22189  10.276  15.939   2.536  0.0743 -0.0860  0.0663
 5343W        W22190  17.894  14.823  13.664  0.0422  0.1440 -0.0408
 5344W        W22191  11.671   6.232   3.262  0.1641 -0.1477  0.0032
 5345W        W22192   9.432  14.592  14.994 -0.0168  0.3142  0.0263
 5346W        W22193   0.168   0.883   0.788  0.0052 -0.2419 -0.2768
 5347W        W22194   5.905   3.812  12.462  0.2008  0.0869 -0.1613
 5348W        W22195  12.198   4.261   1.073  0.2343 -0.1666  0.0964
 5349W        W22196  10.967  17.646  13.262  0.0024  0.0458 -0.0399
 5350W        W22197  10.986   6.473  12.091 -0.0832  0.2345  0.0363
 5351W        W22198   7.070   9.875  15.201 -0.0667  0.3826  0.0066
 5352W        W22199   7.555  15.882   0.846 -0.3025  0.3020 -0.1064
 5353W        W22200   7.487   2.766  13.558 -0.1910  0.3274  0.1512
 5354W        W22201   5.249   6.539  15.465 -0.0063 -0.0004  0.2106
 5355W        W22202   0.864   3.688   4.668 -0.2059  0.0138  0.1730
 5356W        W22203   5.620   5.534  16.031  0.0052 -0.1439 -0.2917
 5357W        W22204   1.990   3.099   0.581 -0.0081 -0.2037  0.1205
 5358W        W22205   1.816  15.753  12.145  0.1282 -0.1052  0.2389
 5359W        W22206   9.889  11.640  12.757 -0.0029 -0.0812 -0.2240
 5360W        W22207   2.413   7.305  13.755  0.2289  0.0294  0.0706
 5361W        W22208  13.892  11.467   4.239 -0.1151 -0.1827  0.3993
 5362W        W22209   6.150   0.647   4.864 -0.1359 -0.1985 -0.0288
 5363W        W22210   6.738  13.675  13.040 -0.0826  0.1150 -0.0962
 5364W        W22211  16.379  16.246   3.535  0.2306  0.0796 -0.1176
 5365W        W22212   4.510   4.100  15.460  0.1959 -0.1259  0.0658
 5366W        W22213  15.216   8.992  15.661 -0.1416  0.0580  0.0009
 5367W        W22214  17.498   4.442   3.841  0.3018 -0.2073  0.2605
 5368W        W22215   5.784  15.461  13.792  0.1771 -0.2784  0.1798
 5369W        W22216   7.630   1.557   1.186 -0.2005 -0.0237  0.3747
 5370W        W22217  14.677   7.185   0.019  0.0540  0.1081  0.0009
 5371W        W22218   9.599   5.868   3.934 -0.0399 -0.1624  0.2118
 5372W        W22219   0.107   5.894  12.009 -0.2820 -0.0917  0.3768
 5373W        W22220  14.524  11.961  15.078  0.1617  0.1752 -0.2799
 5374W        W22221   5.523  13.687  13.079  0.1688 -0.1795  0.3007
 5375W        W22222   6.659  12.402  12.029 -0.1650  0.2015  0.2374
 5376W        W22223   1.080   1.895   4.804  0.0201 -0.1571 -0.0520
 5377W        W22224   7.984  10.258   3.682 -0.1942  0.1926  0.1780
 5378W        W22225   1.365  15.369   2.237 -0.0910 -0.0045  0.0196
 5379W        W22226  14.404   5.274   1.278  0.1482 -0.0090 -0.1964
 5380W        W22227  12.330  13.736   0.014 -0.0551 -0.0640  0.3601
 5381W        W22228   8.618   6.358   0.711 -0.1284  0.1184  0.1591
 5382W        W22229  16.309   8.143  11.912  0.1618  0.0077 -0.1303
 5383W        W22230   8.024  15.937  13.221  0.1470 -0.3232 -0.1430
 5384W        W22231   3.103  16.899  11.266  0.1191 -0.0326  0.0066
 5385W        W22232  16.152   6.509   1.058  0.0352  0.2540 -0.2624
 5386W        W22233   5.679  17.199  13.449 -0.1678 -0.0561 -0.0285
 5387W        W22234   3.462  16.799  15.396  0.0180  0.1763 -0.1362
 5388W        W22235   5.889   1.953  16.074  0.2677  0.1676  0.1431
 5389W        W22236  11.981   6.804  11.834  0.0058  0.2565  0.1781
 5390W        W22237   5.342   5.076  13.067 -0.1560 -0.1569  0.1685
 5391W        W22238  10.075   6.789  12.990  0.2416  0.3023 -0.0062
 5392W        W22239   8.313   9.365  15.321  0.0838  0.0387 -0.1801
 5393W        W22240  10.018   5.343   2.939  0.0679 -0.1304 -0.0536
 5394W        W22241  14.898  12.174   4.132  0.0939  0.2717  0.3065
 5395W        W22242  14.922  16.573   2.431  0.0451  0.1772 -0.1605
 5396W        W22243   0.562   2.624  15.001  0.2884  0.2405  0.0312
 5397W        W22244  13.706  14.673   3.173  0.0635 -0.3603  0.1165
 5398W        W22245  13.099  11.957  16.169 -0.1388 -0.0924 -0.0485
 5399W        W22246   6.881  12.333  12.618 -0.2239  0.2236 -0.0574
 5400W        W22247  15.225   2.360   0.672 -0.2421  0.1665 -0.1174
 5401W        W22248   9.606  11.960  11.481  0.3255  0.0612 -0.0728
 5402W        W22249   1.582   2.880   4.570 -0.1518  0.2388 -0.0884
 5403W        W22250   0.357  10.127  14.344 -0.1795  0.1466 -0.0120
 5404W        W22251   0.560   9.324   3.073  0.0883 -0.1803  0.4409
 5405W        W22252  17.445   5.088   5.693  0.0594  0.0404 -0.2210
 5406W        W22253  15.496   8.216   3.451 -0.1454 -0.0409 -0.0845
 5407W        W22254   3.521  13.603   0.747 -0.0689  0.2263  0.0673
 5408W        W22255  13.647   5.297   0.874  0.0606 -0.3434  0.0474
 5409W        W22256   5.339   7.573   3.371  0.0182 -0.1281  0.0935
 5410W        W22257   7.749   4.676  15.626 -0.0079  0.1317  0.0834
 5411W        W22258  17.525   4.329  13.232 -0.3800  0.1058  0.0224
 5412W        W22259   8.803  13.379   5.054 -0.4175 -0.0189  0.1841
 5413W        W22260   2.815   3.796  16.542  0.2076  0.0167  0.0604
 5414W        W22261   8.226  16.823   2.302 -0.0450  0.2079 -0.0816
 5415W        W22262   2.986   9.844  14.881  0.1427  0.1782  0.1922
 5416W        W22263   1.194   9.377  12.902 -0.2546 -0.1720 -0.2859
 5417W        W22264   5.504   4.100  15.258  0.2582 -0.5917  0.0102
 5418W        W22265  16.243   1.539  16.009 -0.0504  0.0008 -0.0586
 5419W        W22266   9.260   6.970   4.532  0.1818  0.0280  0.0224
 5420W        W22267   8.349  12.123   5.656 -0.1383 -0.2604 -0.0700
 5421W        W22268  11.330   4.823   5.427  0.3865  0.0409 -0.2562
 5422W        W22269  15.123  15.092  13.109 -0.0729 -0.0588 -0.1742
 5423W        W22270   0.590   7.856   2.993 -0.0205  0.2781  0.0350
 5424W        W22271   1.138   7.389  13.473  0.3178  0.1464 -0.4179
 5425W        W22272   8.946   3.297   2.440 -0.0754  0.2266  0.1134
 5426W        W22273   1.756  15.962   4.621 -0.0383  0.1463 -0.1366
 5427W        W22274   1.592  17.562  12.207  0.0146 -0.3096  0.0347
 5428W        W22275  15.110   2.558   2.959 -0.1244  0.1334 -0.1118
 5429W        W22276   0.572   2.099  15.119 -0.0329  0.1349  0.2765
 5430W        W22277   1.972  17.519   1.306  0.0168 -0.0484 -0.1868
 5431W        W22278   7.194   2.944  11.957 -0.1151 -0.3072 -0.1031
 5432W        W22279   5.339   2.478   0.557  0.2343 -0.2298 -0.0496
 5433W        W22280  10.506   5.101   0.988  0.0621  0.0795  0.2399
 5434W        W22281  13.113   9.122  14.084  0.0844  0.0975 -0.1122
 5435W        W22282  17.449  11.623   2.680  0.0430 -0.1585 -0.1401
 5436W        W22283  16.287   8.664  14.804 -0.2090  0.0358  0.1935
 5437W        W22284  13.128  13.548   4.680  0.1304 -0.1808  0.0824
 5438W        W22285  11.612   0.709   1.459  0.1826  0.3252  0.2285
 5439W        W22286   7.530  11.891   5.206  0.0900 -0.0659  0.0846
 5440W        W22287   1.948  11.306   0.251  0.0822 -0.1081  0.0218
 5441W        W22288   0.064   2.451   5.244 -0.2008  0.0484 -0.1266
 5442W        W22289  17.553  12.837  13.015 -0.0299  0.0614 -0.0010
 5443W        W22290   6.718   9.253  16.339 -0.1270 -0.0530 -0.2687
 5444W        W22291   8.226   3.758  13.721 -0.1173  0.1105  0.0836
 5445W        W22292   2.317  17.148   2.899  0.0587 -0.2258 -0.1247
 5446W        W22293  17.378   5.938   2.307  0.1310 -0.1409  0.0308
 5447W        W22294  13.608   5.351   0.357  0.1745  0.0586 -0.1055
 5448W        W22295   5.650  10.768  16.029  0.1631  0.2253 -0.0232
 5449W        W22296   1.137  16.548   1.645 -0.1050  0.0105 -0.1341
 5450W        W22297   5.689  11.467   3.158 -0.1784 -0.0950  0.4001
 5451W        W22298   3.896   2.901   1.747 -0.1651 -0.0249  0.2315
 5452W        W22299   7.681   2.212  12.662 -0.1342  0.3100 -0.1671
 5453W        W22300   3.876  12.031  16.660 -0.1084 -0.0975 -0.2675
 5454W        W22301   0.089  14.197   2.142  0.0934  0.0906 -0.0374
 5455W        W22302   8.412  10.646  13.749 -0.1508 -0.0078 -0.0463
 5456W        W22303   6.108   3.587   2.731 -0.2470  0.2485  0.2762
 5457W        W22304   6.378  11.890  14.281  0.0924  0.2587  0.1815
 5458W        W22305   0.212   3.730  12.798 -0.1769 -0.0637 -0.0417
 5459W        W22306  13.656   2.270   4.180 -0.4027 -0.2466  0.1528
 5460W        W22307   4.058  14.035   4.620 -0.3954 -0.2648 -0.1730
 5461W        W22308   1.962   0.471  13.940 -0.2969  0.0439  0.2091
 5462W        W22309   0.863   7.358  12.886 -0.0698  0.0134  0.0907
 5463W        W22310   4.850   0.709  13.266 -0.0755  0.0978  0.0349
 5464W        W22311   4.379   6.920   4.404 -0.0724 -0.1422 -0.0589
 5465W        W22312   4.244   3.014  13.555  0.0329  0.0144  0.1007
 5466W        W22313  10.809   6.528  13.546 -0.1432  0.0275  0.0567
 5467W        W22314  16.080  16.385  13.875 -0.1779  0.1806  0.0407
 5468W        W22315  11.259   3.891  13.837 -0.2103 -0.1544  0.1024
 5469W        W22316   0.337   5.274  13.462 -0.1123 -0.2374  0.0813
 5470W        W22317   3.243  13.174   2.384  0.2498 -0.0263  0.1237
 5471W        W22318   3.662   4.856  16.019  0.2043  0.0775 -0.0450
 5472W        W22319  12.932  17.797   0.700  0.0224  0.0833  0.2107
 5473W        W22320   4.974  15.781   4.131 -0.0601 -0.2843  0.0728
 5474W        W22321   3.360  15.605  11.511  0.0980  0.0063 -0.0374
 5475W        W22322  16.027  11.081   0.960  0.0831  0.2822  0.0423
 5476W        W22323   2.566  10.047   3.251 -0.0835  0.1351  0.1793
 5477W        W22324   7.263   9.165   0.541 -0.0820  0.1845  0.1054
 5478W        W22325  11.117   7.712   1.622  0.0150 -0.0217 -0.3342
 5479W        W22326   0.442   3.490   0.777  0.0101 -0.2309 -0.2501
 5480W        W22327   5.322   1.770   0.519  0.3677 -0.1890  0.0080
 5481W        W22328  11.175   3.269  12.506  0.0573 -0.3139 -0.1138
 5482W        W22329   0.952  11.254   4.565 -0.3386 -0.1316  0.1992
 5483W        W22330   0.684   2.766   0.280 -0.0620  0.1069  0.2897
 5484W        W22331   8.979   9.825   3.560 -0.0313 -0.0906  0.2957
 5485W        W22332   5.510   5.511  12.805 -0.2153 -0.2171 -0.4448
 5486W        W22333   0.765   3.119   1.561  0.1003 -0.1356  0.3069
 5487W        W22334  14.866  10.301   1.684 -0.0789  0.0219  0.0357
 5488W        W22335   7.891  11.132   0.425 -0.2827  0.0024 -0.1087
 5489W        W22336  15.870  16.424   5.864 -0.3378 -0.2877  0.3431
 5490W        W22337   5.213   1.317   2.043 -0.1390 -0.0251 -0.3229
 5491W        W22338  17.478  13.500   0.422  0.1858 -0.1770  0.1240
 5492W        W22339   0.472  12.461   4.100 -0.0485 -0.0443  0.0931
 5493W        W22340  13.836   1.202   5.572 -0.0946 -0.0867 -0.3150
 5494W        W22341   6.736  13.474   1.565 -0.2301  0.2287 -0.2275
 5495W        W22342  16.902   2.397   4.407 -0.0620 -0.0118  0.0219
 5496W        W22343   0.701  13.215  12.668  0.2236  0.4375 -0.0870
 5497W        W22344   9.269   9.829  12.245  0.0016 -0.0958 -0.1172
 5498W        W22345  17.470   8.302  11.675 -0.2585  0.3800  0.0759
 5499W        W22346   1.209   7.050   5.142 -0.1427 -0.0002 -0.0336
 5500W        W22347  16.028  16.687  14.274  0.3542  0.3079 -0.1136
 5501W        W22348   8.617   9.709  15.015 -0.1232  0.1207  0.2899
 5502W        W22349  12.181  17.076   1.810 -0.0250  0.0597 -0.2364
 5503W        W22350   7.901   5.091  14.462 -0.2069 -0.0166 -0.0468
 5504W        W22351   4.733   7.802   4.345  0.1339  0.0092  0.1271
 5505W        W22352   4.530   9.433  15.880 -0.1606 -0.0694  0.1249
 5506W        W22353   2.600  15.509   1.980  0.0093  0.0907 -0.1682
 5507W        W22354   5.205   7.603   6.298 -0.2577 -0.0144 -0.2166
 5508W        W22355  13.289   7.398  13.930  0.2247 -0.2168 -0.1089
 5509W        W22356  10.249   5.151   1.529 -0.0551 -0.0608  0.1139
 5510W        W22357   0.409  11.040   0.544 -0.0775  0.0336 -0.0709
 5511W        W22358  14.073  11.516   0.308  0.1275  0.1340  0.2514
 5512W        W22359  10.519  10.837   1.315  0.0389  0.0790  0.0317
 5513W        W22360  16.076   1.218   0.941  0.1404 -0.1596 -0.0070
 5514W        W22361  11.104  15.870   3.023  0.0577  0.1122  0.1070
 5515W        W22362   1.091  13.987   2.086 -0.2809  0.1141 -0.1582
 5516W        W22363  14.901   9.584  12.032 -0.1595  0.0299 -0.2206
 5517W        W22364   4.704   7.488   5.146 -0.0219  0.0174  0.0942
 5518W        W22365  10.124   2.683  14.210  0.0905  0.0928 -0.2075
 5519W        W22366  14.606   8.065   2.810  0.0092  0.0212 -0.0709
 5520W        W22367   7.861  10.025   4.151 -0.0887 -0.0217  0.3194
 5521W        W22368  17.220  17.333   3.774  0.0532 -0.0720  0.1126
 5522W        W22369   4.031  12.410  13.241 -0.0235  0.0917 -0.0799
 5523W        W22370   4.946   9.120  15.805 -0.2786  0.0019 -0.4770
 5524W        W22371  11.024   5.975   0.753 -0.0956 -0.0981  0.1995
 5525W        W22372  10.645  15.619  16.039 -0.1059  0.0227 -0.0487
 5526W        W22373   9.076  14.479  14.647 -0.3134 -0.1665 -0.0025
 5527W        W22374   7.517  13.816   0.347 -0.0108  0.0697 -0.3126
 5528W        W22375  15.528   5.434  16.407  0.0156 -0.1984  0.0829
 5529W        W22376   1.336   3.680   3.131 -0.0398 -0.2602 -0.3691
 5530W        W22377  17.103   8.790   4.984 -0.0978  0.1933 -0.1220
 5531W        W22378   9.239  13.405  16.277  0.0061 -0.0136  0.1157
 5532W        W22379   5.992  13.959   2.838  0.1164  0.2380  0.1270
 5533W        W22380  17.804   2.519  12.596 -0.0488 -0.0722  0.0674
 5534W        W22381   4.209  11.899   5.106 -0.1672 -0.1830 -0.0028
 5535W        W22382  14.904   9.316  14.739  0.2422  0.0775  0.0748
 5536W        W22383  10.428   6.959  15.667  0.1695  0.0356  0.1493
 5537W        W22384   1.253   9.581   2.474  0.1405  0.3472  0.2358
 5538W        W22385   7.959   2.757   1.323  0.0539  0.0092 -0.2568
 5539W        W22386  11.211   6.357  15.807  0.0052 -0.0113  0.1467
 5540W        W22387   5.079   3.384   2.240  0.1155 -0.0048 -0.1418
 5541W        W22388  10.138  16.977  13.686  0.0268  0.2864 -0.3554
 5542W        W22389   6.731  14.522  15.805  0.2910 -0.1941 -0.0660
 5543W        W22390  14.297  16.831  15.907 -0.0367  0.0593  0.0774
 5544W        W22391  12.763  14.366   0.785 -0.2301  0.3814  0.1937
 5545W        W22392   0.589  12.910  13.563  0.3530 -0.0139  0.1385
 5546W        W22393  16.973   8.667  15.849  0.2584  0.0368 -0.1617
 5547W        W22394  13.187  16.990   4.511  0.0050  0.2153 -0.1222
 5548W        W22395   2.056   3.371   3.441 -0.1645 -0.1161  0.0172
 5549W        W22396  16.575   6.786  12.966 -0.1815  0.0149 -0.2664
 5550W        W22397  16.163  17.910   0.997  0.0929  0.1747  0.0209
 5551W        W22398  14.564   4.954  14.198 -0.0047  0.0170  0.1673
 5552W        W22399   0.228   5.047  14.317  0.4106  0.3961 -0.1348
 5553W        W22400   1.753   5.398  16.002  0.0055 -0.0052  0.2130
 5554W        W22401   1.309  10.881  14.081  0.0633  0.1069 -0.0276
 5555W        W22402   1.301   7.463  15.597  0.0824  0.0950 -0.0278
 5556W        W22403  17.914  17.668   1.906  0.2655 -0.4378  0.1735
 5557W        W22404   2.533   0.971  14.947  0.1844  0.1575 -0.0608
 5558W        W22405   7.160  15.370   4.345 -0.0900 -0.1652 -0.1381
 5559W        W22406   7.157  11.083   1.344  0.1237  0.4887  0.1160
 5560W        W22407   3.446   3.850   0.197  0.0126  0.0018  0.0712
 5561W        W22408  16.768  17.444   3.196 -0.1302  0.2321 -0.2500
 5562W        W22409   6.974  12.425  13.964  0.1498  0.0687  0.0565
 5563W        W22410   8.320   5.518  14.019  0.2128  0.1630  0.0080
 5564W        W22411  11.372  16.246   0.556 -0.2863 -0.2655 -0.1669
 5565W        W22412  14.097  13.106   0.970  0.1728  0.3775  0.4566
 5566W        W22413   3.516   8.324  14.034 -0.2517 -0.0860  0.0016
 5567W        W22414  15.201   5.382   2.107  0.1482  0.1349 -0.0291
 5568W        W22415   5.214  12.170   2.493  0.1068  0.0750 -0.1796
 5569W        W22416  14.905   3.824   2.652 -0.0325 -0.0338  0.2180
 5570W        W22417   3.710   3.975  15.011 -0.1717 -0.0161 -0.2444
 5571W        W22418   0.503   5.740   1.167  0.0948  0.0146 -0.1211
 5572W        W22419   3.892   6.311  15.153  0.0811 -0.1120 -0.0426
 5573W        W22420  15.400  13.589   0.573  0.1266 -0.0242 -0.3310
 5574W        W22421  11.677   1.078  15.048  0.0488 -0.0413  0.4133
 5575W        W22422  10.743   8.186   0.210  0.0031  0.3557  0.1080
 5576W        W22423   8.331  14.760  13.556  0.0989  0.0362 -0.3344
 5577W        W22424  10.435  15.273  12.595 -0.0162  0.0355  0.0583
 5578W        W22425   2.464   7.903  12.890  0.1745  0.4311  0.3350
 5579W        W22426   5.815   0.087  11.268 -0.1959  0.3752  0.0330
 5580W        W22427   4.499   1.686  14.274  0.0116  0.0255 -0.1488
 5581W        W22428  13.007   1.647   0.909 -0.1885 -0.1578  0.2788
 5582W        W22429   4.533   2.364  16.112 -0.0813 -0.1795  0.2743
 5583W        W22430   5.992   2.557  14.395 -0.3536 -0.1368 -0.0015
 5584W        W22431   2.780   5.208   1.654  0.0690  0.0616 -0.1483
 5585W        W22432  16.801   9.286  14.524  0.0061 -0.0283 -0.2344
 5586W        W22433   2.352   3.630  16.468 -0.3453 -0.1429 -0.1084
 5587W        W22434   9.939   6.028  15.722  0.0727  0.1389 -0.0505
 5588W        W22435   6.747   9.274  14.356  0.2029  0.0915 -0.1996
 5589W        W22436   8.398   6.700   1.737 -0.0546  0.3975 -0.0825
 5590W        W22437   4.627  14.352  14.516 -0.0638 -0.1243  0.0842
 5591W        W22438   2.115   0.709   2.145 -0.1900  0.2620  0.0455
 5592W        W22439   5.086   3.928   1.775  0.1593  0.3863 -0.2316
 5593W        W22440   7.015  16.868   0.316  0.1396  0.0712  0.0689
 5594W        W22441   5.541  16.351  13.266  0.0001  0.0072  0.0616
 5595W        W22442  15.496  13.395  13.309 -0.2011 -0.1691  0.0080
 5596W        W22443   4.439  12.302   0.765  0.2067 -0.1226 -0.1023
 5597W        W22444  12.031   6.034  13.999  0.0372  0.0114 -0.2414
 5598W        W22445   0.596  10.088  11.353  0.3303 -0.0072  0.1815
 5599W        W22446   8.125   2.465  15.424  0.1387 -0.3176  0.2806
 5600W        W22447   0.716   4.558   5.207 -0.2329  0.1275  0.0125
 5601W        W22448  10.488   1.227  16.099 -0.0092 -0.0438 -0.2475
 5602W        W22449   5.354  12.073  14.229  0.2749  0.2632 -0.1838
 5603W        W22450  10.508  15.405   4.358  0.0380 -0.1015  0.0421
 5604W        W22451  13.261   4.911   3.501  0.0962 -0.0939 -0.1493
 5605W        W22452  11.233  12.443   3.450 -0.1301 -0.1465  0.3896
 5606W        W22453   1.783   8.231   2.791 -0.2773 -0.2696  0.0601
 5607W        W22454   9.051   4.698  14.302  0.1602 -0.2024  0.3256
 5608W        W22455  11.945  14.174  15.807 -0.2900  0.0711  0.0580
 5609W        W22456   2.351   1.507  15.486  0.5490 -0.2520  0.1740
 5610W        W22457  13.284  14.604   3.494  0.1170 -0.2852 -0.0493
 5611W        W22458  11.818  10.418  13.754 -0.4642  0.0647 -0.3603
 5612W        W22459  11.933   1.048  12.920 -0.2388 -0.0919  0.2499
 5613W        W22460   1.019  17.928   1.702  0.0317  0.1546 -0.0095
 5614W        W22461   5.503   7.657  12.297  0.2083 -0.1401 -0.0495
 5615W        W22462  13.036   3.838   0.704  0.0737 -0.2101 -0.0895
 5616W        W22463   4.400  17.453  12.476 -0.0486  0.1012  0.0790
 5617W        W22464  10.022   8.302  13.654  0.0931  0.0931  0.1421
 5618W        W22465  15.239   6.077  12.660  0.2257  0.0033  0.0103
 5619W        W22466  15.246   4.885   1.792 -0.1810  0.1301 -0.1472
 5620W        W22467   5.917  16.206   0.236  0.1142 -0.2434  0.2436
 5621W        W22468   6.389   4.357   1.251 -0.1795 -0.1795  0.4756
 5622W        W22469   7.622   4.777   1.502  0.0657  0.1297 -0.0083
 5623W        W22470   2.267  17.451  14.851 -0.4534  0.3228 -0.0462
 5624W        W22471   3.349  16.577  13.883  0.0394 -0.0012 -0.3089
 5625W        W22472  11.442   5.707   0.042  0.0172  0.1783  0.2739
 5626W        W22473   8.763  17.933   3.787 -0.0217  0.1127  0.0502
 5627W        W22474  13.767  13.768   3.061 -0.4268 -0.0402  0.1200
 5628W        W22475  14.789  10.326  14.926  0.4562  0.1445 -0.0413
 5629W        W22476   6.060  16.755  11.903  0.2273 -0.0963  0.1170
 5630W        W22477  10.513   0.507  14.637 -0.0482 -0.3075  0.3019
 5631W        W22478  15.725  13.283   2.492 -0.1639 -0.0825 -0.2068
 5632W        W22479  17.737   2.316   0.098  0.0182  0.0710  0.0280
 5633W        W22480  16.341  17.749   5.278 -0.0812 -0.1049 -0.1890
 5634W        W22481   8.681  17.593   1.804 -0.1173  0.1536  0.3577
 5635W        W22482   8.513   8.995   1.033 -0.1155  0.1459  0.1320
 5636W        W22483   5.034   9.694   5.301  0.2057  0.1078  0.0900
 5637W        W22484  11.859   5.783   2.635 -0.3593  0.1179 -0.0629
 5638W        W22485  17.358  10.375  12.133 -0.2104  0.2749  0.2374
 5639W        W22486   6.902  10.465   4.358 -0.2408 -0.1949  0.2227
 5640W        W22487  14.956   9.023   3.926  0.1903 -0.0963  0.1862
 5641W        W22488   3.085   7.440   1.176 -0.1632 -0.0895 -0.1545
 5642W        W22489  10.075   3.226   0.932  0.2323 -0.1167  0.3002
 5643W        W22490  10.497   8.363  13.874 -0.0712 -0.1065 -0.1690
 5644W        W22491  13.635  10.717  12.049  0.1758  0.2220  0.1541
 5645W        W22492  11.426   8.260   4.111 -0.1011  0.0543  0.0254
 5646W        W22493   9.451  12.435  13.094 -0.1147  0.0017  0.1173
 5647W        W22494   5.608   2.559   0.063 -0.0528  0.1235  0.1830
 5648W        W22495  14.212   7.376  14.365 -0.1139 -0.0051  0.0253
 5649W        W22496   4.094   8.301   2.611  0.3660 -0.0165 -0.0480
 5650W        W22497  17.375  17.368  15.006 -0.4426 -0.3412  0.1128
 5651W        W22498  12.934   8.134   0.925  0.1115  0.0428  0.1600
 5652W        W22499   4.711  13.666   0.817 -0.0870 -0.3516  0.0530
 5653W        W22500   9.000  11.159  11.550 -0.2433 -0.1457 -0.4743
 5654W        W22501   8.530  12.498   2.901  0.2926  0.2324 -0.1249
 5655W        W22502  10.480   1.229  12.544 -0.0527  0.2135 -0.1016
 5656W        W22503   1.134   0.664   4.703  0.3474 -0.1572  0.0003
 5657W        W22504  13.387   8.739  12.125  0.3930  0.0861  0.0148
 5658W        W22505   0.095  15.306   2.688  0.1945 -0.0351  0.1510
 5659W        W22506   3.517   9.868  12.448  0.1998 -0.2375  0.1701
 5660W        W22507   9.070   1.681   3.174  0.0603  0.2258 -0.0431
 5661W        W22508  16.905  13.781  13.166  0.0495 -0.2189 -0.0471
 5662W        W22509  12.885  11.559  12.332  0.4049 -0.0925  0.2281
 5663W        W22510  10.579  14.422   2.237 -0.0112 -0.0503 -0.1716
 5664W        W22511  15.115   7.990   4.510  0.3406 -0.0639  0.0987
 5665W        W22512   5.841   5.310   2.754 -0.0482  0.1422  0.0931
 5666W        W22513   1.300  10.663   5.155 -0.0709  0.1418  0.0256
 5667W        W22514   2.016   6.249   5.554  0.3514 -0.0314  0.3215
 5668W        W22515  14.514   3.170  12.612  0.0374 -0.2151  0.1922
 5669W        W22516   5.076   7.286  16.040  0.0428  0.1241 -0.0290
 5670W        W22517   8.999  13.176  13.170  0.2432 -0.0294 -0.1505
 5671W        W22518   8.179   3.655  14.314 -0.0901  0.2239 -0.0596
 5672W        W22519  13.340   7.549  14.912  0.0402 -0.0229  0.0499
 5673W        W22520  14.813   1.224   4.041 -0.0274 -0.0023  0.0365
 5674W        W22521   2.544   3.028   2.635 -0.2918 -0.1346 -0.0668
 5675W        W22522  12.866  13.625   5.249 -0.0063 -0.0073  0.0727
 5676W        W22523   2.472   4.369   0.189  0.0014  0.3725  0.2022
 5677W        W22524   0.327   2.832   4.561 -0.0476 -0.0032  0.0728
 5678W        W22525  16.638   8.090   3.695 -0.2037 -0.2074  0.1764
 5679W        W22526   2.540   1.687   3.101  0.1924  0.0145  0.0148
 5680W        W22527   0.451   9.574   3.623 -0.1706  0.1262  0.0751
 5681W        W22528   8.465   3.001  11.295  0.0552 -0.0633  0.0031
 5682W        W22529   1.698   8.692  14.873 -0.0017  0.0617  0.0886
 5683W        W22530  13.063  11.144  13.300 -0.1603  0.1436 -0.2469
 5684W        W22531   2.397   7.939   5.698  0.0861  0.1325 -0.0806
 5685W        W22532  12.205   7.172   4.784  0.2979 -0.0407 -0.1701
 5686W        W22533   0.516   0.709   3.790 -0.0218 -0.0118  0.0787
 5687W        W22534  14.206  16.898  13.336  0.1569  0.1987  0.0584
 5688W        W22535  17.637  11.465  12.739  0.4868  0.0611  0.2656
 5689W        W22536   5.849  15.873  13.112  0.1249 -0.2415 -0.0189
 5690W        W22537   4.944   0.525  13.709 -0.0308  0.0871  0.1232
 5691W        W22538  15.494   0.266   5.077 -0.1616  0.1083  0.0402
 5692W        W22539   6.638  16.169   4.291 -0.2376  0.4494 -0.0691
 5693W        W22540   9.138  12.283   5.201  0.0875 -0.0278 -0.1175
 5694W        W22541   1.766   9.419  12.637 -0.1208 -0.4292  0.1052
 5695W        W22542  11.676   8.711   2.767 -0.3767 -0.2339  0.3302
 5696W        W22543  11.350   0.042  12.559 -0.0182 -0.1512 -0.1160
 5697W        W22544  15.534   8.294   2.275  0.2791  0.0621  0.0231
 5698W        W22545  10.974  13.040  15.963 -0.1083  0.2599  0.1667
 5699W        W22546   8.847   8.156   5.416 -0.0282  0.2691  0.2084
 5700W        W22547  10.999   8.015  13.659 -0.1444  0.0031 -0.1504
 5701W        W22548   7.677   4.705  14.749  0.2712 -0.0864  0.1685
 5702W        W22549  16.062   5.886   0.401 -0.1304  0.0370 -0.1490
 5703W        W22550   7.307   6.461   5.121  0.0312 -0.2002 -0.2028
 5704W        W22551  15.379  16.533   4.155  0.2337  0.0182  0.1353
 5705W        W22552  12.031   4.544   4.829  0.0399  0.1771 -0.1759
 5706W        W22553   7.946   9.009   5.487  0.0143 -0.1196  0.3078
 5707W        W22554  11.864   0.465   0.078  0.1596 -0.0653  0.1644
 5708W        W22555   7.037   8.234   6.002 -0.0392  0.1813  0.4653
 5709W        W22556  12.493   6.473   5.126  0.1821 -0.0941 -0.1408
 5710W        W22557   8.030  17.520  14.295 -0.4556  0.0165 -0.0276
 5711W        W22558   2.458   4.642  13.915 -0.2184  0.0269  0.3499
 5712W        W22559  15.413  15.696   4.399  0.0105 -0.0734 -0.0226
 5713W        W22560  10.145  12.869   1.253 -0.3759  0.0101 -0.1591
 5714W        W22561  15.390  15.784   0.230  0.1076  0.1847  0.1468
 5715W        W22562   0.779  11.347  13.198 -0.2638  0.1946 -0.0030
 5716W        W22563  13.089  15.314  15.702 -0.0631 -0.2735  0.1440
 5717W        W22564  12.826   9.604   0.550  0.0910 -0.2032  0.1047
 5718W        W22565   7.347  11.730   4.681 -0.0016 -0.1410  0.0504
 5719W        W22566   9.766   8.780  13.719 -0.1821 -0.0027 -0.1765
 5720W        W22567   9.003   9.124   0.721 -0.3404  0.2541 -0.1257
 5721W        W22568  11.495   8.074   1.419  0.0947  0.4608  0.0174
 5722W        W22569   9.806   5.797  13.543 -0.2991 -0.1655  0.0986
 5723W        W22570  11.894  10.225  12.321 -0.2435  0.0061 -0.1789
 5724W        W22571  17.634   2.243  16.382 -0.4513  0.2234  0.0632
 5725W        W22572  17.374   1.112  14.148 -0.0153  0.0797  0.1142
 5726W        W22573   6.696   8.426   1.449  0.1835  0.0897 -0.1804
 5727W        W22574   9.983  13.802  13.300 -0.3638 -0.1387 -0.0312
 5728W        W22575   7.565   2.003  16.031  0.0266  0.0561  0.0019
 5729W        W22576   5.965   4.406  14.264 -0.0019 -0.0499  0.1958
 5730W        W22577   8.177   0.743   0.393  0.0763 -0.3050  0.1186
 5731W        W22578   9.280  13.344   4.985 -0.2655 -0.0292 -0.1804
 5732W        W22579   5.171   8.277   1.667 -0.1059  0.0431  0.2509
 5733W        W22580  16.755   2.522  16.431 -0.0644  0.2488 -0.0737
 5734W        W22581   1.122  12.250   3.378 -0.1152 -0.0166  0.0597
 5735W        W22582   5.374  12.334   0.900 -0.1030 -0.0273 -0.1464
 5736W        W22583  14.675   1.451   1.229 -0.0513  0.0620  0.1691
 5737W        W22584   0.720  10.250  15.331  0.0186  0.0256 -0.1572
 5738W        W22585   6.226   6.420   4.292 -0.3396 -0.0616 -0.0522
 5739W        W22586   0.612  12.407   0.734  0.1372  0.1677  0.2149
 5740W        W22587   2.803   9.806   4.487 -0.2281  0.2699 -0.1892
 5741W        W22588   7.125   6.170  16.278  0.1712  0.1324  0.2738
 5742W        W22589  12.636  10.855   3.670  0.0614 -0.0230 -0.2689
 5743W        W22590   5.448   7.379   3.873  0.1112  0.0594 -0.0591
 5744W        W22591  14.761  11.362   5.514 -0.2121 -0.2048  0.0470
 5745W        W22592   2.466   4.717  16.589 -0.1621  0.2507 -0.3437
 5746W        W22593   7.736   1.440   5.910 -0.4203  0.1329 -0.0444
 5747W        W22594   4.023  11.066   5.594  0.0850 -0.0390  0.0890
 5748W        W22595  10.665  12.636  16.058 -0.1725 -0.0445 -0.1231
 5749W        W22596  12.247  17.010   5.789 -0.0797 -0.0950 -0.2449
 5750W        W22597   4.580   5.254   4.496  0.2626 -0.1468  0.0611
 5751W        W22598   7.545   9.917  14.493 -0.2553 -0.0566  0.0771
 5752W        W22599   2.624  11.727  14.264 -0.0623 -0.0571  0.1427
 5753W        W22600  11.128   4.277  12.072 -0.0935 -0.1986 -0.3601
 5754W        W22601  14.364  13.698   1.529  0.1491 -0.0172  0.1304
 5755W        W22602  13.057  11.407   4.601 -0.2648  0.0131 -0.0917
 5756W        W22603  10.374  17.573   2.605 -0.1741 -0.1708  0.2299
 5757W        W22604  17.807  15.199   0.603  0.0457 -0.0186  0.0269
 5758W        W22605   2.649  16.277  11.971 -0.1960 -0.1416 -0.1394
 5759W        W22606  16.487   8.765  11.912 -0.2409 -0.0312 -0.4485
 5760W        W22607   8.205  10.411  16.713  0.0695 -0.0281  0.1489
 5761W        W22608   2.017   8.384   1.220 -0.2333 -0.0720 -0.1902
 5762W        W22609  11.989  12.855   4.805  0.2565 -0.5424 -0.2687
 5763W        W22610  17.821  12.158   1.883 -0.0275  0.2130 -0.2436
 5764W        W22611  17.480   3.441   2.679 -0.0365  0.1724  0.1868
 5765W        W22612  13.134   9.650  13.902 -0.1718 -0.2010  0.1897
 5766W        W22613   7.586  13.701   4.297 -0.1073 -0.0872  0.1204
 5767W        W22614  11.716   5.376  16.201  0.1972 -0.0175  0.1666
 5768W        W22615   6.723   2.143  11.525 -0.2040  0.2411  0.3047
 5769W        W22616  15.425   9.809   0.126  0.0727 -0.0082 -0.0810
 5770W        W22617   1.967   4.621  13.794  0.2061 -0.3105  0.1208
 5771W        W22618  10.975  13.687  16.487 -0.1773  0.1905  0.1926
 5772W        W22619  16.687   3.027  11.861 -0.0216 -0.3313  0.0177
 5773W        W22620   6.265  14.796  15.652  0.1924 -0.4334 -0.1411
 5774W        W22621  11.620  13.312  12.600 -0.0493  0.0877 -0.0349
 5775W        W22622   0.978   5.556  11.686  0.1138  0.0659 -0.3416
 5776W        W22623   4.167   1.185   0.220 -0.0193 -0.1209 -0.0636
 5777W        W22624  15.294  15.857   6.273  0.0581  0.2867 -0.1452
 5778W        W22625   3.579  13.276  16.028  0.0914  0.0499  0.2318
 5779W        W22626   4.839   0.518   1.467  0.0283 -0.0168 -0.0142
 5780W        W22627  12.242   0.043  13.930 -0.2440 -0.0311 -0.1935
 5781W        W22628   3.041   2.528   3.846  0.2422  0.1252  0.3065
 5782W        W22629   1.741  13.713  16.545  0.2195 -0.0926  0.3572
 5783W        W22630  14.343   5.433   1.758  0.3849 -0.0394  0.1626
 5784W        W22631   9.544  11.885  13.079  0.0556 -0.1576 -0.4338
 5785W        W22632  12.122  13.159  12.768  0.1576 -0.3655  0.0614
 5786W        W22633  13.293  13.629  15.126  0.1059  0.1383 -0.3119
 5787W        W22634  14.402   8.000  12.236 -0.0709 -0.0789  0.1110
 5788W        W22635   2.108  15.262   4.495 -0.2265  0.2633  0.0841
 5789W        W22636   7.958   0.297  15.675 -0.0685  0.0974  0.2314
 5790W        W22637  17.378  12.972   2.811  0.3219 -0.1601  0.4477
 5791W        W22638   8.086   1.844  13.622  0.2424 -0.1345 -0.1923
 5792W        W22639   8.265   8.105  12.437 -0.1979 -0.1438  0.2289
 5793W        W22640   2.615  13.108  15.631  0.1230  0.2046 -0.0779
 5794W        W22641  16.256   7.469  13.359  0.4298 -0.1554  0.2293
 5795W        W22642  13.366  15.930  13.147 -0.1323 -0.2751  0.3336
 5796W        W22643  14.353  11.571  13.538 -0.0236 -0.1068 -0.0974
 5797W        W22644   1.452   1.708   2.797 -0.0551  0.1105 -0.1150
 5798W        W22645   3.613   6.599  16.517 -0.0586 -0.0394  0.2115
 5799W        W22646  11.092  13.910  14.296 -0.2228 -0.0590  0.0353
 5800W        W22647  14.986   5.796  11.680 -0.2205  0.2492 -0.5305
 5801W        W22648  12.585  13.669  12.185 -0.0058 -0.1571 -0.1023
 5802W        W22649  13.790  17.182   3.984 -0.1144 -0.1369 -0.2390
 5803W        W22650   3.088  13.954   1.576 -0.0048  0.2329 -0.3314
 5804W        W22651  12.352   5.822  13.248 -0.1737  0.2609  0.0837
 5805W        W22652  13.496  12.952  11.634 -0.0743 -0.0640 -0.1862
 5806W        W22653  15.551  11.283   1.188 -0.2190  0.1539  0.1165
 5807W        W22654  11.080   5.674   4.917 -0.2059  0.0678  0.1249
 5808W        W22655   2.601   6.734  12.203  0.0808 -0.2091 -0.0661
 5809W        W22656  12.379   2.640  15.706 -0.1462 -0.3788 -0.0929
 5810W        W22657   9.254   7.995   0.796  0.0311  0.0437  0.0063
 5811W        W22658  12.618  10.958   1.370  0.1143  0.1640 -0.0059
 5812W        W22659  11.981  15.108   0.497 -0.1263  0.0787 -0.0171
 5813W        W22660   3.182   8.539  15.871  0.2814 -0.2375 -0.1002
 5814W        W22661   5.202   5.989   4.826  0.2487  0.0463 -0.0530
 5815W        W22662   2.563  15.853  13.447  0.2173 -0.1261 -0.0335
 5816W        W22663   3.384   6.378   3.875 -0.0049 -0.0943  0.0637
 5817W        W22664   6.931   5.032  12.273 -0.3677 -0.0523  0.3152
 5818W        W22665   6.128  17.666   5.319 -0.1434 -0.0802  0.0962
 5819W        W22666   4.237   7.761  13.666  0.2496  0.2513 -0.1745
 5820W        W22667   0.650  17.092  15.579 -0.2235  0.3052 -0.1230
 5821W        W22668  11.003   9.612   0.464  0.2138  0.1470 -0.2202
 5822W        W22669   8.093  13.653   4.027  0.0122  0.0983 -0.4656
 5823W        W22670  14.591   4.405   3.835 -0.0397  0.1290 -0.0365
 5824W        W22671  17.582   6.789   3.365  0.2007  0.1122 -0.1563
 5825W        W22672   9.636   1.930  13.541 -0.1813  0.0084 -0.0847
 5826W        W22673   4.572   6.975  11.672  0.1273 -0.0861  0.0871
 5827W        W22674  11.842   6.777   4.073  0.5093  0.0966  0.0952
 5828W        W22675   8.463   6.949  14.926  0.0517 -0.0820 -0.1303
 5829W        W22676   8.447   4.495  15.251  0.1869  0.2284  0.1051
 5830W        W22677  12.034  15.830  13.784 -0.2473  0.2154  0.1522
 5831W        W22678   2.059   2.788  11.798 -0.1223 -0.0422  0.0574
 5832W        W22679   1.612  15.818  15.587  0.2653  0.0726 -0.2026
 5833W        W22680   5.285  16.793  11.394  0.1312 -0.3364  0.0689
 5834W        W22681   4.600  12.360   1.318  0.0655  0.0120  0.2104
 5835W        W22682  13.848   6.151   1.866 -0.0993 -0.1482 -0.0025
 5836W        W22683   7.032   1.253   5.446 -0.0070 -0.1392  0.1716
 5837W        W22684   5.669   2.139   0.333 -0.0258  0.4011 -0.1293
 5838W        W22685  14.949   3.821  14.843 -0.1493 -0.1304 -0.0148
 5839W        W22686   5.899   7.830   1.310  0.2627 -0.0586 -0.2933
 5840W        W22687   6.259  13.658  12.931 -0.0598 -0.0016  0.1306
 5841W        W22688  13.161   2.612   5.862  0.0464  0.0999  0.0549
 5842W        W22689   0.797  14.924   2.129 -0.1433 -0.3644  0.2317
 5843W        W22690  15.481   7.522  11.366  0.2437 -0.1379  0.0043
 5844W        W22691  12.115   2.337   0.414 -0.0667 -0.1697 -0.1117
 5845W        W22692  10.598  12.319  15.660  0.2509  0.1362  0.2521
 5846W        W22693  17.129  12.190  12.251 -0.1882  0.3131  0.0594
 5847W        W22694  12.134  11.199   4.942  0.2355 -0.2694  0.0124
 5848W        W22695  12.324   6.961   3.876 -0.0152  0.0222  0.1030
 5849W        W22696   2.740  10.463   0.372 -0.2114 -0.1920  0.0181
 5850W        W22697   7.664   8.001  13.860 -0.0865 -0.0608  0.0858
 5851W        W22698   8.025  13.553  16.299  0.1708  0.0580 -0.0995
 5852W        W22699  10.799   0.671   4.601  0.1791  0.1304 -0.2417
 5853W        W22700   4.442   0.322   3.219 -0.0996  0.0461  0.0948
 5854W        W22701   4.515  15.370  13.332 -0.4224 -0.0848  0.2495
 5855W        W22702  12.406   8.992   5.173  0.0358  0.0569  0.1704
 5856W        W22703  14.934  16.201   0.733  0.0392 -0.2753 -0.0899
 5857W        W22704  14.753   0.188   3.174  0.0644 -0.2282  0.1581
 5858W        W22705  13.078  15.688  13.577 -0.5095  0.0098  0.3174
 5859W        W22706   7.947   8.115  13.415 -0.2010 -0.2552  0.1672
 5860W        W22707  11.756   9.771  12.591 -0.2082 -0.2090 -0.1755
 5861W        W22708   6.245   8.246   5.503 -0.0004 -0.0469 -0.0576
 5862W        W22709  17.604  13.263  14.794  0.0290 -0.0928  0.3316
 5863W        W22710  14.100   1.192  12.482  0.1256  0.0842  0.2714
 5864W        W22711  12.565   8.462  14.092  0.0328  0.0349 -0.2730
 5865W        W22712  13.188   4.516  12.197 -0.0430 -0.2457  0.0478
 5866W        W22713  14.511  16.903  12.890  0.2923 -0.2214 -0.0323
 5867W        W22714   0.698   0.766  16.105 -0.2073 -0.3093 -0.1215
 5868W        W22715  17.656   6.455   0.930  0.0019 -0.0980  0.0956
 5869W        W22716   2.531  15.470  13.077  0.1989  0.1039  0.0800
 5870W        W22717  11.276  15.059  13.655  0.1704  0.1213 -0.1735
 5871W        W22718   1.475  13.478  14.542  0.2567  0.1875 -0.1325
 5872W        W22719  16.951  11.091   1.965 -0.0117  0.1150 -0.1194
 5873W        W22720  17.635  11.368   0.911  0.0778  0.0240 -0.1200
 5874W        W22721  14.383   0.670   1.574 -0.0832  0.0020 -0.1642
 5875W        W22722  12.699  17.751   1.202 -0.3582 -0.1397 -0.2006
 5876W        W22723  13.458  12.703   6.167 -0.3059 -0.1519  0.0032
 5877W        W22724   9.036  16.978   3.400  0.0095  0.0176  0.2803
 5878W        W22725   1.825  14.732  16.395 -0.0186  0.1793  0.1327
 5879W        W22726   3.245  15.631  14.207  0.2781 -0.1984  0.0346
 5880W        W22727   0.946  13.013  13.888  0.2009 -0.0650  0.0898
 5881W        W22728   4.556  10.887  14.118 -0.2088 -0.0698 -0.0658
 5882W        W22729  11.227   2.794   3.913 -0.0381  0.1070 -0.1674
 5883W        W22730  11.286  15.130  12.011  0.0581  0.1699  0.0453
 5884W        W22731  17.720   2.156  15.111  0.2543  0.2203 -0.1503
 5885W        W22732  10.940   2.889   0.930  0.5012  0.1683  0.1696
 5886W        W22733  11.281   7.646  13.878 -0.0923 -0.3034  0.1153
 5887W        W22734   8.843  13.079  16.444 -0.0703 -0.1395 -0.1706
 5888W        W22735  16.002   5.892   6.218 -0.2571 -0.0597  0.1462
 5889W        W22736  10.800  15.741   5.479  0.4287  0.1157 -0.3741
 5890W        W22737   9.749   9.699  11.546  0.0303  0.0969  0.0658
 5891W        W22738   3.532   6.663  16.045 -0.0837  0.4241 -0.2478
 5892W        W22739   0.351  17.076  13.340  0.0930  0.3573  0.0500
 5893W        W22740  11.860   8.449  12.283  0.1178  0.1369  0.1715
 5894W        W22741  15.887   3.237   1.304  0.0419 -0.1144  0.1603
 5895W        W22742   8.835  15.653   3.925  0.3552  0.0121 -0.1692
 5896W        W22743   4.584   9.469   3.905 -0.0438 -0.0539 -0.2386
 5897W        W22744  14.141   5.358   0.767  0.1005  0.1901  0.1115
 5898W        W22745  15.677   3.105   0.846 -0.1340  0.0729 -0.1167
 5899W        W22746   7.699   6.651  14.709  0.2616 -0.1964  0.0646
 5900W        W22747  17.315   0.590  14.249  0.0446 -0.1606  0.1908
 5901W        W22748   2.455   1.368   5.667 -0.0106  0.0720  0.0340
 5902W        W22749  16.663  12.628   3.602 -0.1649 -0.0933  0.0368
 5903W        W22750  17.780   9.395   2.220 -0.2744  0.1320  0.3213
 5904W        W22751  10.450  14.441  15.984 -0.1613 -0.0158 -0.2916
 5905W        W22752   1.642  10.472   2.542  0.0943  0.0718 -0.2424
 5906W        W22753  11.294   7.868   0.015 -0.0766 -0.0988 -0.0758
 5907W        W22754  10.884   6.723   4.763  0.0416 -0.3560  0.0167
 5908W        W22755   0.980  16.347   2.489 -0.1726  0.1037  0.1752
 5909W        W22756   4.597  10.370   0.634 -0.0265 -0.0610 -0.4241
 5910W        W22757   1.649   4.657  14.259 -0.0814  0.2655 -0.0127
 5911W        W22758   8.534  13.508   0.348 -0.2225 -0.1957  0.2485
 5912W        W22759  12.421   9.120   4.241  0.0637 -0.2652  0.0055
 5913W        W22760  15.661   6.015   1.737  0.1155  0.0015 -0.3506
 5914W        W22761  17.217  16.674   0.068 -0.3485  0.0856  0.2230
 5915W        W22762  16.340  10.190   4.659 -0.3425  0.3222  0.1195
 5916W        W22763  12.647   6.992  12.644  0.4978 -0.2644 -0.1113
 5917W        W22764  17.256   3.273   3.496 -0.0766  0.0815 -0.0006
 5918W        W22765   2.186  14.931   3.121 -0.1812  0.2086  0.1868
 5919W        W22766   8.302   0.792  12.520  0.0445 -0.1983 -0.1177
 5920W        W22767  15.777   0.844  11.976  0.1950 -0.0004 -0.1516
 5921W        W22768   9.803   9.378   0.603 -0.1953  0.2333 -0.1158
 5922W        W22769   4.759  10.471  13.821  0.1639  0.0682 -0.1517
 5923W        W22770   4.442   7.724   3.691  0.0166 -0.1808 -0.0590
 5924W        W22771   9.722   8.904  14.879  0.2298 -0.0771  0.1302
 5925W        W22772   8.465  15.599  12.272  0.1061  0.0596  0.1332
 5926W        W22773   9.639  16.884  15.515  0.0309  0.3348  0.1606
 5927W        W22774   4.256  14.562   0.391 -0.0803  0.1402  0.0275
 5928W        W22775  12.792  16.961   1.038 -0.0217  0.1430  0.2515
 5929W        W22776  13.425  12.031  13.739  0.1485 -0.1952 -0.0368
 5930W        W22777   7.122  13.776  12.091 -0.2306 -0.1716 -0.0571
 5931W        W22778   6.386   3.169  11.620 -0.0804 -0.0893 -0.2188
 5932W        W22779  15.495  17.494  13.080 -0.1166 -0.0051 -0.1452
 5933W        W22780  11.166  10.217  13.317 -0.3987  0.4133  0.2811
 5934W        W22781   3.283  12.020   5.390 -0.1165 -0.2604  0.4348
 5935W        W22782   2.597   1.993   5.962  0.0920  0.0589 -0.1864
 5936W        W22783  16.995   6.653  14.733  0.0993  0.2340  0.0132
 5937W        W22784   8.153  11.269  12.564  0.2013 -0.2096 -0.0178
 5938W        W22785   4.681   1.937  11.824 -0.1117 -0.3515  0.1846
 5939W        W22786   9.061  11.462  16.470  0.5250 -0.2628  0.1921
 5940W        W22787  14.012  13.283   1.450 -0.0700 -0.1084 -0.1808
 5941W        W22788   2.630   9.509   3.101  0.1500 -0.4390 -0.0136
 5942W        W22789   9.491   3.927  16.016  0.0449 -0.2679 -0.1660
 5943W        W22790  13.507  10.270  15.323 -0.0706  0.0248  0.4010
 5944W        W22791  11.192  14.762  15.073  0.0453 -0.2651 -0.3106
 5945W        W22792   3.760  12.339   2.146 -0.2767  0.1917  0.1128
 5946W        W22793   0.829  17.371   2.903 -0.0096  0.1380 -0.0504
 5947W        W22794  15.666  15.457  15.763  0.2299 -0.0025 -0.3640
 5948W        W22795   7.819   4.919   4.527 -0.0944 -0.0217 -0.1597
 5949W        W22796  15.178   0.385  13.616 -0.0950 -0.2663  0.2677
 5950W        W22797   8.994   0.272  11.562 -0.0916  0.5920  0.1593
 5951W        W22798   9.588  15.918   2.055 -0.0196 -0.0568 -0.1201
 5952W        W22799   0.303  13.237   5.613 -0.0881  0.2468 -0.1886
 5953W        W22800  16.075  14.712   0.564  0.4751 -0.2242  0.1421
 5954W        W22801  17.655   1.182   5.951 -0.3216 -0.0038 -0.1090
 5955W        W22802  14.105   0.069  12.667 -0.1496 -0.4910  0.0759
 5956W        W22803   9.538   0.735   1.355 -0.1203 -0.0976  0.2218
 5957W        W22804  14.455  12.188   5.522 -0.1638  0.2235  0.1854
 5958W        W22805  14.491  10.007   3.626 -0.2043  0.0143  0.0933
 5959W        W22806  16.809  10.555   3.696 -0.0247  0.1101  0.0504
 5960W        W22807   5.881   1.928   2.248 -0.0267  0.0878  0.0158
 5961W        W22808  17.088   2.338   3.920  0.0667  0.2281 -0.0421
 5962W        W22809  16.094   1.826  16.578  0.2093  0.0911 -0.2884
 5963W        W22810  14.371   3.459   1.294 -0.0105 -0.0954 -0.0269
 5964W        W22811   2.986  17.931   1.105  0.1718 -0.1163  0.0764
 5965W        W22812  16.823   8.885  14.888  0.1081  0.1401  0.3352
 5966W        W22813   2.630   2.602   0.351 -0.1216  0.1795 -0.1057
 5967W        W22814   3.957   7.067   0.828 -0.0930  0.1856  0.0515
 5968W        W22815  11.695   8.268   1.976  0.2941  0.0847  0.2745
 5969W        W22816  16.266  15.413   2.012 -0.3156 -0.2530 -0.3124
 5970W        W22817   4.370  10.426   1.075  0.1706 -0.2436 -0.0897
 5971W        W22818   9.304   8.723  11.679  0.1532  0.2242  0.1695
 5972W        W22819  12.209   6.468  14.443 -0.0999 -0.1256  0.1034
 5973W        W22820  16.481  10.498  11.713 -0.2395  0.1554 -0.0579
 5974W        W22821   0.323   4.792  13.901  0.1408  0.0312 -0.0027
 5975W        W22822   3.149  10.305  16.280 -0.2338  0.1830 -0.0155
 5976W        W22823  10.561   3.809   1.956 -0.0549  0.2471 -0.6043
 5977W        W22824  17.935   6.205   4.761  0.1273  0.1380  0.1177
 5978W        W22825  14.384  12.883  12.335 -0.1328  0.0555 -0.2147
 5979W        W22826   9.655   2.082  12.383 -0.1087  0.2327 -0.0744
 5980W        W22827  13.300  17.195  13.503 -0.0975  0.0266 -0.1638
 5981W        W22828   6.313   2.170  14.914 -0.0775 -0.1867 -0.0356
 5982W        W22829  11.779  15.352   4.241 -0.0391 -0.2124 -0.1058
 5983W        W22830   6.168  12.475   2.341  0.0733  0.0104 -0.3986
 5984W        W22831  15.264  17.553  12.606 -0.1108  0.1297  0.0379
 5985W        W22832   2.334  14.244  15.605 -0.2794 -0.1195 -0.0560
 5986W        W22833   2.826   9.781   1.161  0.2045 -0.1951 -0.0705
 5987W        W22834  16.318  13.756   1.372 -0.0189 -0.0321  0.1308
 5988W        W22835   6.009  12.634  12.718 -0.0276 -0.1887  0.1648
 5989W        W22836  14.369   8.017  15.367  0.2067 -0.1615  0.2664
 5990W        W22837  11.151  13.504  15.204 -0.0994  0.2139  0.0411
 5991W        W22838   7.678   2.681   0.321  0.2489 -0.2255  0.2275
 5992W        W22839   7.693   8.909  13.887  0.5149 -0.1077  0.1854
 5993W        W22840   0.020  13.396   2.023  0.0264 -0.1191 -0.1206
 5994W        W22841  16.983   4.337   4.139  0.0719  0.1061 -0.1918
 5995W        W22842   9.694   5.885   1.780 -0.0165  0.1379  0.0364
 5996W        W22843   2.369  17.609  15.290  0.0107 -0.1124 -0.0541
 5997W        W22844  17.733  14.933   2.992 -0.2114  0.0156  0.2518
 5998W        W22845   2.520  13.516   3.211  0.1690  0.1279 -0.1353
 5999W        W22846   9.936   9.385   3.652  0.1072 -0.0943 -0.2673
 6000W        W22847  15.894  13.179   3.604  0.1452  0.1599  0.1739
 6001W        W22848  17.848  13.245   4.118 -0.0038 -0.0726 -0.0822
 6002W        W22849   5.065   9.266  11.981 -0.0774 -0.0094 -0.0482
 6003W        W22850  13.636   8.437  12.877 -0.5436 -0.2384  0.0244
 6004W        W22851   6.030  13.428  15.148  0.2522 -0.0824  0.0190
 6005W        W22852  17.565   4.255   1.999  0.2758 -0.0483 -0.1774
 6006W        W22853   3.820   3.098   3.340  0.0048  0.0158 -0.0040
 6007W        W22854   9.026   6.105   0.593  0.0144  0.1422  0.1323
 6008W        W22855  17.059  11.725  16.433 -0.0632  0.0089  0.2760
 6009W        W22856   8.337  16.058   5.139 -0.1854 -0.0577 -0.2702
 6010W        W22857   5.163  15.160  14.525 -0.0474 -0.0297  0.0520
 6011W        W22858  12.732   2.949  16.378  0.1112  0.0543 -0.0703
 6012W        W22859  13.587   9.715   1.739  0.0954  0.3352 -0.1729
 6013W        W22860   5.412  12.891   1.357  0.0849  0.2577 -0.2239
 6014W        W22861   8.639   8.518   2.122 -0.1318 -0.1681  0.0217
 6015W        W22862  11.250   1.819   0.588  0.1235  0.2082  0.1362
 6016W        W22863  15.350  13.278   4.391  0.2498  0.0926 -0.1358
 6017W        W22864   3.211   5.007  14.310  0.1191 -0.0160  0.1862
 6018W        W22865   5.075  17.576  13.882  0.1487  0.1880 -0.2015
 6019W        W22866  17.892  16.053   0.349 -0.0513 -0.0570 -0.0303
 6020W        W22867   9.827  15.091   3.146  0.2036  0.1394 -0.3457
 6021W        W22868   8.383  11.021   4.752 -0.1130  0.1707 -0.1234
 6022W        W22869  11.356  17.343   1.689  0.0297  0.1067 -0.1071
 6023W        W22870   0.579  11.388   4.250  0.1990  0.0103 -0.0223
 6024W        W22871   5.929  15.642   6.010  0.0558 -0.1127 -0.0492
 6025W        W22872   6.508  15.119  14.136 -0.1722 -0.3659  0.1079
 6026W        W22873   9.280   5.989  16.631  0.1011  0.0834  0.1626
 6027W        W22874  16.917   4.644   4.555 -0.1815 -0.2792 -0.1146
 6028W        W22875   4.875   7.022   5.480 -0.3104  0.2811 -0.1038
 6029W        W22876   2.211   1.082  15.305  0.2354 -0.1020 -0.1454
 6030W        W22877   2.400   8.933   3.014 -0.0521 -0.1826 -0.2289
 6031W        W22878  13.206  14.443  11.881 -0.0638 -0.0973  0.4969
 6032W        W22879  14.198   5.006   5.623  0.0324  0.0415  0.1178
 6033W        W22880  17.528  16.031   1.216 -0.1278  0.1785 -0.1194
 6034W        W22881  12.791   1.644   2.971 -0.0650  0.2398 -0.3877
 6035W        W22882  16.399  11.685  15.414  0.0122 -0.0810  0.1054
 6036W        W22883  12.549  13.495   3.815  0.1155  0.1889  0.3022
 6037W        W22884  15.044   7.626  16.147  0.0469  0.1344  0.2912
 6038W        W22885   6.222  13.473   5.563  0.1884 -0.0118 -0.1920
 6039W        W22886   4.895  13.020   2.607  0.2528 -0.0402 -0.3864
 6040W        W22887  13.204   1.303  13.418 -0.1318  0.2720 -0.1550
 6041W        W22888   5.000   7.408   0.858 -0.1705 -0.0980 -0.0314
 6042W        W22889  10.634  13.908  14.434  0.1784 -0.1539  0.3646
 6043W        W22890  10.678  10.305  11.799 -0.0344 -0.1986 -0.0329
 6044W        W22891  17.347  17.067  13.297 -0.0310  0.0416 -0.0033
 6045W        W22892   8.065   1.048  15.113  0.1348 -0.1831 -0.0825
 6046W        W22893  13.584  11.588  14.033 -0.0592 -0.3352 -0.2229
 6047W        W22894  11.471  16.786   2.585 -0.3214  0.0205  0.0083
 6048W        W22895   5.153  13.264  13.601 -0.0624 -0.0975  0.0305
 6049W        W22896   4.733   2.442  15.131 -0.0759 -0.1109 -0.1992
 6050W        W22897   4.254   6.616   0.579 -0.0714  0.0373 -0.0542
 6051W        W22898   9.888   9.478   1.792  0.0093 -0.0679  0.3377
 6052W        W22899   4.896   5.964  13.556 -0.2821  0.1419 -0.1246
 6053W        W22900   0.990   9.164   2.217 -0.3018 -0.1479 -0.4327
 6054W        W22901   5.111   5.600  12.481  0.0587 -0.0899  0.1470
 6055W        W22902   0.523  15.672   2.563 -0.0892  0.0093 -0.1595
 6056W        W22903   9.307  12.066   0.666 -0.2601 -0.0374  0.2946
 6057W        W22904  12.483   3.303  14.038 -0.1635  0.0512 -0.1141
 6058W        W22905  14.341   9.741  11.740 -0.2378  0.0225  0.4094
 6059W        W22906  12.914  16.232  12.136 -0.0602 -0.0648  0.0299
 6060W        W22907   5.399   8.051   3.162 -0.1843 -0.0475 -0.0963
 6061W        W22908   6.051  15.051   0.948 -0.1317 -0.0509 -0.0942
 6062W        W22909   3.036   7.569   1.729  0.0575 -0.0594  0.1703
 6063W        W22910   4.135  14.689   1.512  0.0818 -0.0547  0.3903
 6064W        W22911  16.548  11.002  16.095  0.1412 -0.0652  0.0697
 6065W        W22912   8.801  10.280   2.544  0.0341 -0.1227 -0.2264
 6066W        W22913  17.048  17.195  14.246 -0.1612  0.2910 -0.0419
 6067W        W22914   5.060  12.133   4.186  0.2199 -0.0184  0.0463
 6068W        W22915   5.296   5.991  14.795 -0.1321  0.0001 -0.2786
 6069W        W22916   6.664  13.675   4.497 -0.2964  0.2321 -0.1273
 6070W        W22917   7.251  13.426  13.945 -0.1083  0.0233 -0.0461
 6071W        W22918   2.818   5.890  12.348  0.2021  0.2710 -0.1213
 6072W        W22919  13.277   9.815  12.815 -0.0214  0.0837  0.3118
 6073W        W22920  14.693   1.644   1.679  0.0412 -0.2549 -0.2872
 6074W        W22921   1.761  16.793  16.120 -0.2505 -0.0128 -0.3043
 6075W        W22922   1.315  14.470   5.219  0.1429  0.1153  0.0583
 6076W        W22923   4.965  12.890  13.181  0.2696  0.0703 -0.0790
 6077W        W22924   7.761   7.083   5.789  0.1132  0.2387 -0.0325
 6078W        W22925  17.663   7.212   4.139 -0.1461  0.1099 -0.2257
 6079W        W22926   8.566  17.340  12.719 -0.2779  0.1207  0.2688
 6080W        W22927   7.864  17.167   4.221 -0.2833 -0.1627  0.1764
 6081W        W22928   4.872   3.783   2.559 -0.0135 -0.1357  0.1710
 6082W        W22929  12.011   3.259   2.368  0.0868 -0.1473  0.0581
 6083W        W22930  13.965   8.196  12.503 -0.0566  0.0962  0.1055
 6084W        W22931   9.389   6.742   5.010 -0.3753 -0.1764 -0.0799
 6085W        W22932  17.128  11.790   3.959  0.0959 -0.0705 -0.2252
 6086W        W22933  10.650   0.500  15.652  0.0484  0.2815 -0.0139
 6087W        W22934   2.835  16.388  12.534  0.1032 -0.0784  0.0688
 6088W        W22935   6.944   4.475   4.368 -0.4289  0.0661 -0.0490
 6089W        W22936   2.017  12.401   4.726  0.4751  0.3991 -0.0367
 6090W        W22937   2.839  12.603  12.358 -0.1715  0.0066  0.2933
 6091W        W22938   2.867   7.528  12.956  0.0402  0.1555  0.3296
 6092W        W22939  16.277  11.683  14.353 -0.1527  0.1595  0.2916
 6093W        W22940  16.081   9.322   2.989 -0.2685 -0.0516 -0.0077
 6094W        W22941  15.647   3.974   2.299 -0.2642  0.2296  0.1199
 6095W        W22942  10.744  12.265   3.798 -0.1885 -0.0907  0.0704
 6096W        W22943  13.337  16.844  14.800 -0.1375 -0.1102  0.2002
 6097W        W22944  15.246  16.658  16.362 -0.1644 -0.3849  0.0707
 6098W        W22945   6.532  14.511   0.093  0.3673 -0.1175  0.1807
 6099W        W22946   7.815   5.771   4.658  0.1469 -0.1187  0.0870
 6100W        W22947   1.522   6.276   4.321 -0.0280 -0.3941  0.0376
 6101W        W22948  12.424   7.325   0.773 -0.1797  0.1939  0.2278
 6102W        W22949  14.445   4.664  14.673 -0.1032  0.1048 -0.1335
 6103W        W22950  17.465  10.264   4.555 -0.1279  0.0062  0.0395
 6104W        W22951   0.033  10.173   0.695  0.0519  0.1402 -0.2103
 6105W        W22952   4.197  11.131   1.381 -0.1971  0.0808 -0.0273
 6106W        W22953   6.814  17.926  12.008 -0.2424 -0.0850 -0.0483
 6107W        W22954  11.295   4.317   2.829 -0.1296  0.0692  0.2736
 6108W        W22955   0.577   6.842  11.776  0.3206  0.0276 -0.3851
 6109W        W22956  15.080   3.180   3.679 -0.1633 -0.1000 -0.2605
 6110W        W22957   4.741  16.417  14.425  0.3428  0.1306 -0.0650
 6111W        W22958   8.186   0.725   2.691  0.2577 -0.1508 -0.0329
 6112W        W22959   1.053  12.857   3.226  0.1876 -0.1232  0.0518
 6113W        W22960   1.025   2.483   1.908  0.1541  0.2188 -0.4553
 6114W        W22961   2.018   5.307   2.447 -0.0173  0.1730  0.2189
 6115W        W22962   4.952   4.767   0.504  0.3932  0.2087  0.1751
 6116W        W22963   4.807  17.694  13.390  0.0682  0.0963 -0.1362
 6117W        W22964  15.321   7.475   0.843 -0.4690  0.0085 -0.1043
 6118W        W22965   8.089   3.498  16.475  0.5379  0.4387  0.0223
 6119W        W22966  13.787  13.329   5.505 -0.1842 -0.0903  0.2867
 6120W        W22967   8.466   1.955  16.544  0.0033 -0.0004 -0.0917
 6121W        W22968  10.178  17.733   3.408 -0.0902 -0.0144 -0.1253
 6122W        W22969  17.270  14.454   5.158 -0.2109  0.0343  0.2073
 6123W        W22970  14.933  15.876  13.557  0.5973 -0.2758 -0.0645
 6124W        W22971   1.264  15.400   5.142  0.0449  0.0241  0.0985
 6125W        W22972  10.398   4.493  14.640 -0.0859  0.1136 -0.2119
 6126W        W22973  12.044   7.446   1.123 -0.0204 -0.2577 -0.0680
 6127W        W22974   0.218   1.419  11.962  0.3213  0.1891 -0.0082
 6128W        W22975  14.413  10.474  15.283  0.0913  0.0891 -0.0183
 6129W        W22976   4.300   7.106   5.225  0.2854  0.0405  0.0363
 6130W        W22977   0.979  17.497  13.319 -0.1219 -0.2936 -0.4857
 6131W        W22978  16.011   1.495  15.169 -0.0322 -0.1315  0.0198
 6132W        W22979  10.213   3.466   3.994  0.4794 -0.1409  0.0199
 6133W        W22980   7.622   5.466   1.193  0.1441 -0.3420  0.3252
 6134W        W22981   2.117  14.505  15.175  0.1215  0.1068  0.1176
 6135W        W22982   1.731   6.980  13.019  0.2092  0.0090 -0.1625
 6136W        W22983   4.261  10.220   2.584  0.0460  0.0272  0.0366
 6137W        W22984  10.958   2.367  16.670  0.0150  0.0566  0.2758
 6138W        W22985   8.729   5.225   2.481 -0.0416 -0.0067 -0.3564
 6139W        W22986  11.389  14.826   2.153  0.1486  0.0167 -0.0083
 6140W        W22987   6.251   4.381   5.663  0.1511 -0.3757  0.0230
 6141W        W22988   9.146  13.172  14.895  0.0503 -0.0822 -0.2170
 6142W        W22989  13.739  16.744   1.787 -0.0396  0.0819 -0.2035
 6143W        W22990   6.594   2.170  16.164  0.2885  0.0428  0.2008
 6144W        W22991   4.767   1.580   3.303  0.0938 -0.1866  0.0258
 6145W        W22992  12.834   5.445   2.318  0.0027  0.2243 -0.0853
 6146W        W22993   6.470   5.848   0.624  0.1163  0.0292  0.1107
 6147W        W22994   1.249  17.703   2.898 -0.0253  0.1331 -0.3908
 6148W        W22995   8.005  17.472   0.718  0.1631  0.2825  0.0191
 6149W        W22996  14.883  14.088  12.988  0.3640  0.4377 -0.6434
 6150W        W22997   6.662  12.332   2.484 -0.1334  0.1684 -0.0061
 6151W        W22998  16.852  13.389   5.470  0.0871 -0.1048 -0.0696
 6152W        W22999  14.864   5.636  10.595  0.1200 -0.1968  0.0564
 6153W        W23000  16.745   6.038   5.369  0.0277  0.2447 -0.2370
 6154W        W23001  12.925   1.670  12.293 -0.1218  0.0459  0.0251
 6155W        W23002  17.823  12.181  12.767 -0.2545  0.0590 -0.0547
 6156W        W23003   8.053   8.703  15.376 -0.0102 -0.1714 -0.0400
 6157W        W23004   5.041   2.079   3.143 -0.0600 -0.0285  0.2329
 6158W        W23005  10.788   4.519  14.945  0.1137 -0.0548  0.2812
 6159W        W23006  12.190   7.359  12.794 -0.1314  0.0855  0.1295
 6160W        W23007  15.682   6.019   4.448 -0.1859  0.1208  0.1169
 6161W        W23008  13.583  10.842   3.241 -0.1004  0.0679  0.1960
 6162W        W23009   4.267   8.643   6.209 -0.2768 -0.2332  0.0054
 6163W        W23010  11.330  11.878  12.828 -0.0351 -0.0729  0.0380
 6164W        W23011  15.607   9.255  15.687 -0.1490  0.0984 -0.0678
 6165W        W23012  16.446   5.593   3.392  0.1574 -0.0443 -0.1071
 6166W        W23013  11.533   5.424  12.791 -0.1977 -0.0631  0.0821
 6167W        W23014  13.373  13.092   3.664 -0.1374  0.2212  0.3768
 6168W        W23015  11.041   8.689  12.389  0.3273  0.1271  0.0325
 6169W        W23016   1.991   5.563   3.657  0.0639 -0.0227  0.2459
 6170W        W23017  13.681   8.534   4.839 -0.3774  0.2451 -0.0152
 6171W        W23018  13.081   6.320  15.632 -0.0270  0.1363 -0.2101
 6172W        W23019   0.152   0.232   4.696  0.1394  0.0288  0.0071
 6173W        W23020   5.350  17.191   5.240 -0.0447  0.2981  0.0822
 6174W        W23021  16.132  17.237  12.428 -0.1594 -0.0832 -0.1284
 6175W        W23022   9.494   9.258   3.923 -0.0777 -0.0575 -0.1580
 6176W        W23023   3.216   1.632   3.920  0.2042  0.2502 -0.1815
 6177W        W23024   2.434   6.849   3.996  0.0562 -0.1350  0.3519
 6178W        W23025  14.326  13.743   3.692  0.2732  0.1251 -0.1233
 6179W        W23026   6.730   0.404   2.575 -0.1815 -0.1045  0.1546
 6180W        W23027   5.319   4.070   4.634 -0.2164 -0.2894 -0.2667
 6181W        W23028   1.032  12.747   5.334  0.1931  0.0298 -0.2545
 6182W        W23029  11.649   5.052  13.097  0.1147  0.3152  0.1719
 6183W        W23030  10.649   6.396   0.937 -0.2283  0.0355  0.1427
 6184W        W23031  11.102  12.679  11.730  0.1606 -0.2232 -0.4399
 6185W        W23032   1.099   2.604   3.605  0.1266 -0.2039 -0.1141
 6186W        W23033   3.540   2.286   0.379  0.0607 -0.0398  0.1435
 6187W        W23034  13.433  15.871  16.541 -0.0655  0.1124 -0.0654
 6188W        W23035  14.766   1.056   3.015 -0.4465  0.0024  0.2017
 6189W        W23036   7.127   8.326  15.176  0.1481  0.1766 -0.1193
 6190W        W23037  14.813   5.301  14.718  0.1700 -0.0652 -0.0471
 6191W        W23038   2.067  13.400   1.028  0.2376 -0.1770 -0.3616
 6192W        W23039   8.183  14.658   3.862  0.2396  0.0975 -0.0138
 6193W        W23040   1.992   7.139  13.950 -0.0287 -0.1573  0.2935
 6194W        W23041   8.413  11.160  13.894  0.0774  0.1586  0.1221
 6195W        W23042  15.061  17.392  15.482 -0.1936  0.0199 -0.0589
 6196W        W23043   0.113  16.473   1.490 -0.0369 -0.1858 -0.1134
 6197W        W23044  15.236  15.942  12.272 -0.3052 -0.0483  0.1140
 6198W        W23045   2.235   8.309   3.640  0.2032 -0.1960  0.0310
 6199W        W23046   2.210   8.055   4.713  0.1318  0.0956 -0.0207
 6200W        W23047   3.159   4.351  13.325 -0.0619 -0.0285  0.3050
 6201W        W23048  13.264  10.233   4.591 -0.1110 -0.1796 -0.0072
 6202W        W23049  11.266   2.505   0.780 -0.0250  0.2007 -0.0107
 6203W        W23050  15.024  12.730   4.284  0.0519  0.0067  0.4112
 6204W        W23051   0.248   2.030   4.522  0.2631  0.3010  0.1149
 6205W        W23052  15.985  17.810   4.289 -0.0714 -0.1063 -0.0581
 6206W        W23053  16.306  10.922  11.915 -0.2337 -0.1141  0.0718
 6207W        W23054   0.853  17.900   2.677  0.2211  0.0779 -0.1179
 6208W        W23055   7.670   0.832  15.959  0.1094  0.3590  0.2171
 6209W        W23056   2.724  15.284  15.238  0.0164 -0.2356 -0.1492
 6210W        W23057   5.826  16.226   1.233  0.1683 -0.4405 -0.2084
 6211W        W23058   0.178   2.850  12.387  0.1587  0.0521 -0.3554
 6212W        W23059   5.520  16.667  14.837  0.0136  0.1040  0.0509
 6213W        W23060   3.744  11.561  10.893  0.2335 -0.0261  0.1480
 6214W        W23061   3.185  10.481  13.141 -0.0861 -0.0750  0.0743
 6215W        W23062  10.060   4.310   3.317  0.1748 -0.0543  0.1005
 6216W        W23063  12.941   4.351  16.713  0.0349  0.1828  0.2538
 6217W        W23064  17.265   6.654  12.853 -0.1078 -0.4515 -0.3624
 6218W        W23065   8.437   3.396  11.577 -0.2071 -0.0403  0.2192
 6219W        W23066   0.847  10.531   1.933  0.3952  0.0590 -0.3014
 6220W        W23067  11.076   6.386   3.822 -0.0689 -0.1883  0.1026
 6221W        W23068   6.679  17.795  15.430 -0.1374  0.1216 -0.0697
 6222W        W23069   6.479   8.774  13.691 -0.0128 -0.3713  0.0314
 6223W        W23070  17.061  12.733  16.251 -0.1434 -0.0854 -0.0561
 6224W        W23071   7.226   1.145   2.172  0.0885  0.3035 -0.2736
 6225W        W23072  13.522  11.853   0.407 -0.0733  0.1070  0.1712
 6226W        W23073   9.939  15.536   2.345  0.2722  0.0379 -0.0538
 6227W        W23074  15.394  15.348   6.110 -0.0802 -0.0225  0.0982
 6228W        W23075  15.243  13.311   2.167 -0.0858  0.0421 -0.1728
 6229W        W23076  17.586  12.255   4.553  0.0035 -0.2830  0.0462
 6230W        W23077  13.584  13.873   5.394  0.0784  0.2232  0.0490
 6231W        W23078   9.540  13.069   2.443  0.1336  0.1460  0.0050
 6232W        W23079  12.060  16.622  14.877 -0.0753  0.0104 -0.1806
 6233W        W23080   9.986   8.191   4.939 -0.2386  0.0031  0.2361
 6234W        W23081   6.590   0.216   3.581  0.0193 -0.0490  0.2270
 6235W        W23082   5.507   1.515  14.593 -0.1182  0.0283  0.1757
 6236W        W23083  17.014   5.698  15.066  0.0022  0.1144  0.2216
 6237W        W23084  11.929   7.859   4.245  0.2599 -0.1613 -0.1533
 6238W        W23085  14.606  16.139   2.872  0.0693  0.5212 -0.0766
 6239W        W23086   3.326   7.375  15.496 -0.0143 -0.2279 -0.1959
 6240W        W23087  14.378   7.086  12.488  0.2046 -0.4425 -0.0581
 6241W        W23088   2.918   5.506   4.093  0.2044  0.1446  0.0723
 6242W        W23089   5.251   9.238  12.426  0.0885 -0.0736  0.1544
 6243W        W23090   1.440   1.278  12.220  0.2022  0.1126  0.6344
 6244W        W23091   3.634   5.305  12.388  0.0718  0.3729  0.0185
 6245W        W23092   6.541  16.849   3.401  0.2090  0.1643  0.1443
 6246W        W23093   7.898  16.679   4.111  0.2075  0.0676  0.2264
 6247W        W23094  12.416  12.923   3.437  0.0484 -0.0079 -0.0243
 6248W        W23095   5.410   9.205   5.829 -0.0573  0.0367 -0.1517
 6249W        W23096   9.685   0.796  14.991 -0.2727  0.1035 -0.0265
 6250W        W23097  12.073  15.035   3.894  0.1085 -0.0216 -0.2192
 6251W        W23098  12.213   2.932  14.335  0.0180 -0.1816 -0.0650
 6252W        W23099   3.075   9.074  16.004  0.3101  0.0792 -0.4429
 6253W        W23100   7.615   1.755   0.282  0.0991  0.3784  0.1464
 6254W        W23101   5.672  10.984   1.328  0.1759 -0.1786 -0.0460
 6255W        W23102   8.013   4.503   0.176 -0.1798 -0.0838  0.1028
 6256W        W23103  12.282   6.679  12.227  0.0303 -0.1214 -0.2054
 6257W        W23104   0.599  12.692   2.607  0.2681  0.2902 -0.2600
 6258W        W23105   4.944  11.924   2.086  0.0848 -0.0135 -0.1383
 6259W        W23106   3.782   9.342  13.300 -0.2251 -0.2000  0.0555
 6260W        W23107   0.826   1.091   1.385 -0.1856  0.0858 -0.0261
 6261W        W23108   1.594   6.343  16.306 -0.0479 -0.6017 -0.0997
 6262W        W23109   6.309  17.147  14.544 -0.1402 -0.0005 -0.1021
 6263W        W23110   1.443   5.377   0.177  0.4452 -0.0331 -0.0386
 6264W        W23111   5.330   0.568  13.384 -0.0100  0.0501  0.1771
 6265W        W23112  17.191   6.566  12.198  0.0103 -0.1480 -0.0520
 6266W        W23113   3.024  10.948   5.555  0.0831  0.2378 -0.2596
 6267W        W23114   1.055   7.874  13.297  0.0919 -0.0241  0.0102
 6268W        W23115   8.536  14.057   3.326 -0.1159  0.1480  0.1207
 6269W        W23116  17.553  12.004   6.328 -0.2704  0.1458 -0.0079
 6270W        W23117  16.812  14.819  15.474 -0.1715 -0.0056 -0.0141
 6271W        W23118  17.635   3.459  11.997 -0.1522 -0.0061 -0.0500
 6272W        W23119  15.764   8.638   3.649  0.1907 -0.1228 -0.3955
 6273W        W23120  17.699   3.951   4.947  0.1029  0.0257  0.1773
 6274W        W23121   8.840  12.073  14.738 -0.2401 -0.1307  0.1123
 6275W        W23122  17.364   7.441  10.620 -0.0872 -0.1961  0.1109
 6276W        W23123   5.710  13.089   3.448  0.2283  0.0473 -0.0766
 6277W        W23124   2.283   7.159   2.026  0.0912 -0.0988  0.1802
 6278W        W23125  12.995   2.561  12.264  0.3631 -0.1859  0.2545
 6279W        W23126   9.278  11.194  13.497 -0.0516  0.0512  0.2050
 6280W        W23127  12.442  15.020  12.571  0.0501  0.0653  0.2906
 6281W        W23128  13.650  12.672   2.314  0.0810 -0.3139  0.0742
 6282W        W23129   5.938   7.010  15.064 -0.0456 -0.0586 -0.1280
 6283W        W23130   9.048   7.735  12.408  0.1356  0.2281  0.1038
 6284W        W23131   6.213   4.493   3.361 -0.2882  0.1866  0.3231
 6285W        W23132  12.725  17.831  13.836 -0.3296 -0.0610 -0.2169
 6286W        W23133  10.725  13.931  12.980  0.0076  0.0499 -0.1803
 6287W        W23134   2.828   6.497  11.414 -0.0025 -0.1093  0.0252
 6288W        W23135   8.116   0.218  16.220 -0.1058  0.1800  0.1105
 6289W        W23136   1.773   7.338   0.308 -0.0673  0.0162  0.1672
 6290W        W23137   4.247  15.461  13.865  0.1229 -0.2272  0.1013
 6291W        W23138  14.737  12.794   6.511 -0.0814 -0.2727  0.0221
 6292W        W23139  11.788   5.690   3.742  0.1179  0.0569 -0.2762
 6293W        W23140  17.785   6.676  13.127  0.1317 -0.2357 -0.3375
 6294W        W23141  15.036   8.313  16.790  0.1879  0.1183  0.2406
 6295W        W23142   0.345  14.501   5.012 -0.1448 -0.0068 -0.1528
 6296W        W23143   7.938  14.012   4.498  0.2268 -0.0527  0.0163
 6297W        W23144   1.183  13.117   3.694  0.1024  0.2504 -0.1175
 6298W        W23145   6.226  11.675  12.331  0.2257  0.1448 -0.0407
 6299W        W23146  16.230   3.974  12.938  0.1166  0.0400  0.0300
 6300W        W23147   0.678   5.381  13.800  0.3557 -0.1496 -0.1696
 6301W        W23148  13.443   9.495   4.951  0.1974 -0.0762 -0.0540
 6302W        W23149   9.027  10.882   2.281  0.3247 -0.0768  0.2296
 6303W        W23150   0.245  15.001   0.931  0.1199  0.0441 -0.1432
 6304W        W23151   8.885   3.146   0.362 -0.0741  0.0395  0.0480
 6305W        W23152  11.424   2.527   4.453  0.0773 -0.1468 -0.1366
 6306W        W23153   1.934   1.779   4.363  0.3150 -0.3240 -0.0960
 6307W        W23154   4.073  10.151  14.213 -0.2233  0.2109 -0.1547
 6308W        W23155  10.469  15.067  14.487 -0.1278 -0.0344 -0.0593
 6309W        W23156  10.309  12.951   4.266  0.1179  0.3734 -0.1525
 6310W        W23157   1.529  10.021   2.371 -0.0482  0.1293 -0.3089
 6311W        W23158   6.517   2.042   3.363  0.0636  0.1015 -0.0354
 6312W        W23159  16.403  16.680  11.843 -0.0836  0.3829 -0.0607
 6313W        W23160   3.271  10.329   3.965 -0.4801  0.0336 -0.2294
 6314W        W23161  11.690   7.544   0.795  0.2203 -0.0939  0.0579
 6315W        W23162   7.052  14.166  13.491  0.0867  0.1416  0.1444
 6316W        W23163  16.809  11.442   0.775 -0.4831  0.0127 -0.1476
 6317W        W23164  13.151   9.853   2.183 -0.1095 -0.0513  0.0548
 6318W        W23165   9.997  13.173  13.192  0.3787 -0.1389  0.2116
 6319W        W23166   1.755   7.266   2.778  0.0305 -0.0742 -0.0378
 6320W        W23167   6.770  16.078  13.559  0.2804 -0.1780  0.0684
 6321W        W23168   1.807   3.497  16.454  0.1021 -0.2414  0.2027
 6322W        W23169  16.197   9.965  11.811  0.0423  0.0765 -0.0545
 6323W        W23170  16.000   7.492  16.281 -0.2720  0.2991 -0.1290
 6324W        W23171  14.245  12.505   6.682  0.0399 -0.1023  0.2002
 6325W        W23172   9.257  14.073   5.513 -0.0697 -0.1339 -0.2029
 6326W        W23173  15.046   8.501  12.082  0.0100 -0.0185 -0.4126
 6327W        W23174  13.211  13.248  12.407  0.1134 -0.1732 -0.1344
 6328W        W23175  13.463  13.621  13.363  0.1242  0.0359 -0.1552
 6329W        W23176   8.200   4.287   2.566  0.0466  0.0215 -0.0330
 6330W        W23177  15.818  12.778   5.825  0.0215 -0.0200  0.1333
 6331W        W23178  12.586   1.460   5.439 -0.4610  0.0495  0.0654
 6332W        W23179  12.387   0.098  13.446 -0.0887  0.2990 -0.1661
 6333W        W23180  13.297   8.963   1.803  0.2902  0.1320  0.0216
 6334W        W23181   5.177   3.183   5.681  0.2286  0.1159  0.3715
 6335W        W23182  17.636   7.903  12.850 -0.0924 -0.0630 -0.0904
 6336W        W23183  15.387   8.847   4.016  0.0893  0.3115  0.3662
 6337W        W23184   7.059   1.017  12.468  0.2109 -0.0841  0.6291
 6338W        W23185   1.000   9.140  16.665  0.1881  0.2150 -0.0990
 6339W        W23186   5.109   1.262  11.422  0.0597  0.0544  0.0927
 6340W        W23187   3.905   4.955  15.611  0.2005 -0.2058 -0.0098
 6341W        W23188   5.783   4.687  16.001 -0.1024 -0.1970  0.0427
 6342W        W23189  10.129  17.024  11.833 -0.0716 -0.0193  0.2105
 6343W        W23190  12.236   4.744  12.377 -0.2930 -0.2773 -0.3301
 6344W        W23191  15.875  17.300   4.234 -0.2379 -0.0015  0.0805
 6345W        W23192   8.727   3.126   4.767 -0.2989  0.5358 -0.3232
 6346W        W23193   1.210  10.515  14.462 -0.0868  0.0519 -0.0394
 6347W        W23194   5.233   0.412   1.161 -0.0337  0.1306 -0.0804
 6348W        W23195   1.308   4.944   3.932 -0.1413  0.2401 -0.3935
 6349W        W23196   7.882  14.876   6.278  0.1961 -0.1196  0.2388
 6350W        W23197  13.625   6.576  14.633  0.0821  0.1178 -0.2360
 6351W        W23198   0.754   1.304  13.580 -0.0903 -0.0116  0.2435
 6352W        W23199  13.170   1.846  13.904  0.1562  0.0160 -0.4862
 6353W        W23200   8.995   9.892  16.489  0.0117  0.4129  0.1489
 6354W        W23201   8.993  14.285   4.552 -0.0712  0.0707  0.0721
 6355W        W23202  13.619   0.070  12.895  0.0164 -0.1015  0.2431
 6356W        W23203  10.179   9.240   6.032  0.1303 -0.2496 -0.2224
 6357W        W23204  17.334   5.402   1.436  0.1251 -0.1213 -0.0890
 6358W        W23205   6.149   8.760  14.737 -0.2326  0.0722 -0.1765
 6359W        W23206  13.461  13.185  14.830 -0.0433 -0.0379 -0.5404
 6360W        W23207  13.838  16.465   1.370  0.0820 -0.3511 -0.0883
 6361W        W23208  13.433  17.745   3.215  0.2434  0.1934 -0.2107
 6362W        W23209   4.054  16.690  15.539 -0.5582  0.1364 -0.4624
 6363W        W23210  14.360  11.408  15.080 -0.1997 -0.2183  0.1346
 6364W        W23211   9.626   6.517   1.092 -0.0084  0.1062 -0.2441
 6365W        W23212  13.391  13.080  12.880 -0.1022 -0.2985  0.1447
 6366W        W23213  14.152   8.319  16.408 -0.0801 -0.1919 -0.0175
 6367W        W23214   4.244  15.567  15.617 -0.4030  0.2377 -0.1766
 6368W        W23215   4.243  17.269   4.729 -0.1006 -0.2213  0.0720
 6369W        W23216   9.185   1.467  14.420 -0.2311  0.2440  0.2390
 6370W        W23217  15.088  11.977   3.695 -0.0004  0.0527 -0.0075
 6371W        W23218  12.277   2.419   2.324  0.1423  0.0894  0.1644
 6372W        W23219  14.778  16.920   5.595  0.0955  0.3388 -0.2985
 6373W        W23220   2.781  14.133  12.826 -0.1536  0.0499  0.1587
 6374W        W23221   4.672   2.533   5.174 -0.3905  0.1488 -0.4550
 6375W        W23222  12.461  12.507  15.036 -0.1117  0.1917 -0.2143
 6376W        W23223  16.297  13.408  16.435  0.0825  0.2655 -0.0667
 6377W        W23224  11.925  12.323   4.554  0.1822 -0.4710 -0.0591
 6378W        W23225  17.025   4.987  14.324 -0.0099  0.2396  0.0088
 6379W        W23226   5.509   8.201  15.802 -0.1316  0.0188  0.0346
 6380W        W23227   3.919   2.137   3.526 -0.1047  0.0745  0.0863
 6381W        W23228  10.343  12.801  14.430 -0.0904 -0.2333  0.3503
 6382W        W23229  12.665  10.542   1.061 -0.1831  0.1717 -0.1044
 6383W        W23230  12.726  16.459   0.047  0.0318  0.3315 -0.0916
 6384W        W23231   8.680  15.177  16.007 -0.1335 -0.0775  0.1583
 6385W        W23232   3.152   5.648   6.069  0.0033 -0.3766  0.1126
 6386W        W23233   1.067   0.538  12.445  0.0115  0.1791  0.3819
 6387W        W23234  11.787   9.917   1.867 -0.2242  0.1954  0.1143
 6388W        W23235   6.713   3.985   4.434 -0.0242 -0.0164 -0.2000
 6389W        W23236  13.730   3.200  15.824 -0.3338  0.1962 -0.0892
 6390W        W23237  15.442   8.241   0.327 -0.1147  0.1608  0.3224
 6391W        W23238  11.469   0.047  13.922  0.2960  0.2010 -0.0457
 6392W        W23239  10.998   5.024  15.755  0.0155 -0.1471  0.0134
 6393W        W23240  13.064   7.017   4.210 -0.1963 -0.1158  0.3686
 6394W        W23241   4.719  16.118  16.774 -0.2628  0.0724  0.2891
 6395W        W23242   6.543   3.358  13.573 -0.0111  0.2777 -0.3322
 6396W        W23243  15.264  16.088  13.964  0.0951 -0.1176 -0.1636
 6397W        W23244   9.782  16.735   5.193  0.1371  0.0173  0.0665
 6398W        W23245   5.114  16.669   3.862  0.2386 -0.0799 -0.0024
 6399W        W23246  14.047   6.884   1.523  0.1810 -0.1287  0.1205
 6400W        W23247  17.770   7.336  12.911  0.2325  0.0357 -0.0960
 6401W        W23248   2.066   7.012   2.483  0.2291 -0.3470  0.0345
 6402W        W23249  10.168   3.103  11.587  0.0775  0.2505  0.3291
 6403W        W23250  10.408   1.324  13.998 -0.4675 -0.2430 -0.0263
 6404W        W23251   6.297   5.579  12.779  0.4425 -0.0113  0.0133
 6405W        W23252  12.284   8.801   3.431 -0.2123  0.1777 -0.0809
 6406W        W23253  14.518  16.064  14.644 -0.0055 -0.0102  0.1328
 6407W        W23254  16.669   6.328  14.453 -0.0920  0.0275  0.1737
 6408W        W23255  17.065   1.175   1.754  0.0095 -0.1382  0.0740
 6409W        W23256   1.258   9.761  13.245 -0.0216 -0.0115 -0.1916
 6410W        W23257  11.721   2.633   0.622  0.0276  0.1737  0.2573
 6411W        W23258   1.800  16.270  13.952 -0.0365  0.0319 -0.1673
 6412W        W23259   4.445  11.336  12.050 -0.1977 -0.0093  0.2340
 6413W        W23260   3.116  14.900  13.589 -0.1315 -0.0496 -0.2209
 6414W        W23261   1.320   7.992  11.621 -0.1002  0.1176  0.2001
 6415W        W23262   8.234  11.570  15.346  0.1290  0.0406 -0.1861
 6416W        W23263  14.742   4.861   3.900 -0.0900  0.0524 -0.0285
 6417W        W23264  13.967   1.284  16.125  0.0912  0.0274  0.0133
 6418W        W23265  13.424  11.625  12.507  0.1110  0.1053  0.0512
 6419W        W23266   3.902   3.716  13.649 -0.4878  0.0321  0.1000
 6420W        W23267   3.744   8.660   3.421 -0.1747 -0.1424 -0.2024
 6421W        W23268  13.254   1.186   4.770 -0.0184  0.2240  0.3574
 6422W        W23269   5.620   4.300   4.053  0.0791 -0.0423  0.0206
 6423W        W23270  13.432  12.777  12.497 -0.1487 -0.3092 -0.2823
 6424W        W23271   6.847  13.005  15.091  0.1591 -0.0230 -0.1211
 6425W        W23272  11.211  10.990  16.487  0.5533 -0.0519 -0.0534
 6426W        W23273   7.370   7.652   3.126 -0.1221  0.0513 -0.2039
 6427W        W23274   0.452  12.837  11.893  0.1877 -0.0056 -0.0499
 6428W        W23275  15.415   0.410  12.223 -0.0508 -0.0962  0.2173
 6429W        W23276   1.236   8.184  16.366  0.0075  0.1515 -0.0238
 6430W        W23277  11.563   3.054  15.800 -0.3868 -0.3689 -0.0683
 6431W        W23278  16.196  17.541  11.899 -0.1273 -0.1469  0.0201
 6432W        W23279  10.166  14.480   2.749  0.0794 -0.0792  0.0047
 6433W        W23280   8.498   9.409   1.274  0.1905 -0.0949  0.0283
 6434W        W23281  17.791  14.939   2.459 -0.0661 -0.2028  0.0465
 6435W        W23282   7.037   4.159  15.087 -0.1378  0.2005 -0.1908
 6436W        W23283   9.839   3.627  11.591 -0.1136  0.1059 -0.0291
 6437W        W23284   2.642   8.569   2.699  0.1174 -0.1460  0.3599
 6438W        W23285  15.978  12.428  13.864 -0.1801  0.1220 -0.1319
 6439W        W23286   2.809   9.772  11.773 -0.1140 -0.0244 -0.0797
 6440W        W23287  10.837  14.368  12.623 -0.1075  0.1725 -0.2141
 6441W        W23288  10.086   5.577  13.141  0.0489 -0.0498 -0.0625
 6442W        W23289   0.321   7.867  13.964 -0.2383 -0.2195  0.0496
 6443W        W23290   2.203  13.763   1.999 -0.0704 -0.0943  0.0047
 6444W        W23291  15.591  13.076   0.568 -0.0709  0.1778 -0.1334
 6445W        W23292   1.568   8.267  14.378  0.0856  0.2742  0.1291
 6446W        W23293   5.272  17.292  11.216  0.0379  0.2879  0.1504
 6447W        W23294   4.234  17.330   2.061  0.2873  0.2377  0.1140
 6448W        W23295  16.394  15.689  16.442  0.1334 -0.0243  0.0352
 6449W        W23296   2.585  14.419  12.353 -0.1744 -0.0760 -0.4138
 6450W        W23297   4.038   9.702  15.882  0.0789 -0.2303  0.1775
 6451W        W23298   7.659   8.118   3.103 -0.1678  0.0051 -0.3100
 6452W        W23299   7.553  16.336   3.827 -0.1409  0.1587 -0.0373
 6453W        W23300   8.789   7.416  13.859 -0.2209 -0.0825 -0.3418
 6454W        W23301  12.881  12.146  13.088  0.0983 -0.0252  0.1182
 6455W        W23302   0.544   6.611   0.062  0.1571  0.1418 -0.0407
 6456W        W23303  10.674  16.493  13.157  0.1283 -0.0384  0.2222
 6457W        W23304   0.328   7.430   3.779  0.2445  0.0009  0.2200
 6458W        W23305   1.541   7.809   2.629  0.1326 -0.0175 -0.0563
 6459W        W23306   6.987  10.269   3.367  0.3686  0.1296  0.0528
 6460W        W23307  16.388  12.457  15.943  0.0762  0.0467 -0.1188
 6461W        W23308  17.140   0.321   5.841  0.0771 -0.1144 -0.2529
 6462W        W23309   2.615   7.322   0.513 -0.0845 -0.0457 -0.0222
 6463W        W23310   6.301  14.927   4.216 -0.2073 -0.0469  0.4301
 6464W        W23311   5.335  14.713   3.044 -0.0930 -0.0931  0.0519
 6465W        W23312  14.887   4.926   5.725 -0.1969  0.1892 -0.0169
 6466W        W23313   2.210   6.712   1.086 -0.1509 -0.0867 -0.1724
 6467W        W23314   0.726   0.684   0.640  0.0091  0.0137 -0.1629
 6468W        W23315  13.562   6.068  13.598  0.0894  0.0639 -0.2132
 6469W        W23316  17.285   3.545  15.376  0.0148 -0.0043 -0.0322
 6470W        W23317  16.492  17.446  13.677 -0.1223  0.0590  0.0756
 6471W        W23318  14.495  12.845  16.789  0.0013 -0.2505 -0.0431
 6472W        W23319   6.459  13.985   5.503 -0.0957 -0.0476 -0.1919
 6473W        W23320   5.894  12.741   1.022 -0.0265 -0.0128  0.0526
 6474W        W23321  14.397   6.808  12.023 -0.0261  0.0184  0.0355
 6475W        W23322  14.087   7.567  15.298 -0.1564 -0.0160  0.1722
 6476W        W23323  11.330   0.263  14.844  0.2917  0.0272  0.0493
 6477W        W23324  12.943   3.093   5.587  0.0301  0.1064 -0.2220
 6478W        W23325   1.435   2.791  13.307 -0.0744 -0.0851 -0.0703
 6479W        W23326  13.589   9.783   3.952  0.0656  0.5261 -0.0104
 6480W        W23327  16.659   8.435  15.047 -0.0592  0.0877  0.2340
 6481W        W23328   2.459   1.960   4.501 -0.0592  0.0480  0.0557
 6482W        W23329   2.263   5.850   5.766  0.0208  0.2450 -0.1106
 6483W        W23330  13.837   5.559   3.716 -0.1331 -0.0887  0.3232
 6484W        W23331   5.264   8.019  16.687  0.0452 -0.1472  0.1120
 6485W        W23332   3.964   4.952   1.518 -0.0381  0.2948 -0.3185
 6486W        W23333   2.193   6.805   4.764 -0.0401  0.0733 -0.0670
 6487W        W23334   4.218  13.609   3.013 -0.1806 -0.2007  0.0834
 6488W        W23335   0.088   3.883  13.805 -0.0039 -0.2416 -0.0221
 6489W        W23336  13.851  13.156   6.236 -0.0382  0.1029  0.0961
 6490W        W23337  11.839  14.549  16.077  0.1140  0.0313 -0.0607
 6491W        W23338  15.780   7.297   3.160 -0.2295  0.1966 -0.1681
 6492W        W23339   0.334  10.154   4.976 -0.0997  0.3063 -0.2556
 6493W        W23340   5.200   2.896   0.239  0.2130 -0.0791 -0.0438
 6494W        W23341  14.372  17.797   3.542  0.1194  0.2888 -0.2063
 6495W        W23342   6.853  10.648   2.047 -0.0911  0.0679 -0.0661
 6496W        W23343  17.643   3.043  14.234 -0.0861  0.1709 -0.1165
 6497W        W23344  12.500   1.572   4.806 -0.0471 -0.0515  0.1021
 6498W        W23345   4.054  11.019  13.873  0.3392 -0.0105 -0.1184
 6499W        W23346  14.982   2.604   3.964 -0.5203  0.0889  0.0228
 6500W        W23347   1.310   8.811   4.937  0.0513 -0.1036  0.1154
 6501W        W23348   0.489  17.545  14.002  0.0626  0.2670 -0.1927
 6502W        W23349  13.530   4.313   3.856 -0.0707 -0.2091 -0.2530
 6503W        W23350  10.686  16.907  13.677 -0.1742 -0.0148 -0.0752
 6504W        W23351   2.360   2.023  14.586  0.1671 -0.0175 -0.0021
 6505W        W23352   2.182   3.459  16.016  0.0221 -0.1353 -0.1714
 6506W        W23353  13.827   4.755   4.656  0.1128  0.0077  0.0687
 6507W        W23354  14.193  17.727   5.622 -0.2642 -0.1139  0.2601
 6508W        W23355   7.661  15.989  16.360 -0.0784 -0.1337 -0.0988
 6509W        W23356   4.296   6.886   1.600  0.0525 -0.0562  0.3053
 6510W        W23357   3.919  10.302   5.230  0.2208  0.1723 -0.2573
 6511W        W23358  13.360   3.627   3.947  0.0071  0.0833 -0.2430
 6512W        W23359   6.102   5.484   2.329  0.1551  0.0571 -0.2576
 6513W        W23360  17.165   9.630  11.112  0.2012  0.2553 -0.1337
 6514W        W23361   2.081  16.050   0.265  0.0231  0.1907  0.0662
 6515W        W23362  16.329   8.268  12.886  0.1232 -0.0287  0.1448
 6516W        W23363  16.706  15.470   0.861  0.0451 -0.0733  0.0831
 6517W        W23364   7.828   0.392   2.384 -0.1528 -0.2457  0.0971
 6518W        W23365   8.870   0.415   3.152  0.0164 -0.0240  0.0930
 6519W        W23366   2.695   6.228   1.769 -0.0120  0.1318  0.1045
 6520W        W23367   6.945  17.746   4.417  0.2965 -0.1292 -0.1613
 6521W        W23368   1.317   6.138  16.733  0.1888 -0.0188  0.2042
 6522W        W23369   3.943   1.286   3.337  0.1106 -0.1393  0.1905
 6523W        W23370  15.156  15.249   3.097 -0.1476 -0.0576  0.2725
 6524W        W23371   1.614  16.733  10.873 -0.2104  0.3353 -0.3253
 6525W        W23372  17.322  13.935  16.363 -0.0610 -0.0834 -0.2317
 6526W        W23373  17.011   3.101  15.190 -0.0552 -0.0802 -0.0431
 6527W        W23374   5.886   1.244   0.870  0.1894 -0.0816 -0.2719
 6528W        W23375   7.281   7.618   5.333  0.2955 -0.1120  0.1175
 6529W        W23376   3.794   3.600   3.622  0.0040  0.0522  0.0087
 6530W        W23377  14.304  16.157  13.086  0.0020 -0.1137  0.1162
 6531W        W23378   4.209   5.903  16.778 -0.1527 -0.0014  0.2611
 6532W        W23379   9.345   9.156   5.350  0.0156  0.1292  0.0106
 6533W        W23380  15.075  11.501  12.446 -0.0660  0.0892 -0.3740
 6534W        W23381  14.574   8.251  15.758 -0.2037 -0.0650  0.1480
 6535W        W23382   4.392   5.639   0.528  0.2008 -0.3261  0.2918
 6536W        W23383   3.196  14.461  15.846  0.0159  0.1083 -0.2216
 6537W        W23384   9.353  12.109   1.701  0.3171  0.4106  0.0102
 6538W        W23385  17.843  10.259  12.122  0.2615 -0.2142 -0.3141
 6539W        W23386  13.323   7.537   2.517 -0.0844 -0.0891 -0.0072
 6540W        W23387   4.658  15.613   2.869  0.1435  0.1680 -0.1901
 6541W        W23388   4.760   8.156  14.149  0.1455  0.3443 -0.6070
 6542W        W23389   2.232  16.708   0.984 -0.2037  0.0892 -0.1764
 6543W        W23390   7.093  17.709  13.720 -0.1210  0.0730 -0.1499
 6544W        W23391  12.168   9.329   2.065 -0.1445  0.3046 -0.1289
 6545W        W23392   5.367   9.559  12.793 -0.0868 -0.0240  0.0448
 6546W        W23393   2.892   9.718   3.581 -0.3126 -0.0559 -0.1136
 6547W        W23394   0.678  14.192  15.984 -0.1219  0.1826  0.0827
 6548W        W23395   0.561   0.962  14.800 -0.1168  0.2804  0.2506
 6549W        W23396   0.638   8.731  13.595 -0.1068  0.0767 -0.1724
 6550W        W23397  16.517   3.731  15.650 -0.1900  0.3699 -0.2269
 6551W        W23398  16.667   4.621  14.971  0.0113 -0.0376  0.2481
 6552W        W23399   9.667   8.714   3.060  0.0602  0.0321 -0.1487
 6553W        W23400   2.484   4.015   1.518 -0.3330 -0.3319 -0.0691
 6554W        W23401  15.605   0.288  13.894  0.0642  0.1729  0.0962
 6555W        W23402   5.261  10.503  15.861  0.0895  0.2874  0.1166
 6556W        W23403   1.697  16.713   0.973 -0.3380 -0.0608  0.2656
 6557W        W23404   9.294  13.921   4.566  0.0219 -0.2265  0.2293
 6558W        W23405  12.176   0.139   0.365  0.0928 -0.0322  0.2958
 6559W        W23406  11.399  10.331   3.035  0.1305 -0.2103  0.0605
 6560W        W23407  13.427  11.870  16.746  0.0224 -0.1036  0.2036
 6561W        W23408  12.718   8.929  14.385  0.1607  0.3348  0.1695
 6562W        W23409   9.008  14.010   1.051 -0.2111 -0.0392  0.1698
 6563W        W23410  10.329  12.890   3.303 -0.0950  0.0602  0.2474
 6564W        W23411   8.876   5.089   5.658 -0.1158  0.1604 -0.2306
 6565W        W23412  16.275  12.941  16.797 -0.1487  0.1454  0.0137
 6566W        W23413   6.914   2.816  14.797 -0.1400  0.0008 -0.2153
 6567W        W23414   8.198   6.561  13.229  0.1581  0.1917  0.0549
 6568W        W23415   9.739  15.001  12.281  0.2376  0.0524  0.1357
 6569W        W23416  12.790  10.704   0.186  0.0902  0.1684  0.0845
 6570W        W23417  12.259   5.330  13.782  0.0738  0.0181 -0.2488
 6571W        W23418  14.944  13.171  16.243 -0.1473  0.3199 -0.1767
 6572W        W23419  10.092  14.679   3.262 -0.0930  0.1645  0.1742
 6573W        W23420  11.999  16.013  13.208  0.2109 -0.1487  0.2347
 6574W        W23421  12.288  15.042   4.335 -0.1197 -0.0623  0.0877
 6575W        W23422  16.351  10.859  14.671  0.1208 -0.0057  0.2068
 6576W        W23423   2.612  10.659  14.342 -0.1771 -0.1241 -0.0716
 6577W        W23424   4.996  17.582  15.653  0.3394  0.0854  0.1814
 6578W        W23425  17.528   4.501  14.380  0.2012 -0.0149 -0.2726
 6579W        W23426   4.699   2.502  12.637  0.0412 -0.2323 -0.0472
 6580W        W23427   5.786  16.594   3.935 -0.4093  0.2068 -0.0693
 6581W        W23428   7.869   6.566  14.130  0.1058 -0.1673 -0.2372
 6582W        W23429  13.122  12.189   0.461 -0.1462 -0.2895 -0.1874
 6583W        W23430  12.678  15.558   1.921 -0.2930  0.0832 -0.0919
 6584W        W23431  14.590   2.440  12.471  0.2930  0.2023 -0.4767
 6585W        W23432  13.917   9.400  14.541  0.0268  0.0224 -0.0329
 6586W        W23433   2.213  13.361  13.916  0.3171 -0.0578 -0.0751
 6587W        W23434   5.185  15.563   0.959 -0.0671  0.1748 -0.0533
 6588W        W23435  15.178  17.640  14.094 -0.2680 -0.3071  0.0609
 6589W        W23436   3.464   2.312  12.934 -0.0209 -0.3230 -0.0933
 6590W        W23437  14.730  10.565  12.760  0.0097 -0.0294 -0.2036
 6591W        W23438  10.248  13.098   5.194 -0.1250  0.0699  0.2135
 6592W        W23439  13.243  13.893  16.411 -0.0934  0.0127  0.1169
 6593W        W23440   9.873  13.053  15.672 -0.1413 -0.0467  0.1212
 6594W        W23441   0.158   9.165  14.434  0.0311 -0.1676  0.0831
 6595W        W23442  14.176   2.967   4.256  0.1292  0.1156 -0.2113
 6596W        W23443   8.647  16.087   4.600  0.0660 -0.0449 -0.3821
 6597W        W23444  11.849  15.273   6.291  0.0536  0.0425  0.0901
 6598W        W23445   4.866  13.674   5.391 -0.4117 -0.2929 -0.2345
 6599W        W23446   6.267  14.477  16.025  0.0033 -0.1284 -0.0771
 6600W        W23447   2.540   5.981  12.746 -0.0845  0.0277 -0.0289
 6601W        W23448   4.930   8.449  14.588  0.0956  0.2665  0.2738
 6602W        W23449   4.205   5.030   4.842  0.1914 -0.0072  0.0541
 6603W        W23450   4.052   7.835   0.063  0.1405 -0.0616  0.0072
 6604W        W23451  12.396   3.554   2.022  0.0952  0.2922 -0.0605
 6605W        W23452  10.116   8.597  14.110  0.0317  0.0398 -0.0475
 6606W        W23453   4.609   9.171  11.819  0.3814  0.2994 -0.1905
 6607W        W23454  14.133   4.728  13.839  0.0776 -0.0451 -0.4363
 6608W        W23455   6.089  11.997  16.255 -0.1551  0.1978 -0.0316
 6609W        W23456  13.719  10.244   5.002 -0.1664 -0.0667 -0.1274
 6610W        W23457   8.706   9.087   3.850 -0.2445  0.0574  0.0978
 6611W        W23458   8.484   8.003  15.301 -0.0137 -0.1000 -0.3126
 6612W        W23459   0.119   7.929   0.934  0.4020  0.2318  0.2938
 6613W        W23460   8.981   3.018  12.332  0.0603 -0.1953 -0.3318
 6614W        W23461  16.046   3.491   1.674  0.1291 -0.1089  0.1174
 6615W        W23462   4.367   0.997  13.128 -0.1310  0.1351 -0.0612
 6616W        W23463  12.884   6.461   0.077 -0.0292  0.0904  0.0643
 6617W        W23464   1.628   9.127  12.148 -0.2625 -0.0819 -0.0408
 6618W        W23465   8.700  13.940  12.075  0.0933 -0.0032  0.0193
 6619W        W23466   6.370   8.087  12.213 -0.1387 -0.2098  0.3656
 6620W        W23467  10.620  16.987   2.795 -0.0747 -0.0291  0.3382
 6621W        W23468   8.169   6.787  13.725  0.0231  0.2097  0.2103
 6622W        W23469   2.758  15.584   2.525 -0.1607 -0.1568  0.0643
 6623W        W23470  14.738   3.384  12.104  0.1078  0.1700  0.1026
 6624W        W23471  15.443   2.629  12.271  0.0284  0.1801 -0.0154
 6625W        W23472  12.509   9.367  14.818  0.0418 -0.1902  0.2846
 6626W        W23473   8.740   5.725   2.639 -0.0094  0.2882  0.0684
 6627W        W23474   5.552   3.468   6.172  0.2181 -0.2984  0.0495
 6628W        W23475   8.857  10.652  11.627  0.0888  0.2629  0.1462
 6629W        W23476   1.521   5.742  11.740  0.0175  0.1338  0.1045
 6630W        W23477  12.836   4.169  12.119 -0.2254 -0.0215 -0.4680
 6631W        W23478   2.060   2.805  13.661 -0.1642  0.1472 -0.0818
 6632W        W23479   6.821   8.938   3.517  0.1066  0.1568 -0.2929
 6633W        W23480  10.912  15.282  11.753  0.2948 -0.3130 -0.0574
 6634W        W23481   7.883   9.394  12.719  0.0196 -0.0876  0.1418
 6635W        W23482   0.122   0.612   3.539  0.0798 -0.1266  0.1844
 6636W        W23483  16.702   4.607  13.455  0.2177  0.2901  0.3294
 6637W        W23484  12.064   4.092   5.252 -0.0439  0.0032 -0.1165
 6638W        W23485  11.163   2.854  12.807  0.1310 -0.1885  0.1036
 6639W        W23486   3.371  17.379   2.125 -0.2925 -0.0843 -0.1939
 6640W        W23487   8.211   2.719   0.364  0.0477  0.1427 -0.1902
 6641W        W23488  15.709  17.345  12.264  0.1952 -0.2818  0.0787
 6642W        W23489   7.182   3.860   5.100  0.2402  0.0616  0.0339
 6643W        W23490   3.163   6.817  14.866  0.1081 -0.2641 -0.0908
 6644W        W23491  14.129   2.067  14.019 -0.1410  0.1672 -0.0882
 6645W        W23492   9.711   5.834   2.308  0.1412 -0.0499 -0.4763
 6646W        W23493  13.906   2.685   1.226  0.1438  0.0859 -0.0601
 6647W        W23494   4.982  15.859  11.445  0.1490  0.0212  0.2386
 6648W        W23495  13.131   7.479  13.474 -0.0479  0.1229 -0.1692
 6649W        W23496   8.590   8.493  14.608  0.1672 -0.0809 -0.3937
 6650W        W23497   5.641   4.152  14.788  0.2572 -0.2693 -0.3457
 6651W        W23498  11.027   5.455  15.398 -0.2451 -0.0435  0.2050
 6652W        W23499   5.521   1.576  11.288  0.1104 -0.2169  0.1664
 6653W        W23500  13.137   5.887  14.515 -0.1074 -0.1016 -0.1350
 6654W        W23501   1.949   6.385   3.930 -0.1754 -0.1566 -0.0032
 6655W        W23502   6.104   8.800   2.251 -0.1191 -0.0344  0.4218
 6656W        W23503   5.755  13.753   4.204  0.1017 -0.2752 -0.1634
 6657W        W23504   3.716  15.396   3.684  0.0177 -0.1020  0.2258
 6658W        W23505  12.901  14.336   3.695  0.2247 -0.0809 -0.0143
 6659W        W23506  11.681  11.472   4.288  0.1243 -0.1322  0.0926
 6660W        W23507   8.677  12.984   3.191  0.0517 -0.2482 -0.1440
 6661W        W23508   5.489   5.242   0.061 -0.0030 -0.1359  0.1559
 6662W        W23509   3.315  16.469  14.896  0.2166 -0.1030 -0.0840
 6663W        W23510  16.078   0.207   5.499  0.0879  0.0885  0.1109
 6664W        W23511   6.534  10.247  15.976  0.0754  0.1855  0.1172
 6665W        W23512  13.075   1.348  13.873 -0.3771 -0.0868  0.0011
 6666W        W23513   3.604  12.077  12.845 -0.2238  0.2890  0.2198
 6667W        W23514  16.266   4.760  13.347 -0.0125  0.2258  0.3043
 6668W        W23515  15.188   3.509   2.947 -0.1426  0.1761  0.0015
 6669W        W23516  11.828  12.092  13.890  0.0067 -0.0208 -0.0917
 6670W        W23517  13.969   9.362  12.036  0.1382  0.0512 -0.0005
 6671W        W23518  16.997   6.874   0.230 -0.1482 -0.2461 -0.0482
 6672W        W23519  17.779   8.616  15.961  0.1162 -0.2833  0.0541
 6673W        W23520  16.359  13.361   3.478 -0.1487 -0.0231  0.2555
 6674W        W23521  15.473   8.266  11.923 -0.1651 -0.2846 -0.1447
 6675W        W23522   3.760  13.284  13.500 -0.2128 -0.0644 -0.0863
 6676W        W23523  15.980   2.482   2.670  0.3695 -0.1885 -0.0846
 6677W        W23524   2.532  11.101   2.508 -0.0466 -0.2250 -0.1432
 6678W        W23525   4.010   7.746   3.262 -0.0050 -0.0319  0.0394
 6679W        W23526   7.655   8.962   1.791  0.0883 -0.1557 -0.2588
 6680W        W23527   5.960   5.664  15.636 -0.1375  0.0599 -0.1057
 6681W        W23528  11.249  17.787  16.130  0.2287 -0.1386  0.2726
 6682W        W23529  16.102   5.754   2.615  0.3222  0.2815 -0.1980
 6683W        W23530   7.060  14.690  16.158 -0.0377  0.0605  0.2496
 6684W        W23531   2.935   2.381   1.888 -0.0296  0.0254 -0.0318
 6685W        W23532  16.038  11.952  15.170  0.1222  0.0789  0.0720
 6686W        W23533  14.824  16.659  16.647  0.1540 -0.0422 -0.2044
 6687W        W23534   4.817  14.746   1.800 -0.2346  0.0421 -0.2677
 6688W        W23535  12.674   1.894  14.967 -0.1417  0.1126 -0.0799
 6689W        W23536  16.570   9.769  13.607 -0.1021 -0.0545  0.3584
 6690W        W23537  17.610  11.927  13.108  0.2396  0.1207 -0.0523
 6691W        W23538  17.773  17.703  14.495 -0.0316 -0.0896  0.1541
 6692W        W23539  16.437   5.776  13.296  0.1432 -0.1420 -0.1323
 6693W        W23540  17.905  14.266   3.741 -0.0258 -0.0392  0.0187
 6694W        W23541  10.069   5.041   3.828  0.0695 -0.1329  0.4975
 6695W        W23542   4.897   8.210   4.131  0.1697 -0.1488 -0.0890
 6696W        W23543  16.018   6.451   4.461  0.0672  0.1251  0.1356
 6697W        W23544  15.908   2.957  12.963 -0.0715  0.0607  0.3285
 6698W        W23545   7.300  10.814   4.626 -0.3089 -0.2047 -0.0714
 6699W        W23546   1.474   7.304  12.227  0.3596  0.0235  0.1085
 6700W        W23547   2.572   0.194  16.002 -0.0438  0.0334  0.1754
 6701W        W23548   2.894   9.026   4.737 -0.4005  0.1147  0.0643
 6702W        W23549   1.872   6.894   0.109 -0.1093 -0.0848 -0.1195
 6703W        W23550   5.755   5.084   3.739  0.0240 -0.0973 -0.2742
 6704W        W23551  14.945   8.363  12.828 -0.0656 -0.2914 -0.0405
 6705W        W23552   0.656  17.885  15.736 -0.0866  0.0525  0.0857
 6706W        W23553  15.210   6.034   5.129 -0.1495  0.0168  0.1613
 6707W        W23554   7.543   3.633   4.756 -0.1710 -0.1435 -0.2232
 6708W        W23555   0.245   6.437   0.454  0.2495 -0.4991  0.2277
 6709W        W23556   9.684  15.118  15.992  0.0650 -0.1780 -0.1057
 6710W        W23557   0.042  12.569  13.106  0.0615 -0.0573 -0.3529
 6711W        W23558  11.390   2.457  14.385 -0.0483 -0.1063  0.1458
 6712W        W23559   2.426  11.948   1.988  0.1386 -0.0930  0.1292
 6713W        W23560  12.917  14.587  12.548  0.0759  0.0297  0.2161
 6714W        W23561   3.819   0.154   2.754  0.0176 -0.2514  0.1098
 6715W        W23562   4.162  15.498  14.339  0.4274  0.1104  0.0479
 6716W        W23563   2.725   1.386   0.806  0.0840 -0.2008  0.0365
 6717W        W23564  14.905  13.259   3.050  0.0752 -0.0421  0.2241
 6718W        W23565   9.226  16.998   2.556  0.1487 -0.4677 -0.1151
 6719W        W23566  13.614  17.287   3.221 -0.0742  0.4255  0.3120
 6720W        W23567  11.882  17.901   1.933 -0.0017 -0.2654  0.1849
 6721W        W23568   4.170   5.615  12.668 -0.3420 -0.2358 -0.2010
 6722W        W23569   6.575   8.803  15.614  0.0460 -0.0383 -0.0103
 6723W        W23570  11.557  14.183   5.768  0.1615 -0.2059 -0.0964
 6724W        W23571  11.291  17.661  16.632 -0.1381 -0.2960  0.0196
 6725W        W23572  15.478   1.628  15.755  0.0762  0.1087 -0.1969
 6726W        W23573  17.803   2.905  12.957 -0.3548  0.0557 -0.1012
 6727W        W23574  17.600   9.655  13.984  0.1354  0.1778  0.0801
 6728W        W23575   0.152  11.354   4.508  0.3344  0.1210  0.0156
 6729W        W23576  14.130  11.913  14.828  0.1629  0.0836  0.0511
 6730W        W23577  15.471   3.272  16.435  0.1747  0.0377 -0.2501
 6731W        W23578  11.379  10.611  12.978  0.0241  0.0088 -0.2977
 6732W        W23579  14.993   0.256  16.426 -0.1222  0.3097 -0.0636
 6733W        W23580  17.763   6.100  16.392 -0.1720  0.3800  0.2057
 6734W        W23581   2.394   5.052  15.184 -0.1089 -0.1129 -0.0096
 6735W        W23582   5.582   5.617  12.326 -0.1184  0.1370  0.0097
 6736W        W23583   4.009  16.329  15.939 -0.0071 -0.1007 -0.1656
 6737W        W23584   0.736  13.021  15.118  0.1537 -0.2128  0.1443
 6738W        W23585   0.901  12.127   1.960 -0.4152 -0.4470 -0.0293
 6739W        W23586   4.624  16.229  14.967 -0.0701  0.2028 -0.0794
 6740W        W23587   2.120   9.331   0.797 -0.0376  0.2042 -0.1742
 6741W        W23588  11.846  12.767   4.223  0.0371 -0.0593 -0.2205
 6742W        W23589  17.606  10.004   0.152  0.0070  0.0188 -0.1068
 6743W        W23590   1.629   4.397  15.638 -0.1555 -0.0848  0.0013
 6744W        W23591  10.413  16.265   3.915  0.0922 -0.2795 -0.0738
 6745W        W23592   9.070   4.065   3.724  0.0388  0.1224  0.1450
 6746W        W23593   7.062   7.939  12.944  0.1381  0.1313 -0.2403
 6747W        W23594   2.568   9.046   0.059 -0.0318  0.0971  0.2419
 6748W        W23595   3.317   7.573   4.783  0.0081  0.0789 -0.2050
 6749W        W23596  12.647  14.597  14.127 -0.0091  0.0105  0.0162
 6750W        W23597  17.458   0.359  13.806  0.0654 -0.2068  0.1426
 6751W        W23598   3.762  10.252   1.053 -0.3575 -0.0115 -0.1430
 6752W        W23599   8.572  12.833  15.991  0.0975  0.4784 -0.2248
 6753W        W23600   2.651   6.901  14.686  0.1368 -0.0691 -0.0639
 6754W        W23601   3.231   8.037   2.745 -0.4640 -0.0652  0.0145
 6755W        W23602  15.130  12.248   2.848 -0.0686 -0.0411  0.0387
 6756W        W23603  16.029   8.910  12.875 -0.0153  0.2343 -0.0281
 6757W        W23604   5.748   3.822  16.286 -0.0048 -0.1509 -0.1104
 6758W        W23605  11.344  16.546   1.215 -0.0539 -0.3468  0.1895
 6759W        W23606   0.702   1.490   0.207  0.2113 -0.0417  0.0189
 6760W        W23607   6.763  14.999  15.637  0.2046 -0.0353 -0.2188
 6761W        W23608   4.291   1.758   2.320 -0.4230 -0.3102 -0.2552
 6762W        W23609   3.583   6.875   2.254 -0.2558 -0.0563 -0.2847
 6763W        W23610   2.170  13.088  15.147  0.1685  0.2820 -0.0949
 6764W        W23611   7.912   2.833   4.647 -0.3115  0.2543 -0.3307
 6765W        W23612  17.083   9.283  15.285 -0.1389  0.1117  0.0072
 6766W        W23613  14.189   4.661   4.192 -0.2587 -0.0661  0.1102
 6767W        W23614   9.817  17.745   0.506  0.0402  0.0252 -0.0029
 6768W        W23615  16.737  17.353  15.656 -0.1802  0.1577  0.0202
 6769W        W23616   5.260  13.632  12.566  0.0221  0.1792  0.0614
 6770W        W23617  12.133   6.472   1.919 -0.3331  0.1964 -0.1070
 6771W        W23618   8.133   4.323  15.666 -0.2507  0.0958  0.0036
 6772W        W23619  16.496  15.842  13.229  0.1567 -0.1049 -0.1564
 6773W        W23620   1.177  13.217   5.513 -0.0652 -0.0059 -0.2569
 6774W        W23621   8.048   9.878   4.613 -0.1250  0.2247 -0.0808
 6775W        W23622   5.149  11.654   5.392  0.0309 -0.0629  0.3955
 6776W        W23623   4.699   7.677  13.924  0.2547  0.0575 -0.1728
 6777W        W23624  16.245   4.128  16.724  0.0521 -0.1983 -0.2303
 6778W        W23625  16.863   1.468   4.303  0.1458  0.1541 -0.1538
 6779W        W23626  16.663   4.135   1.182  0.0085 -0.2117  0.2519
 6780W        W23627  16.210   9.669   1.147 -0.1636 -0.2745  0.0794
 6781W        W23628   6.871  16.359  13.957 -0.1052  0.2476 -0.2307
 6782W        W23629  12.385   7.922   6.095 -0.2816 -0.0232 -0.0916
 6783W        W23630   7.593   7.517   0.984 -0.2289 -0.0528  0.1630
 6784W        W23631  13.680   8.464  15.670 -0.1730 -0.2420  0.0325
 6785W        W23632  11.760  17.334   3.406  0.0739 -0.2900  0.0936
 6786W        W23633  12.095  15.456   4.986 -0.0474  0.0446 -0.2039
 6787W        W23634   5.813   4.410   2.990  0.0786 -0.0480 -0.0049
 6788W        W23635   7.036   3.067  13.518  0.1318 -0.0391 -0.1673
 6789W        W23636  15.343  13.008  12.398  0.0476 -0.0339  0.0288
 6790W        W23637   7.840   5.382  15.376 -0.0696  0.3098 -0.2013
 6791W        W23638   4.566  14.588  14.076 -0.3534 -0.0666 -0.1913
 6792W        W23639  15.945   9.680  13.727 -0.0456 -0.0205  0.2014
 6793W        W23640   8.923  14.855  14.309  0.0045  0.0243 -0.1134
 6794W        W23641  16.069  15.645   0.783 -0.0910 -0.0053 -0.3480
 6795W        W23642  10.804  16.855  15.409  0.0462  0.0763  0.0742
 6796W        W23643  17.584   0.054  11.716  0.1513 -0.4038  0.0868
 6797W        W23644   5.589  10.304  13.484 -0.1332  0.2251 -0.2436
 6798W        W23645   3.705   4.825   1.925  0.1280 -0.0322  0.0386
 6799W        W23646  12.378  14.557   5.299  0.0328  0.0343 -0.2250
 6800W        W23647  13.483  13.189   4.705 -0.0019 -0.1823 -0.1012
 6801W        W23648  10.243  10.660   2.755  0.1113 -0.2049  0.3208
 6802W        W23649   6.956   1.816  12.296 -0.0283 -0.2343 -0.1485
 6803W        W23650   0.349   5.985  11.565  0.1790  0.0003  0.1455
 6804W        W23651  10.249   1.384  16.537  0.2683  0.0350  0.1070
 6805W        W23652  10.186   1.551  11.044 -0.1725 -0.0793  0.2182
 6806W        W23653   5.833   0.735   3.876 -0.1717 -0.1392  0.1492
 6807W        W23654   2.656   0.148  14.474 -0.0910  0.2705 -0.1012
 6808W        W23655  16.878   8.913   4.179  0.2696  0.2130 -0.0115
 6809W        W23656  16.221  11.601  15.972 -0.0726  0.1936  0.4714
 6810W        W23657  15.867  16.459   2.849  0.0478 -0.0221  0.0341
 6811W        W23658   3.971   2.975   4.637  0.0786 -0.0922  0.0548
 6812W        W23659   5.359  15.779   5.491  0.3071  0.0375 -0.0957
 6813W        W23660   0.419  17.043   2.412 -0.0874 -0.0224  0.0529
 6814W        W23661   6.447   6.586  15.821 -0.2190  0.1035  0.0401
 6815W        W23662  17.141  11.979   5.290 -0.0508  0.3475 -0.0157
 6816W        W23663   6.114  13.591   2.567 -0.1144 -0.2618 -0.0812
 6817W        W23664  11.130  12.037   1.189 -0.0429  0.3744  0.0380
 6818W        W23665   2.337  10.904  15.350 -0.3742  0.1341  0.1476
 6819W        W23666   3.376  16.759   0.264  0.2750  0.1017 -0.1302
 6820W        W23667   6.829  12.714   0.681 -0.1413  0.4426 -0.0814
 6821W        W23668   4.477   9.444  13.738  0.0220  0.2340  0.1084
 6822W        W23669   2.104   1.172   2.548 -0.0534 -0.0707  0.0116
 6823W        W23670   1.155  13.572   1.388  0.1193 -0.0464  0.3073
 6824W        W23671  12.979   6.288   1.881  0.2389  0.1189  0.1525
 6825W        W23672   5.982   7.418   1.697  0.0738 -0.1584 -0.0657
 6826W        W23673   5.737  15.473  11.686 -0.2205  0.0354  0.0552
 6827W        W23674  17.409  10.114  14.061  0.1233  0.2484  0.2194
 6828W        W23675   3.328   2.016  12.549  0.0559  0.0740  0.0918
 6829W        W23676   3.969  11.097  16.403 -0.4956 -0.3124  0.0815
 6830W        W23677   0.298  17.690   0.066  0.2565  0.3691  0.1107
 6831W        W23678  12.701   9.623   1.413  0.2259  0.2359 -0.0870
 6832W        W23679  14.677  10.118  12.525  0.3198 -0.0528 -0.3154
 6833W        W23680  11.930  15.002  12.970 -0.1787 -0.0245 -0.1301
 6834W        W23681   0.772   2.434   3.925 -0.6391 -0.1188  0.1096
 6835W        W23682   5.024   5.478  13.750  0.1016 -0.0765 -0.0650
 6836W        W23683   0.398  10.270  13.801 -0.0199  0.1644  0.3566
 6837W        W23684   7.471  10.888  14.990  0.2757 -0.0094  0.0831
 6838W        W23685  13.466   0.488  15.891 -0.3147  0.2018  0.1169
 6839W        W23686   1.435  14.886   3.626 -0.1547 -0.0603 -0.1463
 6840W        W23687  15.436  14.861  16.415  0.1396 -0.0147 -0.0163
 6841W        W23688   6.500  15.436  12.324 -0.0672  0.0136  0.0999
 6842W        W23689   7.985  11.347   1.730  0.1769 -0.1800 -0.1548
 6843W        W23690  10.987   9.015  13.185  0.0257  0.1080 -0.0946
 6844W        W23691  10.350   0.893  15.683  0.1406 -0.1038 -0.2232
 6845W        W23692  13.642  15.399   4.688 -0.0486  0.0677  0.0482
 6846W        W23693  10.485   3.089   4.787 -0.1543 -0.1096 -0.0936
 6847W        W23694  11.196  15.729   2.267  0.0082 -0.0954  0.2547
 6848W        W23695  16.573   3.608   3.118  0.1242  0.0587  0.1652
 6849W        W23696  14.193   1.355  11.440  0.0818  0.3023 -0.2735
 6850W        W23697  11.256   0.704  15.639  0.0772  0.4665 -0.0187
 6851W        W23698  14.234  14.664   5.288 -0.1147  0.2120 -0.4022
 6852W        W23699  10.774  15.324  16.464 -0.1013 -0.2290 -0.3655
 6853W        W23700  13.835  14.044  14.173 -0.1675 -0.2214 -0.1488
 6854W        W23701  10.908   2.645   4.699  0.0558 -0.2472  0.0884
 6855W        W23702   0.512   5.599  11.898  0.5372 -0.1874  0.1596
 6856W        W23703  12.287  12.885  16.285 -0.3483 -0.3439 -0.0135
 6857W        W23704   9.258   7.529   4.636  0.1149  0.2097 -0.0977
 6858W        W23705  11.716   0.623  16.205 -0.2346 -0.1697 -0.0243
 6859W        W23706  17.941  15.772  15.151  0.1045 -0.0608 -0.1486
 6860W        W23707   6.042  11.824  12.779 -0.0907  0.1161 -0.3319
 6861W        W23708   0.235   7.778  16.035 -0.0413 -0.1392  0.0635
 6862W        W23709   4.064   8.681  13.287  0.1312  0.1215  0.2639
 6863W        W23710   0.598  11.462   5.015 -0.0015  0.3054  0.1135
 6864W        W23711   2.223   4.126  16.638 -0.0107 -0.0884 -0.0058
 6865W        W23712   3.115  16.313   2.802 -0.0198  0.0310  0.0649
 6866W        W23713  10.278   8.462  15.295  0.1099  0.1943 -0.2198
 6867W        W23714  10.725  12.115   5.211 -0.1751  0.0128  0.0432
 6868W        W23715  12.704  10.226   0.129  0.2849 -0.0404  0.2170
 6869W        W23716  12.362  16.755  15.965  0.1225  0.1449 -0.0703
 6870W        W23717   9.974   8.072  14.098  0.1050 -0.1861 -0.1771
 6871W        W23718   0.770  10.224  11.817 -0.0316  0.0463  0.0451
 6872W        W23719   6.439   5.885  12.002  0.2093 -0.0755 -0.1723
 6873W        W23720   5.474   3.025  16.580 -0.0647 -0.3654 -0.0958
 6874W        W23721   2.590   6.876  11.719 -0.1369 -0.0798 -0.0487
 6875W        W23722  11.418  15.545  12.606  0.1813 -0.1865 -0.1928
 6876W        W23723   4.564   1.166  15.638  0.0533  0.0040 -0.0396
 6877W        W23724   4.577  12.381   4.374  0.0237 -0.0995  0.2449
 6878W        W23725   4.914  11.680  15.704  0.1665 -0.0696 -0.4557
 6879W        W23726  13.499   1.531   5.521  0.0912 -0.2107  0.0231
 6880W        W23727  16.957   6.192  16.627  0.3633 -0.3286 -0.1409
 6881W        W23728   3.531  16.845  13.484  0.2136 -0.1725  0.4413
 6882W        W23729   5.571   3.503  12.688  0.0612 -0.1819  0.4164
 6883W        W23730  13.787  13.621   5.022  0.1063  0.0181  0.1928
 6884W        W23731   9.852   7.683   2.595  0.2618 -0.0168 -0.1855
 6885W        W23732  15.920  17.732   1.949  0.1981 -0.0943 -0.2357
 6886W        W23733   5.135   6.455  12.503  0.0047 -0.1730  0.0651
 6887W        W23734   3.681  16.851   2.346  0.1346  0.2459 -0.0903
 6888W        W23735   2.633  12.407   2.043  0.1517  0.0839  0.2156
 6889W        W23736  13.940   2.252   0.106  0.1821 -0.1726  0.1623
 6890W        W23737   6.941  17.520   3.211 -0.2538 -0.2531 -0.2494
 6891W        W23738   3.349  15.525   2.258  0.1756  0.2231  0.3588
 6892W        W23739   5.903  17.207   5.355 -0.1985 -0.1603  0.1710
 6893W        W23740  12.984   8.577  12.398 -0.0920  0.2456 -0.1591
 6894W        W23741   2.860   3.749  15.694  0.1346  0.1631  0.1133
 6895W        W23742   1.719  17.743  16.483  0.0072  0.1183  0.0868
 6896W        W23743   8.524  14.315  13.571  0.1377 -0.1421  0.4384
 6897W        W23744  10.363   4.253  15.744  0.4394  0.1094  0.1313
 6898W        W23745   2.520   3.707   1.954  0.2259  0.3446  0.0161
 6899W        W23746  14.221  10.511  16.429 -0.3341 -0.1457 -0.0169
 6900W        W23747   6.333  13.495   4.167 -0.2544 -0.1098  0.1894
 6901W        W23748   6.454  10.896   3.757  0.2410  0.0093 -0.0109
 6902W        W23749  10.222   9.675  16.615  0.0854  0.2898 -0.3716
 6903W        W23750  16.567   0.625   4.503 -0.0466 -0.3126 -0.1353
 6904W        W23751   6.114  13.501   4.763  0.0301  0.1042  0.2427
 6905W        W23752  16.254  13.027   1.350  0.1292 -0.1462  0.4364
 6906W        W23753  11.477  10.903   2.209  0.3245 -0.2278  0.3106
 6907W        W23754   4.123  16.874  11.414  0.0409  0.1967  0.2615
 6908W        W23755   5.970  15.777  11.347 -0.2217  0.3347  0.0326
 6909W        W23756   7.020  16.627   5.644 -0.0010  0.0279 -0.1649
 6910W        W23757  10.563   5.400   2.011 -0.0437  0.2455 -0.0788
 6911W        W23758   2.135   9.595  14.343  0.0834  0.0013 -0.3279
 6912W        W23759   9.561   4.953   3.538 -0.1095 -0.0159 -0.0928
 6913W        W23760  10.089   3.161   4.488  0.1397 -0.0953 -0.0450
 6914W        W23761   8.564   0.781   2.977  0.0426 -0.1707 -0.0031
 6915W        W23762  12.903   2.197  14.627 -0.0625  0.1957  0.2605
 6916W        W23763  10.370  14.517   4.843  0.0192 -0.1208  0.0107
 6917W        W23764   4.535  15.632  11.148  0.1279  0.0005  0.0759
 6918W        W23765  13.237   0.810  11.626 -0.0630 -0.2347  0.1745
 6919W        W23766  11.589  12.280   1.328 -0.0283 -0.2988  0.0377
 6920W        W23767   1.341  12.030   4.840 -0.0165 -0.3187 -0.0522
 6921W        W23768  13.574  12.994   4.119  0.1378 -0.0849 -0.0701
 6922W        W23769   5.951   4.499   4.461  0.2778  0.0056  0.1034
 6923W        W23770   3.874   3.059  12.433 -0.2143  0.0922 -0.0306
 6924W        W23771  12.125   8.847   3.985  0.2517 -0.0265 -0.4077
 6925W        W23772  14.138  17.708  12.223  0.1466 -0.0104 -0.1741
 6926W        W23773   2.853  15.764   2.970 -0.0028  0.0656  0.0336
 6927W        W23774  11.875   4.155   0.696  0.0863 -0.0567  0.1099
 6928W        W23775   0.617   2.957  11.688  0.1994  0.0010  0.1817
 6929W        W23776   5.416  12.817  13.485 -0.0413  0.0889  0.0536
 6930W        W23777  10.718   1.613   1.075  0.0682 -0.1203  0.2055
 6931W        W23778   0.671   5.926  16.380  0.0549 -0.1985 -0.0247
 6932W        W23779   3.657  14.756   5.445 -0.3041  0.2054 -0.0078
 6933W        W23780  16.644   7.800  13.368  0.3691  0.2660 -0.2003
 6934W        W23781   0.429  11.242  14.109 -0.0236  0.1667 -0.4816
 6935W        W23782   6.080   6.974  12.894 -0.0706 -0.0642  0.0284
 6936W        W23783  14.301  11.888  11.049 -0.2617 -0.3278  0.0961
 6937W        W23784   0.470   4.460   1.909  0.1994  0.0280 -0.0608
 6938W        W23785  15.785   3.392  11.297 -0.0796  0.0447 -0.1075
 6939W        W23786   9.076  12.997   2.809 -0.0254  0.2629 -0.2406
 6940W        W23787  10.365  10.648   1.712 -0.1402  0.2057  0.1125
 6941W        W23788  16.459   9.344   3.377 -0.2150  0.4252 -0.0351
 6942W        W23789  17.772   6.818   2.780 -0.2747 -0.0756  0.1100
 6943W        W23790  16.762   9.721   3.424 -0.2775 -0.0307 -0.2311
 6944W        W23791  12.474   4.111   3.524 -0.2146  0.1375  0.0340
 6945W        W23792   5.080  10.526  16.443 -0.1662  0.1168  0.1691
 6946W        W23793  17.358   6.223  13.068 -0.1214  0.0579 -0.1242
 6947W        W23794   1.442   4.546  13.815  0.1028  0.2672 -0.0128
 6948W        W23795   8.670  17.636  14.612  0.0678  0.0653 -0.1202
 6949W        W23796   9.984   6.097   5.661 -0.0314 -0.1119 -0.2840
 6950W        W23797   5.454  10.904  13.783  0.0616 -0.0945  0.2914
 6951W        W23798   0.584  16.505  12.429 -0.0332  0.0580  0.0465
 6952W        W23799   6.585  10.050   0.056 -0.0790  0.0962  0.3916
 6953W        W23800   5.420  12.011  15.745 -0.1025 -0.0497 -0.2210
 6954W        W23801   2.537  10.964  13.441 -0.0023  0.0642  0.1298
 6955W        W23802  11.578   0.832   0.333 -0.0865 -0.1999  0.0678
 6956W        W23803  16.581   8.045   1.716 -0.1469  0.1411 -0.0791
 6957W        W23804   4.891   8.449   4.835  0.0530 -0.2146 -0.0803
 6958W        W23805   1.805   7.626  14.726 -0.0473 -0.0323 -0.1175
 6959W        W23806   6.276  16.443   4.058  0.1307 -0.0981  0.3987
 6960W        W23807  12.742   9.122   3.367 -0.1414  0.0374 -0.3443
 6961W        W23808  14.899   4.955   2.129 -0.2351 -0.0409 -0.0126
 6962W        W23809   4.651  12.673   5.870  0.0474 -0.1787  0.2035
 6963W        W23810  11.147  16.515   4.499 -0.1764  0.2956  0.0355
 6964W        W23811  16.334  11.324   2.451 -0.0695  0.1084 -0.0470
 6965W        W23812  10.311   3.741   0.890  0.1907  0.0908  0.0765
 6966W        W23813   4.706  10.335   3.881  0.0422 -0.1314 -0.0958
 6967W        W23814   7.166  17.829   1.364  0.2593  0.0699  0.1713
 6968W        W23815   9.045  14.406   4.027 -0.1612 -0.0389  0.5448
 6969W        W23816   4.353   9.885  14.561  0.1564 -0.1526 -0.1284
 6970W        W23817   0.274   3.995   0.714  0.2691 -0.3444  0.1076
 6971W        W23818   2.617   2.858   4.663  0.1467 -0.2077  0.0677
 6972W        W23819   8.511  13.090  14.390 -0.0612  0.3783 -0.3187
 6973W        W23820   6.694  12.351  14.373  0.1082 -0.1302  0.1113
 6974W        W23821   3.973   2.982  14.922 -0.0314  0.0572  0.1725
 6975W        W23822  10.898   8.226  12.512  0.2684  0.1250  0.1023
 6976W        W23823  16.402  15.528   0.293 -0.1999  0.1590 -0.2467
 6977W        W23824   2.149  17.063  11.653 -0.1449  0.2520  0.0821
 6978W        W23825   6.621   7.255  16.733  0.0543  0.1539 -0.0703
 6979W        W23826  12.046   8.847   4.531  0.1556 -0.0490  0.2017
 6980W        W23827  10.869  16.397   3.678 -0.1135  0.0935  0.3516
 6981W        W23828   9.832  15.300   6.248  0.0235 -0.1878  0.1840
 6982W        W23829  13.738   1.351   2.051 -0.0050  0.0745  0.0996
 6983W        W23830  13.914   1.748   4.685 -0.2497 -0.0014 -0.0062
 6984W        W23831  11.936   1.414   4.010  0.2551  0.1061  0.2246
 6985W        W23832  13.195   4.206   2.122  0.2178 -0.1554  0.0795
 6986W        W23833   4.443   0.699  12.187 -0.2063 -0.0857  0.2395
 6987W        W23834   6.325   9.226   5.917  0.1079 -0.3089  0.0946
 6988W        W23835  15.605  10.468  13.172 -0.0267  0.1327  0.1320
 6989W        W23836  10.245   7.721  14.270 -0.0219 -0.3592 -0.4008
 6990W        W23837   4.571  13.022   6.230  0.1188  0.0197 -0.1373
 6991W        W23838  14.649  15.444   3.323 -0.1029 -0.1356 -0.3873
 6992W        W23839   2.936  10.260   2.389 -0.3038 -0.0837 -0.1091
 6993W        W23840   1.978  16.190  13.517 -0.2366  0.0466  0.0106
 6994W        W23841   1.697  14.471   3.470 -0.1701  0.3797  0.2120
 6995W        W23842   7.978   5.708  13.648  0.0595 -0.2831 -0.1069
 6996W        W23843   6.216  12.078  13.408  0.1723  0.0816 -0.1388
 6997W        W23844   5.216  15.552  11.820 -0.0834  0.1818  0.1664
 6998W        W23845  16.663   2.380   1.759  0.1622  0.2067  0.1616
 6999W        W23846  13.899  14.272   2.873  0.4129  0.1203  0.0164
 7000W        W23847  17.033   2.668  15.410  0.1085  0.0421 -0.0310
 7001W        W23848  15.995   2.152   3.876  0.1434 -0.2601  0.0659
 7002W        W23849   8.107   8.552   2.288  0.1169 -0.4188 -0.0096
 7003W        W23850  13.037  12.369  11.902 -0.0859 -0.1813  0.0756
 7004W        W23851  16.317   8.425   2.175 -0.3814 -0.0813  0.0224
 7005W        W23852   9.299  14.200   3.126  0.2718  0.0874  0.0162
 7006W        W23853   2.882   1.459   4.903  0.2543  0.1490  0.0329
 7007W        W23854   3.105  10.849   5.040 -0.0662  0.0682  0.3205
 7008W        W23855   6.912  14.747  11.686  0.1429 -0.3920 -0.2125
 7009W        W23856  10.857  17.119   3.904 -0.2208 -0.1159 -0.3984
 7010W        W23857   3.026   2.512  13.379  0.1113 -0.1185  0.2141
 7011W        W23858  16.253  17.653   2.910  0.0410 -0.2280  0.2611
 7012W        W23859  17.756   2.945   4.749 -0.0539  0.1208 -0.0589
 7013W        W23860  15.982   8.066   2.338  0.2008 -0.0472 -0.0032
 7014W        W23861  16.695  17.156   2.215 -0.2306  0.0842  0.4152
 7015W        W23862  17.370  15.822  13.804 -0.2837 -0.2604 -0.2818
 7016W        W23863   0.918  12.788  11.990 -0.1798  0.1290 -0.2552
 7017W        W23864   9.072   9.273   0.269 -0.4488  0.0703  0.0644
 7018W        W23865   5.849   3.997  12.028  0.1196 -0.1216  0.1438
 7019W        W23866  11.677  13.186   4.005 -0.1893 -0.0922  0.1143
 7020W        W23867   7.182   4.663  13.887 -0.0383  0.0488  0.0907
 7021W        W23868  15.011  17.237   4.769 -0.3659 -0.0842 -0.0399
 7022W        W23869   5.934  17.591  13.738  0.2503 -0.0416  0.2556
 7023W        W23870  17.227   6.742   1.172 -0.1031 -0.3757  0.0439
 7024W        W23871   0.774   3.232   0.452 -0.1341 -0.1033  0.2144
 7025W        W23872   5.907   1.914  14.593  0.1027 -0.1342 -0.0192
 7026W        W23873   1.165   9.931  11.628  0.1592  0.0709  0.0227
 7027W        W23874  14.603   2.723   4.371 -0.0816  0.2467  0.2638
 7028W        W23875   6.276   5.048   3.557  0.1553  0.1249  0.2590
 7029W        W23876   7.395  10.578  15.727  0.0991 -0.0248 -0.2735
 7030W        W23877  11.373   7.892   2.596  0.0365 -0.1263  0.3420
 7031W        W23878  17.213  11.098   4.836 -0.1137  0.0303  0.0041
 7032W        W23879   0.445   8.423  11.817  0.3547  0.0686  0.0278
 7033W        W23880  16.242   1.979  15.300 -0.2191 -0.1440  0.0688
 7034W        W23881   8.114  17.090  12.795  0.0259 -0.0263  0.0602
 7035W        W23882   4.512  17.866  14.629 -0.1882 -0.2503  0.0098
 7036W        W23883   1.115   2.486   0.428  0.2630 -0.0377  0.0923
 7037W        W23884   9.063   8.568  12.644  0.2690 -0.0818  0.0801
 7038W        W23885  11.397  17.710   4.668 -0.1439 -0.1162  0.0212
 7039W        W23886  11.883  13.220   1.038  0.1117  0.2226 -0.0308
 7040W        W23887   0.560  11.500   0.306  0.1878 -0.1922  0.0576
 7041W        W23888  15.590   3.202   1.878 -0.0966 -0.2728  0.0847
 7042W        W23889  10.229  10.729  15.553  0.0364  0.0643  0.1368
 7043W        W23890  13.893   4.633  11.701  0.0355 -0.6349  0.0616
 7044W        W23891   8.627   6.975   1.363  0.0112  0.0736 -0.0142
 7045W        W23892  11.681  17.387  11.752  0.0788 -0.1165  0.1538
 7046W        W23893  10.166  13.244   4.716  0.0615  0.0524 -0.1228
 7047W        W23894   5.795   9.013  13.312  0.0769 -0.0025 -0.0328
 7048W        W23895  14.432  10.886  15.031 -0.2480 -0.0442 -0.1912
 7049W        W23896   6.398  17.302  11.699  0.0356 -0.0726 -0.0671
 7050W        W23897   6.813   4.045   1.451  0.0614 -0.0736 -0.0693
 7051W        W23898   4.271   5.143  15.142  0.1496  0.0972  0.1368
 7052W        W23899   1.296   4.132   3.927 -0.1487 -0.2013  0.1046
 7053W        W23900   3.649   1.630  16.209 -0.0318 -0.2669  0.0047
 7054W        W23901   6.818  14.689  12.613  0.0479  0.1606  0.0931
 7055W        W23902  13.521  14.414  14.782 -0.1514 -0.2446 -0.0370
 7056W        W23903  17.219   9.266  14.787  0.0966  0.1408  0.0574
 7057W        W23904  14.462  17.688  13.456  0.0521 -0.0708 -0.0317
 7058W        W23905   3.002  15.208   2.986  0.1624  0.0186  0.2176
 7059W        W23906  14.469   3.309   3.482  0.1580  0.0251 -0.0800
 7060W        W23907   4.352   2.176  12.736  0.2411 -0.0752  0.1530
 7061W        W23908  12.377   8.353  12.975  0.2000  0.0809 -0.0284
 7062W        W23909  12.710   4.738  13.036  0.0837 -0.1950  0.0766
 7063W        W23910   2.646  15.388   0.335 -0.4230  0.0250 -0.2679
 7064W        W23911   0.327   5.209   2.336 -0.0886  0.0130 -0.0106
 7065W        W23912  10.058  15.074  12.778  0.4514 -0.0245 -0.0408
 7066W        W23913  13.522   8.220  16.714  0.1371 -0.2249  0.0290
 7067W        W23914   7.882   1.632   3.817  0.1647  0.0989  0.1226
 7068W        W23915   7.920   4.703   3.239 -0.0161  0.0511  0.0784
 7069W        W23916  14.021  16.928  11.950 -0.2555  0.0235  0.1962
 7070W        W23917  12.423  10.819  16.166  0.1192  0.1203  0.1919
 7071W        W23918   4.834   7.398   4.685 -0.1785 -0.0843  0.1594
 7072W        W23919  15.927   9.323   1.538 -0.2556  0.1462 -0.0379
 7073W        W23920   1.839  14.613   2.286 -0.1219 -0.0338  0.0563
 7074W        W23921   8.945   0.058   2.262 -0.1799 -0.0705 -0.1651
 7075W        W23922  12.014  12.160  15.972  0.2381 -0.1612  0.0750
 7076W        W23923   9.751   3.077   3.083  0.2947  0.0773  0.6269
 7077W        W23924   2.053   2.648   4.587 -0.0166 -0.0167  0.2183
 7078W        W23925   6.506  12.602   5.540 -0.0541  0.4854  0.0870
 7079W        W23926  14.093   5.653  11.861  0.1065 -0.1819 -0.0736
 7080W        W23927   4.718  15.389  15.532  0.1086 -0.0292  0.2798
 7081W        W23928   3.845  14.997   0.565 -0.2379  0.1123 -0.2051
 7082W        W23929   8.943  14.678  16.147  0.1005  0.0329 -0.0980
 7083W        W23930   2.012  12.427   0.080 -0.1042 -0.1134 -0.0047
 7084W        W23931  14.434  15.785   6.062  0.2633 -0.3068 -0.1948
 7085W        W23932  15.085   0.164  15.965 -0.2124 -0.1430 -0.0435
 7086W        W23933   3.102  11.715  13.287  0.0465  0.0547 -0.1618
 7087W        W23934  11.124   2.589  15.739 -0.1730 -0.0508 -0.0030
 7088W        W23935  10.275   9.860  12.768  0.1542 -0.0828 -0.2535
 7089W        W23936  12.127   8.805  13.877 -0.3500 -0.0572  0.0321
 7090W        W23937  12.163   6.808   5.408 -0.1626 -0.0239 -0.1099
 7091W        W23938   0.659   0.023  14.732  0.0972  0.1567  0.0483
 7092W        W23939   7.856  13.326   1.605 -0.1329  0.3467  0.3422
 7093W        W23940   5.955   6.392   1.881 -0.2451 -0.0540  0.1152
 7094W        W23941  13.544   9.309   3.618 -0.0814 -0.2852 -0.0323
 7095W        W23942   8.915  15.281   4.790  0.1462  0.1134  0.0263
 7096W        W23943  17.407   7.119   0.076  0.0742 -0.1816  0.1072
 7097W        W23944   0.542   4.460  12.907  0.0671  0.1366  0.2134
 7098W        W23945  16.783   6.332  11.377  0.1443  0.2289 -0.0016
 7099W        W23946  13.919   2.156   3.773  0.0038 -0.0831 -0.2571
 7100W        W23947   4.027   3.357   2.015  0.0230 -0.0439  0.1159
 7101W        W23948  10.232   4.618   5.517 -0.1309 -0.0885  0.0253
 7102W        W23949   5.548   7.269  15.721  0.0588  0.2253 -0.0995
 7103W        W23950  17.380  16.198  15.855  0.1111 -0.1362  0.1888
 7104W        W23951  12.383   8.887  16.659  0.1328 -0.1672 -0.1435
 7105W        W23952   3.900   5.661  13.063 -0.1372  0.0693 -0.0976
 7106W        W23953  10.853   5.480  16.264  0.1638 -0.2713 -0.4341
 7107W        W23954   8.069  14.899  13.090 -0.0293  0.0022 -0.1166
 7108W        W23955  14.706  17.136   1.610  0.1640 -0.0103  0.0058
 7109W        W23956   5.149  15.061   3.564  0.0114  0.2074  0.1597
 7110W        W23957  17.896  15.352   1.540  0.0886  0.1294 -0.2311
 7111W        W23958   0.372  12.328  16.136  0.1290  0.1243 -0.1460
 7112W        W23959  14.222  11.031  12.610 -0.0392  0.3371 -0.0463
 7113W        W23960   4.532   5.281  14.492 -0.0892  0.1378  0.0854
 7114W        W23961   2.284  14.997   1.264 -0.0959  0.0388 -0.2211
 7115W        W23962  13.716   0.655  11.493  0.0799 -0.0059 -0.1294
 7116W        W23963  10.477  17.097   2.289 -0.1653 -0.1901 -0.1733
 7117W        W23964  14.161   7.304   2.565  0.0540 -0.0689  0.0855
 7118W        W23965   1.140   6.230   2.443  0.1027 -0.0950  0.2259
 7119W        W23966  13.473   4.879  10.938 -0.1490 -0.1032  0.0315
 7120W        W23967   7.618  10.786   2.750 -0.0312 -0.0740 -0.0850
 7121W        W23968  10.281  12.803   5.641  0.1095  0.2207  0.1679
 7122W        W23969  17.647   2.464   0.569 -0.1242  0.0263  0.2707
 7123W        W23970   7.490   6.121   4.695  0.0652  0.3658  0.0123
 7124W        W23971  13.586  14.394   1.141 -0.0058 -0.1918  0.1290
 7125W        W23972  13.256  11.340  12.102  0.1908  0.2263 -0.0331
 7126W        W23973   2.791  17.081   4.707  0.0416 -0.1682  0.2729
 7127W        W23974   5.545   3.251  13.207  0.0481  0.0364 -0.0683
 7128W        W23975  14.674   2.356  14.684  0.1139  0.1153  0.0586
 7129W        W23976   7.240  12.281  16.038  0.1437  0.1632  0.0448
 7130W        W23977  12.359  12.943  12.354  0.1161  0.2084 -0.1918
 7131W        W23978  14.262   3.366   0.309  0.0577 -0.6804  0.1450
 7132W        W23979   5.779   8.691   4.813  0.0625  0.0050 -0.0772
 7133W        W23980  16.567  10.809   2.183 -0.0639 -0.1466  0.0382
 7134W        W23981  12.281   5.780  16.205  0.3478 -0.1701 -0.0012
 7135W        W23982   7.238   9.318   1.893 -0.1389 -0.0509 -0.0565
 7136W        W23983   5.931  15.579   0.890  0.1392 -0.1710  0.2033
 7137W        W23984  16.807   6.731  12.466 -0.1960 -0.1120 -0.0897
 7138W        W23985   7.495   2.597   5.315  0.0254 -0.0001 -0.0574
 7139W        W23986   9.123  17.449   1.490 -0.0432 -0.1219  0.2269
 7140W        W23987   5.105  13.481   3.964  0.0129 -0.1404 -0.1041
 7141W        W23988  10.332  11.676   5.223 -0.0223  0.0406  0.1050
 7142W        W23989  15.593   3.890   0.457 -0.3441  0.0845  0.0702
 7143W        W23990  10.280  16.774  11.377 -0.0860 -0.1220 -0.4111
 7144W        W23991   7.220   0.075   0.681 -0.2051 -0.2181 -0.0336
 7145W        W23992  15.717   7.753   3.177  0.0879 -0.0570 -0.2248
 7146W        W23993   0.725  11.964   4.997  0.0018 -0.0617  0.0420
 7147W        W23994   6.299   1.726  11.580 -0.1115 -0.0121 -0.0350
 7148W        W23995   6.686   1.838  15.734 -0.1533 -0.2256 -0.3287
 7149W        W23996   5.320  11.334  12.519  0.1011 -0.1505  0.1043
 7150W        W23997   3.216  10.243  14.987  0.0029 -0.0441 -0.1371
 7151W        W23998   2.490   4.076   0.633 -0.1515 -0.0971  0.0017
 7152W        W23999   3.466  15.294  14.526 -0.1999 -0.0227  0.1884
 7153W        W24000   7.664  16.452  12.671 -0.0162  0.1212  0.1908
 7154W        W24001  12.381  14.021   6.314 -0.2195 -0.1469  0.0349
 7155W        W24002  11.721   2.327  13.519  0.0049 -0.2476 -0.0359
 7156W        W24003   9.502   6.240  12.184  0.1663 -0.1905 -0.0573
 7157W        W24004   9.826   3.342   1.471 -0.2261 -0.0241  0.3217
 7158W        W24005   9.304   5.416  14.331 -0.2165  0.2031 -0.0171
 7159W        W24006   9.098   1.425  11.734 -0.1020 -0.1403 -0.0298
 7160W        W24007  14.468  17.037   0.640 -0.0325 -0.0578  0.0429
 7161W        W24008  16.541  11.784   2.571  0.0336  0.4069 -0.0981
 7162W        W24009  12.017  11.775   1.035 -0.2156  0.1051 -0.2325
 7163W        W24010  16.516  10.554   0.297  0.2029  0.3260  0.0579
 7164W        W24011   3.605   5.841   0.102  0.3494 -0.0409  0.0824
 7165W        W24012   2.231   6.464   1.555 -0.3040  0.0951 -0.0210
 7166W        W24013  17.707   0.928  12.591 -0.1220  0.0230  0.0007
 7167W        W24014  10.427  14.679  15.011 -0.0170  0.2608 -0.0880
 7168W        W24015   3.813   6.083  16.546 -0.1336 -0.1939 -0.2838
 7169W        W24016   8.203   3.678   0.642  0.0890 -0.0128 -0.0445
 7170W        W24017  10.989  12.068   4.626  0.0319 -0.0565  0.0385
 7171W        W24018   7.634   8.584   5.345 -0.0672 -0.2988  0.0356
 7172W        W24019   9.841   8.123   3.886  0.1368 -0.1495  0.0749
 7173W        W24020  11.943  14.062   2.707  0.2303  0.2135  0.3020
 7174W        W24021  17.113  14.542  14.323 -0.2119 -0.0821  0.0836
 7175W        W24022  17.123   5.443   0.550 -0.3011  0.0396  0.0762
 7176W        W24023  17.722  10.059   1.500 -0.1663  0.0274 -0.0632
 7177W        W24024  12.485  16.632  15.298 -0.0563  0.0186 -0.1264
 7178W        W24025   5.495   5.621   3.073  0.0316 -0.2222 -0.0343
 7179W        W24026  17.389   5.236  13.114  0.2845  0.2200  0.0235
 7180W        W24027   7.491  13.300   1.965 -0.1074  0.4842 -0.2102
 7181W        W24028   3.179   1.797   2.233 -0.0368 -0.0985  0.4794
 7182W        W24029  10.562   4.097  14.281 -0.2006 -0.1328 -0.3009
 7183W        W24030   4.379   1.423  15.224  0.2236 -0.1840 -0.1272
 7184W        W24031   0.638   7.808   4.189 -0.1549 -0.0663  0.3235
 7185W        W24032   0.459  11.421  16.436  0.0591 -0.1173 -0.1104
 7186W        W24033   5.380   8.110   0.748  0.1338  0.0363  0.0721
 7187W        W24034  15.523   8.792   4.795 -0.1557  0.0944 -0.1451
 7188W        W24035  15.759  14.877   4.954  0.0759  0.1662  0.3320
 7189W        W24036  11.627  10.573   4.705  0.1497  0.1584 -0.2159
 7190W        W24037   0.890   7.985  15.442  0.2581  0.0570  0.1857
 7191W        W24038   6.251   0.996  12.735 -0.1077  0.1064 -0.1085
 7192W        W24039  16.435   5.844  14.515  0.0740 -0.2731  0.1828
 7193W        W24040   0.200  13.379   3.773 -0.3378  0.0401  0.2731
 7194W        W24041   0.773   5.955  13.829  0.0789 -0.0469 -0.0483
 7195W        W24042  16.897   9.507  13.198  0.1415  0.3899 -0.2162
 7196W        W24043  14.114   4.976   2.765  0.0600 -0.0248 -0.2982
 7197W        W24044   5.268  11.932   1.166 -0.0998 -0.1970  0.0116
 7198W        W24045   5.681   8.987   3.262 -0.0051  0.0204 -0.0185
 7199W        W24046  11.776  15.486   1.604  0.2971  0.0101  0.1883
 7200W        W24047  11.111  17.393  11.769 -0.0834  0.1722 -0.1883
 7201W        W24048  17.303  10.192  14.981 -0.1374 -0.0897 -0.2318
 7202W        W24049   7.472   4.640   5.533 -0.0148 -0.1684 -0.0016
 7203W        W24050  10.704   9.009   4.135 -0.0035 -0.0523 -0.1643
 7204W        W24051  11.823   9.415   3.213  0.1698 -0.1406 -0.0487
 7205W        W24052   7.407   8.066   5.027 -0.0387 -0.0622 -0.1798
 7206W        W24053  17.255   7.451  13.116 -0.1739 -0.1513 -0.0972
 7207W        W24054  16.639   1.521   3.862 -0.2229  0.2000 -0.3140
 7208W        W24055  15.402   7.986  12.354 -0.1984  0.3267  0.0523
 7209W        W24056  15.232  17.205  16.271 -0.2355 -0.3820 -0.1324
 7210W        W24057   3.288   6.868   3.883 -0.2779 -0.1621  0.0765
 7211W        W24058  17.696  17.937  12.824 -0.0807  0.0856 -0.0392
 7212W        W24059  11.774   9.173  14.134 -0.0689  0.0520 -0.4447
 7213W        W24060  16.308  11.889   2.142 -0.1964 -0.0150 -0.1299
 7214W        W24061  16.369  17.750  12.823 -0.1381  0.1600 -0.0895
 7215W        W24062  15.593  16.420   4.776 -0.1308 -0.3026 -0.2850
 7216W        W24063  17.426   0.328  11.245 -0.0585  0.1210  0.1440
 7217W        W24064   7.780   3.764   0.403 -0.0188  0.1479  0.0089
 7218W        W24065   1.828  13.673  12.371 -0.2072 -0.1179  0.1765
 7219W        W24066   7.016  16.843  13.402  0.2684 -0.0758  0.2677
 7220W        W24067   2.644  14.504   2.918 -0.1040 -0.0581  0.2583
 7221W        W24068  10.660   0.464  12.100 -0.3121  0.2012 -0.2310
 7222W        W24069   1.570  12.612  15.532  0.0193 -0.2518  0.4152
 7223W        W24070  14.357  16.807  16.394  0.0503  0.5205  0.1387
 7224W        W24071  13.030  13.745   1.351  0.0745 -0.0422 -0.0463
 7225W        W24072  15.695   4.577  13.445 -0.3142  0.0453  0.2707
 7226W        W24073   0.188   1.541   3.816 -0.0903  0.1232 -0.3372
 7227W        W24074  16.573   5.487  16.190 -0.1791  0.0004 -0.0262
 7228W        W24075   4.404  16.778   1.009  0.1119 -0.0669 -0.1171
 7229W        W24076   2.891  13.519   5.290 -0.0119  0.3696 -0.1002
 7230W        W24077  10.707   8.298  15.554 -0.0948 -0.0072  0.1489
 7231W        W24078  11.114   5.994   2.398 -0.3709 -0.0342 -0.0651
 7232W        W24079   6.648   4.174   0.393  0.0812  0.1229 -0.2579
 7233W        W24080   6.867   5.216  12.727  0.0026 -0.1553  0.1069
 7234W        W24081  13.016   6.973  11.603 -0.0886  0.0373 -0.1205
 7235W        W24082  13.700  10.661   2.649 -0.1667  0.0036 -0.0715
 7236W        W24083   1.187   9.600   1.949 -0.4369 -0.1818  0.3086
 7237W        W24084   5.990  14.595   2.166 -0.0627 -0.0558 -0.0934
 7238W        W24085   1.538  16.834   1.463 -0.1818 -0.1423  0.1446
 7239W        W24086  14.081   1.504   3.846 -0.3144  0.0742  0.2132
 7240W        W24087   5.482  13.248   1.018  0.3552  0.1695  0.0585
 7241W        W24088  12.196  15.845  14.279  0.0287  0.0956  0.0062
 7242W        W24089   8.229  10.875  14.356  0.2244  0.0090 -0.0500
 7243W        W24090   0.310  17.377   1.142  0.3451 -0.1778 -0.0787
 7244W        W24091  16.472  16.495  14.588 -0.0522 -0.2192  0.0893
 7245W        W24092   7.287  14.906  15.718  0.2452 -0.0543  0.0358
 7246W        W24093  12.495  12.389   2.796 -0.0086  0.1915 -0.0062
 7247W        W24094  14.712   0.563   1.113 -0.1087  0.0812 -0.0668
 7248W        W24095   3.560  17.905   3.334  0.1547 -0.1205  0.3339
 7249W        W24096  12.882   5.733   2.746  0.0275 -0.2278  0.2947
 7250W        W24097   0.115  10.770   5.639 -0.2287  0.1596 -0.1230
 7251W        W24098   0.445   2.288  14.697 -0.1056 -0.2438  0.1758
 7252W        W24099  16.473   0.600   2.531 -0.0939 -0.0409 -0.1625
 7253W        W24100   1.959   0.516  11.680 -0.0007  0.0701 -0.0551
 7254W        W24101   1.826  16.137   4.135 -0.0858  0.1450 -0.1260
 7255W        W24102   3.423  15.998  14.510  0.0008  0.1788  0.2426
 7256W        W24103   2.945  12.967  16.754 -0.2043  0.3536 -0.0372
 7257W        W24104   2.572   6.404   2.219  0.2937  0.0539  0.2144
 7258W        W24105  14.163  16.868  12.518 -0.4355  0.1642  0.1541
 7259W        W24106  15.394   2.677  11.716 -0.1538 -0.1420  0.0297
 7260W        W24107   8.893   9.218  14.083  0.0332  0.1224  0.2865
 7261W        W24108   3.712   3.101   5.029  0.0072 -0.0945  0.0939
 7262W        W24109   7.082  13.461  16.142 -0.2616  0.2662 -0.1314
 7263W        W24110   5.930  17.812  11.747 -0.2707 -0.0274 -0.0814
 7264W        W24111   5.711  14.900   5.309  0.0837  0.0236  0.2313
 7265W        W24112   8.392  12.376  16.554  0.1099  0.0195 -0.0109
 7266W        W24113  14.577  13.885   4.494  0.0617 -0.1733  0.0972
 7267W        W24114   9.175   4.401   2.258  0.0103 -0.1622 -0.0250
 7268W        W24115  15.449  17.109   0.359  0.1731  0.0361 -0.0561
 7269W        W24116   5.401  12.868   6.470  0.0607 -0.1401  0.2366
 7270W        W24117   9.334  16.674  12.827  0.2544 -0.1005 -0.1977
 7271W        W24118   3.339  10.982  13.968  0.1229 -0.0335  0.1828
 7272W        W24119  12.248   7.668  13.803 -0.1163  0.0401 -0.1312
 7273W        W24120  10.630   2.559   3.865  0.0399  0.0974  0.3147
 7274W        W24121   6.543   6.900  15.262  0.0811  0.0114 -0.2290
 7275W        W24122   9.291   6.053   2.541  0.0746  0.2638 -0.4801
 7276W        W24123   1.468   5.999  13.546 -0.3090 -0.0179 -0.2775
 7277W        W24124   0.650  13.063   3.492  0.0750 -0.0404 -0.1965
 7278W        W24125   3.109  13.489   3.316  0.0121  0.1877 -0.1934
 7279W        W24126   9.858   4.613  11.611  0.1680  0.3480 -0.0859
 7280W        W24127  13.828   1.896   5.501 -0.2419 -0.1287  0.1472
 7281W        W24128   4.176   7.895   2.324  0.1520  0.0542 -0.2020
 7282W        W24129  10.405  15.604   2.003  0.0525  0.2664 -0.2324
 7283W        W24130  14.869   8.096  12.400 -0.0790  0.1682  0.1006
 7284W        W24131   2.721   0.897   3.114  0.0142 -0.2353 -0.0300
 7285W        W24132  17.479  14.144   6.286 -0.0565 -0.0310 -0.0068
 7286W        W24133  17.179   5.611  13.562 -0.1215 -0.1743 -0.3056
 7287W        W24134   3.414  13.163   4.574 -0.0403  0.1149 -0.0546
 7288W        W24135  12.404  13.559  14.619  0.0893  0.0421 -0.1725
 7289W        W24136  10.031   0.443  14.798 -0.0592  0.0051  0.1423
 7290W        W24137  17.468   7.851   1.505 -0.3229  0.0629  0.0492
 7291W        W24138   9.503   6.748   5.994 -0.2894 -0.0936  0.2385
 7292W        W24139   2.394  16.295   1.322 -0.0079  0.0158  0.1619
 7293W        W24140   7.643  16.493  15.548  0.1444 -0.2530  0.3143
 7294W        W24141   4.871   4.214  11.825 -0.0075 -0.0506  0.1284
 7295W        W24142   4.283   7.430  14.664  0.2124  0.1852 -0.0444
 7296W        W24143   1.655   5.376  14.795  0.0851  0.3155  0.1799
 7297W        W24144   9.644  17.071  13.956  0.0860 -0.0579  0.2363
 7298W        W24145   3.591   6.589  13.866  0.1687  0.5080  0.2011
 7299W        W24146   3.908   4.232  15.387 -0.0080 -0.0198 -0.1251
 7300W        W24147  14.462  13.342   1.215 -0.1099 -0.5402  0.2214
 7301W        W24148   1.808   4.869   3.033  0.2332 -0.0852  0.1728
 7302W        W24149   8.692  10.244  14.180 -0.0771  0.1783 -0.0266
 7303W        W24150   0.857   9.737  14.065  0.0807 -0.1334  0.1885
 7304W        W24151  14.052   7.158   5.610 -0.0662 -0.2773 -0.0987
 7305W        W24152  13.317   4.895   4.450 -0.1312  0.1980  0.2988
 7306W        W24153  15.337   1.229   3.256 -0.0406 -0.3405  0.2262
 7307W        W24154   0.669   3.390   5.030  0.0246 -0.0741 -0.2333
 7308W        W24155   8.402   3.665   4.282  0.1604 -0.0401  0.1537
 7309W        W24156   0.670   2.828   1.973 -0.1160 -0.0209 -0.0813
 7310W        W24157   9.423  13.556  15.029  0.1751 -0.1917 -0.1600
 7311W        W24158   1.291   2.460   0.980  0.1545 -0.0987 -0.1465
 7312W        W24159   7.348  13.823   2.107  0.1315 -0.0095 -0.3523
 7313W        W24160  12.942   1.761  16.168 -0.2019 -0.0521  0.1212
 7314W        W24161   1.260   4.202  15.053  0.0748 -0.2064 -0.5097
 7315W        W24162   7.913  17.548   3.389 -0.2888  0.0578  0.0700
 7316W        W24163   2.013   1.952  15.414  0.0630 -0.1074  0.3626
 7317W        W24164   9.705   7.711   2.038 -0.0760 -0.0791 -0.0135
 7318W        W24165  10.207  12.742  13.595  0.0682 -0.0887  0.0816
 7319W        W24166  12.836  16.582   2.006  0.2167  0.0516  0.1486
 7320W        W24167  12.261  16.441  13.395 -0.2513  0.0206 -0.0165
 7321W        W24168   6.989  17.725  12.804 -0.0084 -0.0207 -0.0648
 7322W        W24169  16.430   3.417  11.244  0.2147  0.0282  0.0823
 7323W        W24170   6.722   8.534   4.690  0.0138 -0.2206  0.0252
 7324W        W24171  16.777  11.234  12.057  0.0777 -0.0076  0.2397
 7325W        W24172  14.187   2.562   2.867  0.0811  0.1448 -0.3164
 7326W        W24173  16.099   1.302   1.476 -0.0065  0.2069 -0.2169
 7327W        W24174   5.167   3.160  12.883  0.0629  0.0421 -0.1276
 7328W        W24175  10.157   3.389  11.996 -0.0568 -0.0227  0.1842
 7329W        W24176   6.241   0.509  13.466  0.1107 -0.2681  0.3566
 7330W        W24177  14.856  14.250  14.002  0.1112 -0.0832  0.4374
 7331W        W24178   3.697  15.284   0.057  0.2279  0.0359 -0.1030
 7332W        W24179   2.797  16.198   3.882 -0.0056  0.0654  0.1870
 7333W        W24180  16.194   7.945   3.585  0.2184 -0.1114  0.0320
 7334W        W24181   7.627   6.950   4.375 -0.0483 -0.2127  0.0742
 7335W        W24182  10.672   2.052   3.790 -0.2594  0.5304 -0.0433
 7336W        W24183   1.904   2.015   5.799 -0.2838 -0.1782  0.2530
 7337W        W24184   7.862   7.718   2.822  0.2202  0.0821  0.0894
 7338W        W24185   3.159   4.555   2.758 -0.0629 -0.1244  0.0031
 7339W        W24186  15.063  13.685   5.618  0.1297 -0.1689 -0.1553
 7340W        W24187   1.231   0.379   1.953  0.0317  0.0180  0.0433
 7341W        W24188   6.855   4.554   1.477 -0.0860  0.1611  0.1603
 7342W        W24189   6.857  12.932  16.667 -0.0410  0.0582  0.1666
 7343W        W24190  12.736   0.292  12.172 -0.2004  0.0340 -0.0538
 7344W        W24191   3.172   5.501  12.433  0.0812 -0.0912  0.0480
 7345W        W24192   8.776   2.044   2.987 -0.1271 -0.1447 -0.3139
 7346W        W24193   7.855   5.861   0.396  0.0165 -0.1651  0.1830
 7347W        W24194   4.800   6.515  11.889  0.0294 -0.1476 -0.0400
 7348W        W24195   5.316   5.159  16.356  0.1172 -0.2151 -0.0909
 7349W        W24196  11.228   4.950   1.856  0.1921 -0.0159  0.0489
 7350W        W24197  15.592   2.826   4.436  0.0689 -0.2735 -0.2221
 7351W        W24198   5.125  12.896  13.950 -0.0726 -0.0130  0.0112
 7352W        W24199  14.782   2.864  15.955  0.1463  0.0665 -0.1482
 7353W        W24200  15.798   7.458   0.755 -0.3613 -0.0173 -0.2759
 7354W        W24201   4.114  15.041   3.697  0.0545  0.1104  0.0931
 7355W        W24202   6.256   4.949  13.415  0.3252 -0.1506  0.1558
 7356W        W24203   6.137  12.680   3.657  0.2721  0.1226  0.0091
 7357W        W24204   1.886  10.754  15.493 -0.0650  0.1963 -0.2222
 7358W        W24205   9.270   8.631  14.615 -0.1599  0.4595 -0.0450
 7359W        W24206  12.206   3.844  14.731 -0.0920  0.1709  0.0032
 7360W        W24207   9.860   2.772   1.050  0.1974  0.2768  0.0048
 7361W        W24208   0.331  16.812  14.401 -0.2397  0.1294 -0.3034
 7362W        W24209   1.782  15.780  16.768  0.1577 -0.0326  0.4542
 7363W        W24210  13.911   0.716  15.829 -0.2604 -0.4796  0.0044
 7364W        W24211   7.369  15.378   3.055 -0.1858  0.0210  0.1713
 7365W        W24212  11.595   1.109  13.317 -0.1637  0.0326 -0.0876
 7366W        W24213  13.299   4.534   4.838 -0.1297 -0.0193 -0.1493
 7367W        W24214   5.862   8.071   4.265  0.2912  0.2632 -0.2834
 7368W        W24215  16.837  11.655  15.135 -0.1594  0.0508  0.0836
 7369W        W24216  11.236   6.738  15.433  0.0155  0.2128  0.1759
 7370W        W24217  10.948  17.687   5.018  0.0334  0.0230  0.3090
 7371W        W24218   4.037   0.435  11.459 -0.2039 -0.3975  0.0714
 7372W        W24219  11.312  12.757  14.317  0.1353 -0.2014  0.0244
 7373W        W24220   7.698   2.810  15.361 -0.2142  0.2184 -0.3218
 7374W        W24221   8.625   9.631   0.062  0.3632  0.1983 -0.1581
 7375W        W24222   7.660   8.664  14.314 -0.0620  0.0277 -0.1327
 7376W        W24223   5.607  12.490   2.566 -0.2613 -0.0806  0.0044
 7377W        W24224   1.987   8.323   0.430  0.0747  0.0966  0.0906
 7378W        W24225  15.036  11.755   2.804  0.1549  0.0017  0.0596
 7379W        W24226  17.923   6.047   0.285  0.1835 -0.0580  0.1367
 7380W        W24227   2.317   7.471  14.744  0.3587 -0.0339  0.1008
 7381W        W24228   3.963   0.157   1.021  0.3056 -0.0104 -0.4142
 7382W        W24229   5.448  12.638   1.802  0.1127  0.0092  0.1148
 7383W        W24230  10.811  17.830   0.736 -0.0924 -0.1934 -0.2713
 7384W        W24231  16.583   7.930  15.187 -0.3972  0.0966  0.1044
 7385W        W24232  14.817   7.235  13.685 -0.2508  0.3060  0.0599
 7386W        W24233  15.342   5.619  12.944  0.0199  0.1555 -0.3222
 7387W        W24234   4.154   5.309   5.236  0.4628  0.2155  0.2667
 7388W        W24235  12.593   3.450  12.557 -0.1205  0.0062 -0.0318
 7389W        W24236   9.442  16.430   2.367  0.0129  0.2246 -0.0597
 7390W        W24237   3.558  14.747   4.146  0.2077  0.0658 -0.0422
 7391W        W24238  13.244  11.716   4.206 -0.2543  0.1839 -0.1705
 7392W        W24239  14.491   6.562  15.294  0.0807  0.1035  0.0367
 7393W        W24240   9.434  16.870   2.977  0.4045 -0.0680  0.0525
 7394W        W24241   2.674   2.136  10.192  0.3642  0.1118  0.0717
 7395W        W24242  12.125  10.911  16.707  0.0818  0.1355 -0.1933
 7396W        W24243  15.318  14.259  12.042 -0.1292 -0.2685 -0.1995
 7397W        W24244  14.828  10.895  14.732  0.0382  0.0668  0.0183
 7398W        W24245  15.427   7.798  13.225  0.0980 -0.0777 -0.1830
 7399W        W24246   8.182  11.004   2.553  0.1736  0.1562 -0.2497
 7400W        W24247   5.555  10.536  16.709  0.0243  0.0783 -0.1123
 7401W        W24248  10.917  15.449  12.275 -0.3279 -0.1066  0.1794
 7402W        W24249   7.036   5.888   4.903  0.1151  0.1485  0.1361
 7403W        W24250  16.280   6.826   2.400 -0.0164 -0.1686 -0.0674
 7404W        W24251  10.075   5.801  14.341  0.0238  0.0483  0.2665
 7405W        W24252   2.873   0.835  12.238 -0.1760 -0.0682 -0.3753
 7406W        W24253   3.698   2.321  15.167  0.0455  0.2128 -0.2151
 7407W        W24254   5.996  12.174   2.800 -0.3442  0.1069 -0.2364
 7408W        W24255   2.182   5.367   0.953 -0.1505  0.0711 -0.1385
 7409W        W24256   8.626  11.538  11.786 -0.2288 -0.1449 -0.1370
 7410W        W24257  15.223   4.562   0.072  0.0283 -0.2201 -0.2451
 7411W        W24258  14.341  16.739   1.791 -0.1907 -0.1585  0.1637
 7412W        W24259  13.283  14.031  15.862 -0.0793 -0.1493  0.3940
 7413W        W24260  15.021  11.808  11.844  0.1320 -0.0479 -0.1224
 7414W        W24261   9.801  12.050  13.660 -0.0659  0.0357  0.4563
 7415W        W24262   8.963  13.871   2.991  0.2958 -0.0709 -0.1168
 7416W        W24263   4.062   3.231  15.397 -0.1358 -0.2509 -0.2733
 7417W        W24264   0.090   4.293   2.255  0.2077  0.1932  0.0915
 7418W        W24265   7.038  10.100  14.763  0.4744 -0.0471  0.4891
 7419W        W24266  17.231  16.232   1.592  0.1420 -0.0096 -0.0812
 7420W        W24267  11.174   3.196   1.830  0.1021 -0.0412 -0.0970
 7421W        W24268  17.119   1.823   3.070 -0.0915 -0.0546 -0.0433
 7422W        W24269  16.059  12.025   1.626 -0.2074  0.1587 -0.0710
 7423W        W24270  16.218  15.255  13.946 -0.1094  0.3894  0.0935
 7424W        W24271  13.504   8.931  15.867 -0.1338  0.0769  0.0151
 7425W        W24272   9.103   8.470   1.402 -0.0666  0.1059  0.1748
 7426W        W24273   2.267  14.109  12.723 -0.2659  0.0355  0.2279
 7427W        W24274  13.431  14.968   3.866 -0.0317 -0.1080  0.2134
 7428W        W24275   8.196  15.164  15.867 -0.2413 -0.1213  0.2277
 7429W        W24276   1.072  14.183   0.185  0.0802  0.0241  0.0838
 7430W        W24277   1.671  11.467   0.999 -0.3288  0.0014 -0.0481
 7431W        W24278   2.026   5.726   3.212 -0.0357  0.0758 -0.0514
 7432W        W24279  11.933  11.282   1.983 -0.1279 -0.2845  0.1474
 7433W        W24280  17.425  13.167  16.767 -0.0658  0.2246 -0.1729
 7434W        W24281  13.657   0.983  12.542 -0.0900  0.0120 -0.2465
 7435W        W24282  11.741  16.833   1.765 -0.0253  0.1623 -0.1287
 7436W        W24283   1.028   1.919   4.040  0.2701  0.0945 -0.1069
 7437W        W24284  14.739  15.607  15.848 -0.3043  0.2575 -0.1102
 7438W        W24285  15.154  17.156  14.184 -0.0253  0.4495  0.2505
 7439W        W24286   1.212  12.008   0.315  0.1339  0.1816  0.1118
 7440W        W24287  10.328   0.044  11.980 -0.2229  0.0403  0.0370
 7441W        W24288   9.329  11.704   2.592  0.3985  0.0175 -0.3072
 7442W        W24289  10.196   7.008  16.577 -0.0776 -0.3187 -0.1426
 7443W        W24290  15.281   6.352  13.875 -0.1437  0.1377 -0.0553
 7444W        W24291   0.159  12.613   3.125 -0.3675  0.0378 -0.0254
 7445W        W24292  14.380  11.687   1.472  0.1048  0.0093 -0.2755
 7446W        W24293   6.810   3.763   0.780 -0.0829 -0.0458 -0.1486
 7447W        W24294   6.650  14.788   0.550  0.2263  0.1725  0.0483
 7448W        W24295  16.795  16.957  13.878  0.0043 -0.1289 -0.0087
 7449W        W24296  17.944   9.496   4.273  0.2119 -0.0217 -0.1485
 7450W        W24297  13.387   5.984   3.356  0.1402 -0.2337  0.1848
 7451W        W24298   8.184   8.674  14.373 -0.1265  0.2680 -0.2376
 7452W        W24299   9.909  16.414  15.332  0.1415  0.1098 -0.0292
 7453W        W24300   7.409  15.460  14.946  0.0496  0.3517 -0.3348
 7454W        W24301  10.385   4.087   5.543 -0.2292 -0.0733 -0.0787
 7455W        W24302   3.948   3.491   4.686 -0.2189  0.1057  0.0917
 7456W        W24303   1.585  12.262  11.936 -0.0522 -0.1282 -0.1131
 7457W        W24304   6.925  10.431   0.010 -0.1043  0.0475 -0.1513
 7458W        W24305  13.086   3.729   1.353  0.2945  0.2425  0.0017
 7459W        W24306   8.334   1.230   2.786  0.0894 -0.1027 -0.4097
 7460W        W24307   6.488  15.242   2.549  0.1426 -0.0178  0.0224
 7461W        W24308   2.903   1.807  11.405 -0.0505  0.2192  0.0763
 7462W        W24309   4.417  17.364  14.382 -0.1348 -0.0319  0.3156
 7463W        W24310   6.214   9.012  12.621 -0.0818  0.1662 -0.2328
 7464W        W24311   0.443   1.855  14.443 -0.0193  0.0158 -0.3477
 7465W        W24312   1.907  12.329   1.356  0.0668 -0.2439 -0.1286
 7466W        W24313  12.326   1.095   3.900 -0.1608  0.0871 -0.0853
 7467W        W24314   7.641   7.456  15.062  0.1817  0.0214  0.0200
 7468W        W24315   9.880  12.508  10.812 -0.0269  0.3641 -0.1746
 7469W        W24316   1.199   4.431   5.048  0.3739 -0.2453 -0.0817
 7470W        W24317   7.233   4.967   1.282 -0.4178 -0.1689 -0.0678
 7471W        W24318   0.113   2.707   0.355 -0.0068  0.0363 -0.0816
 7472W        W24319  10.476   5.718  16.441  0.2335  0.0061  0.0327
 7473W        W24320   0.595  11.367   0.860  0.1939 -0.1654  0.0911
 7474W        W24321   2.641   8.012   4.450 -0.0525  0.0200  0.0266
 7475W        W24322   3.000   3.774   1.123  0.0923  0.0410  0.2995
 7476W        W24323  15.446   7.422   1.359  0.0309  0.0678 -0.1834
 7477W        W24324  16.406   4.837  12.115 -0.0415  0.0836  0.1361
 7478W        W24325   6.267   6.917   4.608  0.2349 -0.0117 -0.2198
 7479W        W24326   5.575   5.178  14.387  0.1593 -0.0527  0.1485
 7480W        W24327  14.939  14.513   0.271  0.0610 -0.0980  0.0088
 7481W        W24328   7.229   6.093  15.793  0.0970 -0.0532 -0.0518
 7482W        W24329   7.454   9.574  11.837 -0.2222 -0.1370  0.0770
 7483W        W24330  14.289  12.032  12.441 -0.1562  0.0521  0.1667
 7484W        W24331   1.901   7.909  11.724 -0.1395 -0.0162  0.2230
 7485W        W24332  12.312  17.558  15.027  0.0237 -0.1037  0.1915
 7486W        W24333  12.443   4.298  14.047 -0.4859  0.1854  0.0666
 7487W        W24334  12.991   3.154  13.679  0.1670  0.2920 -0.2151
 7488W        W24335   3.800  14.296  13.081 -0.1086 -0.1070 -0.1432
 7489W        W24336  17.841   2.596   5.838 -0.1462  0.2570  0.1745
 7490W        W24337  12.467   2.322   3.277 -0.2682 -0.0009 -0.0699
 7491W        W24338   5.844  16.550   2.818  0.0460 -0.0171 -0.0886
 7492W        W24339   4.775   6.344   0.065 -0.0608  0.3719  0.3192
 7493W        W24340   7.736  12.523   3.512 -0.0237  0.0637 -0.1290
 7494W        W24341   2.219  14.732  16.044  0.0280  0.2971 -0.0577
 7495W        W24342   8.399   5.753   1.744 -0.1938 -0.4238 -0.0689
 7496W        W24343   1.131   5.520   2.791  0.1685  0.2151 -0.0624
 7497W        W24344  12.688  13.652   2.870  0.0179 -0.3835  0.0410
 7498W        W24345   3.408   5.517  14.200 -0.2137 -0.2213 -0.1199
 7499W        W24346   0.036   8.915   2.358  0.3290  0.0126 -0.1630
 7500W        W24347  16.945  12.807   2.535 -0.0342 -0.2742 -0.0902
 7501W        W24348   1.485  14.511   0.948  0.0130  0.0211  0.1813
 7502W        W24349   7.201  12.865   2.017 -0.2911  0.1609  0.3372
 7503W        W24350   6.173   8.027  16.531  0.1795 -0.4305 -0.0171
 7504W        W24351  15.221   6.487   3.090  0.0835 -0.1000 -0.0970
 7505W        W24352  16.725   7.483   6.396 -0.0603 -0.0550 -0.0304
 7506W        W24353  14.760   8.609   1.407  0.1457 -0.0717  0.0899
 7507W        W24354   9.448   6.693  15.015  0.0837 -0.0464 -0.1648
 7508W        W24355  15.251   1.144  15.764  0.1441 -0.0585  0.0157
 7509W        W24356   3.467   3.908   1.243  0.0674 -0.1458  0.3563
 7510W        W24357   6.951  10.505  16.169  0.0873 -0.0811 -0.0905
 7511W        W24358   6.371  10.845  13.472  0.1854 -0.3241 -0.3660
 7512W        W24359  11.599   6.482   3.767  0.0129  0.2512 -0.1111
 7513W        W24360  16.996   2.291  15.826  0.1600  0.1502  0.1140
 7514W        W24361   1.706  10.924   1.672  0.0855 -0.0155  0.0155
 7515W        W24362   7.312  12.664   6.637  0.1667  0.3558 -0.1852
 7516W        W24363  11.807  16.746   0.021 -0.0156  0.0297  0.3003
 7517W        W24364   2.909  15.020  13.060  0.0101 -0.1739  0.1586
 7518W        W24365  11.297  16.020  14.388  0.1103  0.3074 -0.1971
 7519W        W24366  15.514   8.325  16.070  0.0741 -0.1079  0.0030
 7520W        W24367   5.355   9.764  16.191  0.0043  0.0987  0.0052
 7521W        W24368   5.707  11.392   5.063  0.1734 -0.0061 -0.0735
 7522W        W24369   5.283   7.621   2.901 -0.0283  0.1563  0.2271
 7523W        W24370   1.928  14.302  16.000 -0.2969 -0.1444  0.1205
 7524W        W24371   8.111  12.702  15.657 -0.1438 -0.1448 -0.1168
 7525W        W24372  10.195   3.553  12.487  0.2793  0.1504 -0.2007
 7526W        W24373  13.404  15.273   2.276 -0.3108  0.1699  0.1710
 7527W        W24374  14.289   0.933   2.031 -0.2065  0.0720 -0.1805
 7528W        W24375  17.319   5.742  15.591 -0.0470 -0.1801 -0.0364
 7529W        W24376  15.367  17.513  16.640  0.1577 -0.1469 -0.3048
 7530W        W24377   3.521  15.144   2.001  0.1531  0.0033 -0.0300
 7531W        W24378   2.399  14.986  12.968 -0.0487  0.0709  0.0028
 7532W        W24379   8.758   9.801  12.058  0.1906 -0.1207  0.0111
 7533W        W24380  14.791   4.684  13.643  0.2106  0.4734  0.1732
 7534W        W24381  14.193  12.416  12.823 -0.1955  0.3599  0.2888
 7535W        W24382  10.200   5.587  15.901  0.0047  0.2899 -0.0739
 7536W        W24383   3.276  15.731   4.561 -0.1116 -0.3461 -0.0906
 7537W        W24384  12.284   2.285  13.758 -0.1882  0.0931 -0.1128
 7538W        W24385   9.465   2.626   5.987 -0.4276 -0.0254 -0.0095
 7539W        W24386   0.730   9.085   4.442  0.1500  0.1875 -0.2248
 7540W        W24387   4.421  16.133   2.545  0.1282  0.2970  0.1235
 7541W        W24388  11.686  12.242   1.889  0.3103 -0.0400  0.1161
 7542W        W24389   0.082  15.165   5.585  0.1902  0.2285 -0.0955
 7543W        W24390   6.057   8.927   2.932 -0.2762 -0.0889 -0.1540
 7544W        W24391  11.671  16.242  14.724 -0.1271 -0.0447 -0.1135
 7545W        W24392   2.255   2.814   5.003  0.1497  0.1439 -0.3955
 7546W        W24393  16.127  15.379   3.305 -0.1481  0.1873 -0.0960
 7547W        W24394  17.714  11.876   0.327  0.1695  0.0437  0.0853
 7548W        W24395  13.214  17.433   2.069  0.0773  0.0387 -0.1750
 7549W        W24396   1.288   1.446  13.274  0.0547 -0.2783 -0.2056
 7550W        W24397  14.141  14.153   4.602 -0.0695  0.0563 -0.0890
 7551W        W24398   1.829   8.208  14.913  0.0197 -0.0439  0.3523
 7552W        W24399   4.731   3.843  13.686 -0.1747 -0.0588 -0.0776
 7553W        W24400   3.030  14.181  12.402  0.1477  0.0350 -0.0762
 7554W        W24401   9.041  16.552  16.630  0.0256 -0.1110  0.0988
 7555W        W24402   4.273   2.120  16.431  0.1533 -0.0591  0.0700
 7556W        W24403   5.574   4.748  12.209  0.2200 -0.0766  0.4363
 7557W        W24404  13.354  17.806  11.793 -0.1254 -0.1372 -0.2523
 7558W        W24405  16.147   3.315   0.890  0.1470 -0.0478 -0.0393
 7559W        W24406   3.783   2.176   4.929 -0.1874  0.1099  0.0074
 7560W        W24407   6.272   0.306   2.578  0.0219  0.1291 -0.3146
 7561W        W24408   5.739  15.175   0.604  0.0625 -0.2050 -0.1438
 7562W        W24409  10.239   7.896   4.020 -0.0857 -0.1214  0.2214
 7563W        W24410   4.256  10.088  12.079 -0.0394 -0.3409 -0.0545
 7564W        W24411  17.858   4.069   3.633 -0.0236 -0.0440 -0.0627
 7565W        W24412   5.766   0.757  12.480 -0.1343  0.1059  0.1471
 7566W        W24413   0.997   8.471  15.266  0.1002 -0.0134 -0.0703
 7567W        W24414   1.556   2.805   3.669 -0.0663 -0.0366  0.2996
 7568W        W24415  10.289   2.140  16.671  0.2829  0.1043 -0.0401
 7569W        W24416   0.819  12.539  16.284 -0.0112  0.0085  0.1606
 7570W        W24417   6.657  14.434  16.341  0.2684  0.0607  0.1203
 7571W        W24418   0.539   9.326   0.673  0.4253 -0.1588  0.1906
 7572W        W24419  11.451  11.247   3.467 -0.1564  0.1034  0.2700
 7573W        W24420  10.084  11.773   1.238 -0.0925 -0.2943  0.0065
 7574W        W24421  12.827  10.746  14.484 -0.0314  0.2316 -0.1143
 7575W        W24422   4.173  13.774   5.554 -0.1452 -0.0249 -0.0027
 7576W        W24423   6.092   7.865  16.067  0.0425 -0.2312 -0.0750
 7577W        W24424   3.034   2.853  14.844 -0.0233  0.1698  0.1763
 7578W        W24425   2.517  13.215   5.529 -0.1655 -0.2781 -0.1357
 7579W        W24426   2.538  15.323  16.639  0.0654 -0.0040 -0.1446
 7580W        W24427  15.676  17.588   0.260 -0.0392  0.1309  0.1614
 7581W        W24428   1.907   1.901  14.921 -0.0198 -0.1516 -0.1670
 7582W        W24429  12.750   3.557  11.537 -0.1971 -0.0831  0.2697
 7583W        W24430  13.403   4.950  11.783  0.1485  0.0959  0.2229
 7584W        W24431   3.390  14.389  14.865 -0.1621  0.2102  0.1530
 7585W        W24432   1.715   2.560  12.909 -0.0994 -0.1596  0.2490
 7586W        W24433   8.714   1.046  12.630 -0.2991  0.0150  0.2979
 7587W        W24434   5.475  10.022  12.623 -0.1299  0.2755  0.0477
 7588W        W24435   6.523  15.724  12.715 -0.0059  0.1753 -0.0164
 7589W        W24436  10.171   5.537   6.525 -0.1356  0.1937  0.0161
 7590W        W24437  11.181   3.453   2.717  0.0966 -0.2794 -0.0804
 7591W        W24438  10.270   0.210  15.971 -0.1351 -0.1461  0.1342
 7592W        W24439   3.270   2.719   0.508 -0.1194 -0.0850 -0.3510
 7593W        W24440   8.475   1.022   5.522 -0.4001  0.0944  0.1455
 7594W        W24441   8.575   0.385   4.024 -0.1800  0.0999  0.0758
 7595W        W24442   0.244  15.789  14.194  0.0065  0.0147 -0.1708
 7596W        W24443   6.279  11.967   3.543 -0.5381 -0.1803  0.0041
 7597W        W24444  14.146   5.518   4.370 -0.2158 -0.1777 -0.1440
 7598W        W24445  15.040   8.323   0.583 -0.1374  0.1546 -0.0212
 7599W        W24446  12.497  17.848  12.015 -0.0950 -0.4002  0.1763
 7600W        W24447   4.116   2.890   0.624 -0.2516  0.0444 -0.2750
 7601W        W24448   0.342   0.449  13.970  0.0361  0.0706  0.1145
 7602W        W24449   3.927   5.515  16.521  0.4386 -0.2502 -0.0718
 7603W        W24450   7.000  17.077   4.341  0.0828 -0.1904 -0.4914
 7604W        W24451   4.700  17.524   1.512 -0.1215 -0.0420  0.1332
 7605W        W24452   6.453  11.154   1.111 -0.0989 -0.2520 -0.2509
 7606W        W24453   2.376   2.501  14.441 -0.1086  0.2256  0.0489
 7607W        W24454   2.995   1.570   1.262  0.2038  0.1714 -0.0093
 7608W        W24455   8.821   1.408   0.466 -0.3053 -0.0493 -0.1097
 7609W        W24456  14.585   5.116   0.581  0.3263  0.1063  0.0842
 7610W        W24457  17.634  13.730  15.149 -0.0750 -0.0634  0.1704
 7611W        W24458   6.206  13.133  12.961 -0.2663 -0.1692  0.1052
 7612W        W24459   6.522  17.932  13.095  0.1457 -0.0518 -0.0543
 7613W        W24460   5.176  17.565  15.175  0.3813 -0.2366  0.0787
 7614W        W24461   4.880   1.829   0.165  0.0653  0.1490  0.1685
 7615W        W24462  12.466   0.725   0.759  0.0071 -0.2319 -0.2402
 7616W        W24463   8.613   1.933   1.624 -0.0110  0.0554 -0.0802
 7617W        W24464   4.657  14.261   2.488  0.1662  0.1170 -0.0011
 7618W        W24465  17.081  11.610  13.731  0.3411  0.1775 -0.2128
 7619W        W24466  11.109  11.606  12.282  0.2191  0.0860 -0.0786
 7620W        W24467   6.809  17.236  13.697 -0.0886 -0.2992  0.2402
 7621W        W24468   3.261   5.151   0.788 -0.0769  0.0673 -0.0432
 7622W        W24469  16.100  15.869   0.035  0.0029  0.1125 -0.0227
 7623W        W24470  12.891  10.784  12.979 -0.0566  0.1446 -0.2569
 7624W        W24471   6.425  15.967  11.521  0.1628 -0.0562 -0.1739
 7625W        W24472   1.491   7.947   0.847  0.0518  0.0375 -0.2024
 7626W        W24473   9.319  16.951   1.628  0.3498  0.1306  0.1301
 7627W        W24474   7.807   2.500   2.060 -0.2478  0.1710  0.4955
 7628W        W24475  12.357   9.115  15.238  0.1348  0.0860 -0.0625
 7629W        W24476   4.152   6.211   3.217 -0.0904  0.2894  0.1525
 7630W        W24477   9.326   1.108   5.180 -0.3270  0.1826 -0.0029
 7631W        W24478   5.603   7.215  14.326 -0.1434 -0.0673 -0.3319
 7632W        W24479   1.262   4.538   4.222  0.2043 -0.0047 -0.0190
 7633W        W24480   0.597   0.088   0.560  0.0866 -0.3206 -0.1567
 7634W        W24481   7.160  17.800   5.278  0.1374  0.1835  0.0171
 7635W        W24482   3.771   3.797   0.660  0.0723 -0.0244  0.1413
 7636W        W24483   8.099   2.355   4.716 -0.1894 -0.0317 -0.0235
 7637W        W24484   0.964  15.236   2.490  0.2655  0.2882 -0.0778
 7638W        W24485  15.502   5.741   4.849  0.0492 -0.1309 -0.0687
 7639W        W24486   1.214   1.966   3.164 -0.4421 -0.0463 -0.0680
 7640W        W24487   4.384  14.316  13.186  0.0259  0.1493 -0.0488
 7641W        W24488  17.760   5.627  12.881 -0.0518 -0.0164  0.4022
 7642W        W24489  16.140   5.284   4.813  0.0735  0.0047  0.1368
 7643W        W24490  14.448  15.257  13.287 -0.0622  0.0163 -0.1171
 7644W        W24491   7.941   8.198  15.473 -0.0717 -0.0528  0.0407
 7645W        W24492   9.043  13.555   3.850 -0.2510  0.1001  0.0903
 7646W        W24493  13.518  13.433   1.487  0.0806  0.0186 -0.3236
 7647W        W24494   0.226   2.430   4.247 -0.1455 -0.3752 -0.1694
 7648W        W24495   8.532   5.553   0.961  0.1056 -0.2134  0.1487
 7649W        W24496   8.846   8.729  14.990  0.1397  0.2337 -0.0494
 7650W        W24497  13.196   1.444  15.694 -0.0627  0.0357  0.0703
 7651W        W24498   2.734  15.888   4.336  0.2343  0.1995  0.1730
 7652W        W24499  16.512   2.481   0.073  0.1483 -0.2236 -0.1007
 7653W        W24500  13.743  14.122   2.041 -0.1521  0.1700 -0.1767
 7654W        W24501   5.477   9.838   5.516 -0.2966  0.1101  0.1038
 7655W        W24502   7.202  10.005  11.975  0.0768 -0.0738  0.1468
 7656W        W24503  11.164   0.367  11.594 -0.0248  0.0021 -0.1508
 7657W        W24504   4.938   6.686  13.185  0.1713  0.2085 -0.2482
 7658W        W24505   0.087   3.965  15.595  0.1204 -0.1325  0.0910
 7659W        W24506   4.943  12.371  15.105 -0.3812 -0.0138 -0.0830
 7660W        W24507   5.049  11.330   0.421  0.0521  0.1654  0.0677
 7661W        W24508   2.928  15.958   3.499  0.3165 -0.2132  0.2117
 7662W        W24509  14.262   3.722  16.729  0.1616  0.1061 -0.4411
 7663W        W24510   6.556  16.940   1.266 -0.2976 -0.1630 -0.1428
 7664W        W24511  17.209  15.373   4.201 -0.3028  0.0161 -0.1016
 7665W        W24512  16.777  13.059   0.103  0.1164 -0.2204  0.1544
 7666W        W24513   4.438  14.036   4.246  0.0979 -0.1288 -0.4040
 7667W        W24514  14.338   1.922   4.474  0.2228  0.0988  0.4753
 7668W        W24515   8.315   5.457   3.025 -0.1464 -0.2937 -0.1482
 7669W        W24516   9.752  12.178   4.493  0.2822  0.0860 -0.0945
 7670W        W24517   2.900   4.703  14.545 -0.3141  0.1823  0.1162
 7671W        W24518  12.601   4.473  12.696  0.1705 -0.0109  0.1057
 7672W        W24519  17.157   3.861   0.265  0.1451 -0.0094 -0.2995
 7673W        W24520   6.063   3.074   2.213 -0.2396 -0.0424 -0.2358
 7674W        W24521  10.536   2.515   5.001 -0.0754  0.1225  0.0964
 7675W        W24522   4.589  13.733   5.800 -0.2899  0.2489  0.0803
 7676W        W24523   6.243  14.549  12.526  0.1520  0.3916  0.1413
 7677W        W24524  10.449   2.654   4.497 -0.1691 -0.0496 -0.1167
 7678W        W24525   6.667  17.916   2.756  0.1410  0.1191  0.0660
 7679W        W24526  17.027  11.907   2.456  0.0576  0.1445  0.3325
 7680W        W24527   4.566   9.862   1.146  0.2509 -0.1628  0.0222
 7681W        W24528   8.653  15.975  11.949 -0.1714  0.1660 -0.2241
 7682W        W24529  17.239  11.607   0.622 -0.0443 -0.1619  0.0949
 7683W        W24530  14.276   0.290   2.820  0.0140 -0.2019  0.1637
 7684W        W24531  10.619   7.291  16.619 -0.0360 -0.2800 -0.0939
 7685W        W24532   0.144   9.403  11.946  0.1195 -0.0838 -0.0302
 7686W        W24533  17.734  14.796   1.564 -0.1962 -0.1959  0.0117
 7687W        W24534   6.667   7.976  14.365  0.1048  0.3415  0.2166
 7688W        W24535   5.630   1.388   5.174 -0.1573 -0.2626 -0.1167
 7689W        W24536   5.866  14.298  15.702  0.0844 -0.1108 -0.2370
 7690W        W24537   9.579  11.646   5.656  0.0414  0.2910 -0.0892
 7691W        W24538  17.475   0.895   0.541  0.2688  0.3114  0.2022
 7692W        W24539  15.532   5.381   1.275  0.1043  0.0254 -0.0639
 7693W        W24540   8.444  13.584  14.662  0.1464 -0.1064  0.1300
 7694W        W24541   5.683  16.737   0.334  0.0281  0.1022  0.3128
 7695W        W24542   6.670   5.284   0.984 -0.1449 -0.1269 -0.5935
 7696W        W24543  11.991   0.925   0.000  0.3152  0.1980 -0.1936
 7697W        W24544  10.947  11.467  15.771 -0.1610  0.0992  0.0139
 7698W        W24545   0.553   3.656  14.086  0.1596  0.4542  0.0029
 7699W        W24546   0.900  13.070   4.113  0.2747 -0.1818 -0.2452
 7700W        W24547   1.015  11.745   4.592 -0.0677  0.2295  0.2257
 7701W        W24548  13.589   2.108   2.464 -0.1819  0.1715  0.1361
 7702W        W24549  13.318   2.073  14.350 -0.0913 -0.2154  0.0295
 7703W        W24550  14.684   5.915   2.228 -0.0258  0.0397 -0.1997
 7704W        W24551  12.624   4.021   4.293  0.4049 -0.0046 -0.1241
 7705W        W24552  10.999   1.317   2.172  0.0896 -0.0524  0.0898
 7706W        W24553   5.098  10.908   2.167  0.1599  0.0835  0.1542
 7707W        W24554  16.799   6.471   0.740  0.0727  0.2127 -0.1189
 7708W        W24555  10.046  11.048  15.854 -0.0962  0.3773  0.0956
 7709W        W24556   1.633   0.595  15.681  0.1100 -0.1573  0.4295
 7710W        W24557  10.312  16.372  14.411  0.0222  0.1614 -0.0291
 7711W        W24558  11.656  10.848  15.108 -0.1940 -0.0577  0.1153
 7712W        W24559   6.567   7.249   0.900 -0.4404 -0.0795 -0.1410
 7713W        W24560   8.692   7.891   0.245 -0.3234 -0.2727  0.4649
 7714W        W24561   5.189   1.681  12.934 -0.1738  0.3340 -0.2752
 7715W        W24562  13.995   9.713   1.998 -0.0040 -0.4700  0.0580
 7716W        W24563   7.930  15.326   5.409 -0.1606 -0.0327  0.3115
 7717W        W24564   5.008   9.668  13.186 -0.0235 -0.3297 -0.0148
 7718W        W24565   3.281  13.483   2.857 -0.1878  0.2298 -0.0719
 7719W        W24566   9.986   8.230  12.962  0.4044  0.0854 -0.0731
 7720W        W24567  12.426  17.243   0.452 -0.2138 -0.2419  0.4046
 7721W        W24568  14.701   5.394  12.922  0.0845  0.1355 -0.1095
 7722W        W24569  15.906  17.584  13.331 -0.3177  0.3168 -0.0813
 7723W        W24570  17.383  15.728   5.642 -0.0503 -0.0919 -0.0035
 7724W        W24571   6.119   1.390   0.039 -0.0721 -0.0132 -0.2110
 7725W        W24572   1.408  10.705  15.273 -0.3191 -0.0334 -0.0916
 7726W        W24573  16.615   4.052   2.212  0.0119 -0.0072  0.1849
 7727W        W24574  12.544   8.190  12.527 -0.1387 -0.0328 -0.1431
 7728W        W24575   5.414  13.647   1.921 -0.0654  0.1812  0.1029
 7729W        W24576  10.895   8.194   6.340  0.0248 -0.0480 -0.1076
 7730W        W24577   7.644  13.493  13.592 -0.1996  0.0638 -0.0881
 7731W        W24578   9.604  15.947  12.493 -0.1769 -0.1019  0.0434
 7732W        W24579   6.865   0.558  14.537  0.0459  0.0144 -0.3285
 7733W        W24580  12.543   1.999   5.595  0.1840 -0.1001  0.0010
 7734W        W24581   3.709  12.645  14.262 -0.1284 -0.0291  0.0624
 7735W        W24582  17.777  13.751   5.463 -0.1257  0.0227  0.2186
 7736W        W24583   4.596  15.353  16.107 -0.2433 -0.3338 -0.0398
 7737W        W24584   5.919   0.447  16.412 -0.1202  0.0676  0.1045
 7738W        W24585  10.923   8.070  13.062 -0.1953  0.0235  0.1180
 7739W        W24586   9.364   5.159  15.827  0.0687  0.0617 -0.1112
 7740W        W24587  15.364  14.946  14.754  0.0403 -0.0651  0.0671
 7741W        W24588   7.716  15.666   1.649 -0.0045  0.1208 -0.0232
 7742W        W24589  14.014  12.537  14.157  0.3652  0.2137  0.1401
 7743W        W24590  17.208   7.029  11.954  0.1047  0.1666 -0.2084
 7744W        W24591  15.231   0.047   0.002 -0.0663  0.0676 -0.2232
 7745W        W24592  14.109   2.324  14.736  0.2475 -0.1635 -0.2030
 7746W        W24593  17.142  11.013  14.367  0.2979 -0.2273 -0.1022
 7747W        W24594  13.482  15.936   4.588 -0.1192  0.3075  0.0748
 7748W        W24595  12.805   2.520   1.824  0.0126  0.0559 -0.0697
 7749W        W24596  14.775   1.382   6.135 -0.1854 -0.3226  0.2989
 7750W        W24597   8.423   7.486   0.619 -0.0102  0.0442 -0.0956
 7751W        W24598  12.098  13.063   5.272 -0.0409 -0.2588  0.1789
 7752W        W24599  12.821  11.839   4.623 -0.0229 -0.1674  0.1181
 7753W        W24600  16.119   0.584   2.887  0.0308 -0.0248  0.1923
 7754W        W24601  10.156   1.376  13.036 -0.1815  0.0829 -0.0690
 7755W        W24602   0.051  17.704  11.720 -0.0192  0.0941 -0.2026
 7756W        W24603   4.896  14.397  14.954 -0.2218  0.1187 -0.0046
 7757W        W24604  10.353   0.336   2.101 -0.2138 -0.0907  0.0349
 7758W        W24605  11.415   7.262  13.529  0.1668  0.1562  0.1709
 7759W        W24606  16.631   9.650  16.723 -0.2491 -0.1469  0.4345
 7760W        W24607  16.796   1.134  16.586  0.0143  0.1094  0.2551
 7761W        W24608  17.771   8.660   2.718 -0.2421 -0.1655  0.1035
 7762W        W24609   7.030  17.767  15.115 -0.0140  0.0588  0.0583
 7763W        W24610  13.378   7.399   4.484 -0.0097  0.0250 -0.1815
 7764W        W24611   1.494   5.142   4.908 -0.0095 -0.0897 -0.2724
 7765W        W24612  12.764  15.128  14.901 -0.2293  0.1384  0.1398
 7766W        W24613  15.825   1.410   3.475  0.1382  0.2983 -0.0623
 7767W        W24614   5.061   6.355  15.866 -0.0133 -0.1633 -0.0403
 7768W        W24615  15.084   2.066   3.824 -0.1423  0.0793 -0.0188
 7769W        W24616  14.870   4.320  15.791  0.0960  0.2275 -0.2639
 7770W        W24617   5.159  11.624   4.263  0.4058  0.2083  0.0066
 7771W        W24618   1.949  15.398  15.683 -0.0940 -0.2635 -0.0976
 7772W        W24619   0.543   8.381  15.527 -0.0371 -0.1552 -0.2584
 7773W        W24620   1.235  11.357   1.056 -0.1764 -0.0376  0.0395
 7774W        W24621   2.320  16.464   2.269  0.0056  0.0893 -0.0370
 7775W        W24622   7.966  16.060  15.895  0.3878 -0.0335  0.0059
 7776W        W24623   7.022   1.417   4.046  0.1879 -0.1630  0.1120
 7777W        W24624  10.384   7.415   5.109 -0.0155  0.2453 -0.0965
 7778W        W24625  13.912   1.774  12.252  0.0227 -0.0673 -0.0830
 7779W        W24626  17.559  14.488   2.926  0.2455  0.0398 -0.1347
 7780W        W24627   7.456  15.192  14.332  0.1001 -0.0069  0.4102
 7781W        W24628  10.257  11.067  15.125  0.0946  0.1785 -0.0320
 7782W        W24629   0.429  12.466   3.579  0.4775 -0.0690 -0.2273
 7783W        W24630   5.751  12.776   2.174  0.0179 -0.1437  0.2362
 7784W        W24631   4.485  17.303   5.179  0.1077  0.1360  0.1461
 7785W        W24632  14.777   6.643   2.574 -0.1699 -0.0395 -0.2724
 7786W        W24633   9.033  11.982   2.883  0.1996  0.0016 -0.0036
 7787W        W24634  13.944  15.925   3.375  0.0193  0.3064 -0.1331
 7788W        W24635  15.639  12.858  13.171 -0.1464 -0.2265  0.2929
 7789W        W24636   8.069  15.114  15.347 -0.0153 -0.0059 -0.0846
 7790W        W24637  15.669   2.370  11.461 -0.2539 -0.2692  0.3110
 7791W        W24638   6.987   9.289   2.913 -0.1014 -0.3594 -0.0343
 7792W        W24639  15.841  13.428   0.827  0.0005 -0.2976  0.0965
 7793W        W24640   7.680  17.471   5.058  0.0293  0.1437 -0.1395
 7794W        W24641   5.917  16.669   1.939 -0.1008 -0.2632  0.1174
 7795W        W24642   3.468  11.323  13.428 -0.0105  0.2153 -0.0094
 7796W        W24643   5.834   7.511   0.288  0.3783  0.0943  0.0094
 7797W        W24644   7.995   9.178  13.468  0.2642  0.1531  0.1083
 7798W        W24645  16.744   0.121   5.577 -0.0545  0.2568  0.0393
 7799W        W24646  14.517   2.359   2.547  0.1362  0.0498  0.1209
 7800W        W24647   5.028   3.464   6.083 -0.1402  0.2166  0.0736
 7801W        W24648   9.999   3.900  15.790  0.2798 -0.0627  0.3701
 7802W        W24649   7.568  12.800   5.640  0.1462 -0.0214  0.2345
 7803W        W24650   9.975   9.781   0.854 -0.0585 -0.1120 -0.0633
 7804W        W24651   2.348   5.127  13.033  0.2328  0.1231  0.1074
 7805W        W24652   4.144   0.088   4.505  0.2171 -0.2340 -0.0645
 7806W        W24653  15.032   2.546   0.177 -0.0452  0.1321 -0.0598
 7807W        W24654   1.386   8.213  13.516 -0.1170 -0.1014 -0.0951
 7808W        W24655   1.659   7.069   0.712 -0.1579 -0.0011  0.1547
 7809W        W24656  16.471  10.320  12.191 -0.2469 -0.0497  0.3907
 7810W        W24657   3.295   6.559   2.922 -0.0267 -0.0333  0.1512
 7811W        W24658   3.212   1.045   2.813 -0.0436 -0.3507 -0.2591
 7812W        W24659   4.827   2.542   3.181  0.2000 -0.0948  0.0351
 7813W        W24660   9.955   9.960   1.836  0.2723  0.2498  0.2184
 7814W        W24661   7.565  10.404   0.882  0.1082  0.0607  0.1057
 7815W        W24662   2.247   2.323  15.005 -0.1111  0.0599 -0.1222
 7816W        W24663   0.056   2.940  14.940 -0.2310  0.2161  0.0812
 7817W        W24664  13.654  13.682  15.636  0.0942  0.0012  0.1307
 7818W        W24665   6.261  12.383   4.444 -0.2946 -0.2166 -0.2421
 7819W        W24666  11.279  10.361  13.838 -0.2215 -0.1064  0.1012
 7820W        W24667   6.867  13.272   3.687  0.1404  0.0239  0.2760
 7821W        W24668   4.040   4.650  15.160 -0.1846 -0.3484  0.0272
 7822W        W24669  12.873   4.849   2.649  0.0153 -0.1794 -0.0820
 7823W        W24670   2.727   1.696   5.389  0.3747  0.0882  0.1282
 7824W        W24671  13.129   9.970   0.315 -0.0750  0.0290  0.3515
 7825W        W24672   8.203   8.591   1.186 -0.0822  0.0181 -0.0448
 7826W        W24673   1.193  17.939  13.361 -0.2421 -0.1146 -0.0964
 7827W        W24674   5.048   5.437  16.088 -0.2209  0.4508  0.0641
 7828W        W24675   2.711   0.161  13.626 -0.1334  0.4875  0.1384
 7829W        W24676   1.654  15.399  15.263 -0.1107  0.1052  0.4437
 7830W        W24677  13.558   6.523  12.676  0.0064  0.2611  0.2815
 7831W        W24678   4.712  15.205   4.860  0.0872 -0.2058  0.0962
 7832W        W24679   0.628   8.938  12.116 -0.0297 -0.1748 -0.1527
 7833W        W24680  10.980   8.971  14.308  0.2471 -0.0685  0.0623
 7834W        W24681   6.148  13.365  12.516  0.0937  0.0238  0.3424
 7835W        W24682   9.831   5.071   5.325 -0.0429  0.4024  0.1617
 7836W        W24683   0.294  12.178  13.575 -0.1166  0.0767  0.0599
 7837W        W24684   6.545   6.203  16.141  0.0657  0.0218  0.1434
 7838W        W24685  12.067   1.054   2.638  0.0359 -0.0558  0.2104
 7839W        W24686   5.599   9.319   4.084  0.3281 -0.1426 -0.3206
 7840W        W24687   0.120   9.232   3.323 -0.0628  0.0364 -0.2288
 7841W        W24688   6.400   0.285   1.697 -0.2378  0.1296 -0.0376
 7842W        W24689   6.859   2.246  13.312  0.0063  0.0317  0.1666
 7843W        W24690  17.782   9.013   1.123 -0.4174  0.0970  0.1565
 7844W        W24691  14.015  15.736   2.554 -0.0224 -0.1500  0.2317
 7845W        W24692   8.876  11.344  14.817 -0.1933 -0.1817 -0.1075
 7846W        W24693   3.835  13.993  14.951 -0.0171 -0.0636 -0.0138
 7847W        W24694   7.967   0.867  16.744 -0.2024 -0.0184  0.2007
 7848W        W24695  16.506  14.911  13.822 -0.1401  0.1930  0.4101
 7849W        W24696   5.366   5.045  13.640 -0.1623  0.0991 -0.0372
 7850W        W24697  17.288  16.650  14.080 -0.1959  0.3094 -0.3368
 7851W        W24698   5.489  15.943   1.056  0.1816 -0.0521  0.1768
 7852W        W24699  17.525  10.460  14.694 -0.2786 -0.1846  0.0405
 7853W        W24700   4.949  17.613   5.114 -0.1918  0.3153  0.0039
 7854W        W24701   7.626  16.124   5.905 -0.0383 -0.4146  0.0309
 7855W        W24702   1.693   5.889  16.174  0.1479  0.3930 -0.1572
 7856W        W24703   9.761  11.843   0.027 -0.0329  0.0015  0.3427
 7857W        W24704  11.519  11.522  12.519  0.2494 -0.1352  0.0972
 7858W        W24705   6.807  16.987  15.757 -0.1306  0.0034  0.0318
 7859W        W24706  15.501  14.732   1.125 -0.2785  0.0547 -0.3626
 7860W        W24707   7.477  12.746  13.943  0.0382 -0.1524  0.1369
 7861W        W24708   8.844  15.421   5.285  0.0520  0.0480 -0.0129
 7862W        W24709  10.300  11.491   3.113 -0.1261 -0.2352  0.0279
 7863W        W24710   4.268  10.010   6.263  0.1038  0.0226  0.1743
 7864W        W24711  15.198   9.647  14.542 -0.2377 -0.0125 -0.2928
 7865W        W24712   9.951   4.804   2.496 -0.1265  0.1840  0.1467
 7866W        W24713  11.864   5.124   1.814 -0.1902 -0.0576  0.1288
 7867W        W24714   4.401   4.547   0.336  0.1536 -0.0936  0.1523
 7868W        W24715   0.122   2.142   1.714 -0.1981  0.0421  0.0933
 7869W        W24716  11.084  16.362   5.580  0.1848 -0.3261  0.1502
 7870W        W24717  13.001   4.095  15.392 -0.0305 -0.1523 -0.1145
 7871W        W24718  10.543  13.413  12.109 -0.0427 -0.0419  0.0935
 7872W        W24719   1.274   4.068   5.353  0.0178  0.0411 -0.0539
 7873W        W24720   0.404   1.289  13.921  0.0436  0.0783  0.3052
 7874W        W24721  11.530  14.296   0.193  0.0169  0.1528 -0.1335
 7875W        W24722   7.856   1.835   2.421 -0.2218  0.0452  0.1749
 7876W        W24723   3.983   8.775   2.417  0.1509 -0.0574  0.2504
 7877W        W24724  13.719   0.478  12.485 -0.1224  0.0572 -0.1188
 7878W        W24725   6.139   5.956   4.005 -0.0603 -0.0787 -0.0343
 7879W        W24726   0.553   0.156   3.968 -0.2010  0.1385  0.1365
 7880W        W24727  17.591   7.736   3.130  0.1619  0.1553 -0.2128
 7881W        W24728  10.135  14.254   2.257 -0.4411  0.0798 -0.0747
 7882W        W24729   9.039   9.455  14.690 -0.0501  0.1723 -0.2078
 7883W        W24730  16.761  15.980  15.119 -0.1123 -0.0730  0.0201
 7884W        W24731   5.053   1.073  15.749  0.1885 -0.1750 -0.0890
 7885W        W24732   2.643   0.173   5.168 -0.0429 -0.0823 -0.0205
 7886W        W24733  17.541  17.489  11.689  0.0890 -0.0210  0.2997
 7887W        W24734   0.417   0.464   0.224  0.0286 -0.0655 -0.0069
 7888W        W24735  14.685  14.453   5.563  0.4230 -0.0342  0.0552
 7889W        W24736  10.318   7.349   4.248 -0.1030  0.0229  0.0916
 7890W        W24737   6.154   2.414   0.091 -0.5585 -0.1649 -0.2834
 7891W        W24738   1.683   0.497   2.422  0.1792  0.0316  0.2538
 7892W        W24739  16.646  16.172  16.304  0.1551  0.1760 -0.1048
 7893W        W24740  13.021  11.739  15.704  0.0400  0.1130  0.1678
 7894W        W24741  11.066   7.797   0.535  0.0946 -0.2855 -0.0992
 7895W        W24742  17.836  15.460  16.586 -0.5555  0.4066  0.1131
 7896W        W24743  16.329  14.365  13.165  0.1044  0.1099 -0.1723
 7897W        W24744   1.127  12.611   2.290  0.2440  0.2201 -0.0669
 7898W        W24745  12.968   2.601  13.581 -0.3126 -0.2149 -0.0125
 7899W        W24746   2.142   9.129   5.816 -0.1495 -0.0099 -0.3327
 7900W        W24747   7.031   8.812  15.352  0.2358  0.2032 -0.3312
 7901W        W24748   4.190   5.208  13.206  0.0197  0.0166  0.0108
 7902W        W24749   9.338   4.036  14.804  0.2703 -0.0391 -0.1485
 7903W        W24750  15.997   3.613   3.259  0.0697  0.0964  0.1710
 7904W        W24751   5.117   1.972  16.356 -0.0561 -0.2330 -0.0050
 7905W        W24752  13.099  12.566   2.144 -0.3439  0.2373 -0.1042
 7906W        W24753  16.518   1.603  15.045 -0.1871  0.0370  0.0351
 7907W        W24754   0.839   8.509   1.543 -0.1028  0.2184  0.1937
 7908W        W24755   9.719  17.798   2.031  0.0874 -0.3741  0.1709
 7909W        W24756  16.951  13.424   0.399  0.4166 -0.2046  0.1464
 7910W        W24757   4.143   0.505   0.304  0.3392 -0.0297 -0.0480
 7911W        W24758   0.420   0.944   4.231  0.2459 -0.0819 -0.0245
 7912W        W24759  16.283   0.268   3.230  0.2031  0.1284 -0.0100
 7913W        W24760  12.113   3.427  12.214  0.1777  0.2104 -0.1322
 7914W        W24761  13.949   0.131  15.143 -0.1256  0.1522  0.0352
 7915W        W24762  10.103   5.606   5.961  0.0311  0.1086 -0.0735
 7916W        W24763   9.741   1.846   5.524  0.0014  0.0787  0.0650
 7917W        W24764  17.900  13.165   4.670 -0.2090 -0.1780  0.0587
 7918W        W24765  16.433   9.703   2.970 -0.0597  0.0605  0.1374
 7919W        W24766  10.530   3.649  15.024  0.0064  0.0522  0.0115
 7920W        W24767   9.814   7.038   0.112  0.3477 -0.0744  0.1904
 7921W        W24768   9.019  10.583   4.502  0.2795  0.0405  0.0537
 7922W        W24769   7.516   9.072   6.227 -0.0495 -0.2055  0.0229
 7923W        W24770  16.328   6.290   0.628  0.1493 -0.2634  0.0585
 7924W        W24771   5.097   1.291   5.322  0.2067  0.0649  0.1575
 7925W        W24772   2.816  12.504  14.897 -0.1359  0.0455  0.0193
 7926W        W24773   8.673  13.351   2.830 -0.2527  0.0170  0.1402
 7927W        W24774   7.603   2.758  16.631  0.2560  0.0176 -0.0429
 7928W        W24775  12.832  14.332   1.797  0.1374 -0.0551  0.0228
 7929W        W24776  13.730   4.331   2.356  0.1938  0.2268  0.1283
 7930W        W24777   4.503   0.434  12.905  0.1973 -0.0422 -0.0915
 7931W        W24778  17.462   5.984  15.008  0.1392 -0.1664  0.2366
 7932W        W24779   9.349   2.261  15.238 -0.0580 -0.0758  0.2952
 7933W        W24780  11.404   0.191   1.184  0.3246  0.2921 -0.0445
 7934W        W24781   7.948  14.254  12.384  0.2418  0.2114  0.0397
 7935W        W24782  15.272   6.596   0.448  0.1017 -0.1912  0.0118
 7936W        W24783  12.455  16.598   1.628  0.1657  0.0789  0.2333
 7937W        W24784  11.759   2.133  14.488  0.0144 -0.1359 -0.2272
 7938W        W24785  16.269   6.969  12.561  0.1518 -0.1278 -0.0857
 7939W        W24786   5.504   3.342   3.091 -0.3310  0.1266  0.1040
 7940W        W24787  13.399   8.684   0.181  0.1219  0.0772 -0.1033
 7941W        W24788  10.357   9.429  15.962  0.0259 -0.1456 -0.1854
 7942W        W24789   6.062   2.462  16.007  0.0541  0.1165 -0.0086
 7943W        W24790  17.671  10.665  12.446 -0.0443  0.2497  0.1235
 7944W        W24791  12.033  13.461   5.605  0.0522  0.0265 -0.1666
 7945W        W24792  13.616   6.581  13.445 -0.1069 -0.0207  0.0436
 7946W        W24793  17.685  10.693  13.632 -0.0613  0.2911  0.0948
 7947W        W24794  10.047  16.468   0.081  0.2752 -0.0630 -0.0598
 7948W        W24795  12.174   5.258  12.289 -0.2140 -0.0947 -0.1783
 7949W        W24796   2.088   8.524  16.704 -0.3564  0.1731 -0.4393
 7950W        W24797   7.753  15.258  13.928 -0.2196  0.0139  0.0863
 7951W        W24798   2.748  14.061   5.293 -0.0887  0.1018 -0.3245
 7952W        W24799   7.936   5.140   1.444  0.2473  0.2843 -0.0775
 7953W        W24800   3.822   2.174  11.360  0.2616 -0.0545 -0.1468
 7954W        W24801   7.849   5.308   0.153  0.0319  0.1526  0.2248
 7955W        W24802  10.837   7.508  13.675 -0.1848 -0.1400  0.0147
 7956W        W24803   9.581   7.399  13.177  0.0916 -0.3684 -0.0586
 7957W        W24804   2.921   2.967  16.185  0.0576  0.1872  0.0365
 7958W        W24805  14.006   8.041   4.013  0.2814 -0.0110  0.2846
 7959W        W24806   5.821  14.094  16.783  0.2153  0.1429  0.0211
 7960W        W24807   0.358   2.075  13.259 -0.0490  0.1531 -0.0458
 7961W        W24808  15.614  15.558  12.172  0.2676  0.2988 -0.2003
 7962W        W24809   4.711  16.993   1.518  0.1496 -0.0212  0.2345
 7963W        W24810  13.319   6.679  13.075  0.1878 -0.0321  0.0647
 7964W        W24811   6.157   7.150   1.303 -0.0641  0.1407  0.1969
 7965W        W24812   8.639   9.363   3.391  0.2706 -0.2135 -0.2276
 7966W        W24813  14.974  12.964  14.378 -0.0044 -0.0913  0.0258
 7967W        W24814  12.243   6.175  16.542 -0.0128 -0.4310 -0.1440
 7968W        W24815  13.466  14.798   2.073  0.2144  0.0079  0.0066
 7969W        W24816  11.839  11.606   4.854  0.2018  0.1053 -0.1063
 7970W        W24817   7.602  16.632  12.146  0.0333 -0.0457 -0.1527
 7971W        W24818  17.816   4.031  12.936  0.0142 -0.0629  0.1541
 7972W        W24819   8.192   6.197   3.450 -0.1229 -0.0342 -0.1517
 7973W        W24820  12.035   3.095  15.668 -0.1908  0.0474 -0.2377
 7974W        W24821   4.896   5.903   3.009 -0.0448 -0.3828 -0.0522
 7975W        W24822   2.223  12.856   0.937 -0.0601 -0.0380  0.1240
 7976W        W24823  13.413   5.655   1.116  0.2212 -0.2631 -0.2198
 7977W        W24824  13.297   8.123   6.047 -0.2300 -0.1314 -0.3088
 7978W        W24825   0.095  13.278   5.191 -0.1186 -0.0185 -0.2378
 7979W        W24826   7.447   1.022  13.257  0.0297 -0.1088  0.0165
 7980W        W24827   7.442  11.594   2.607  0.1275 -0.0118  0.0165
 7981W        W24828   6.457  10.070   2.710 -0.0189  0.0602  0.1261
 7982W        W24829   1.446  16.749   3.401 -0.0825 -0.1656  0.0796
 7983W        W24830  15.757   5.012   3.715 -0.1084 -0.4809  0.1722
 7984W        W24831  17.639   3.602   3.653 -0.1237  0.0739  0.1303
 7985W        W24832   3.368   6.208  15.689  0.3160  0.0907 -0.0843
 7986W        W24833  13.736  12.048  12.324  0.0938  0.0268  0.3162
 7987W        W24834   1.041  16.919  12.277  0.2789 -0.2885  0.0243
 7988W        W24835   4.253  17.457  11.247  0.0300 -0.0392 -0.0415
 7989W        W24836   1.189   6.371  12.876 -0.2260  0.0300 -0.2083
 7990W        W24837  10.205  15.600  12.942 -0.2502 -0.1660  0.0369
 7991W        W24838  14.168   3.413  13.569 -0.4240  0.0639  0.2375
 7992W        W24839   6.137   2.094   1.114 -0.2095  0.2219  0.1701
 7993W        W24840   3.090   7.463   3.843  0.0376  0.2504 -0.2549
 7994W        W24841  13.885   4.953   0.522 -0.0482  0.2025  0.0144
 7995W        W24842   1.113   7.961   5.301 -0.1056 -0.1757 -0.2035
 7996W        W24843  13.847  12.724  16.021  0.3095 -0.1284  0.0790
 7997W        W24844   1.852  12.125   5.111 -0.0708  0.2072 -0.0638
 7998W        W24845  14.303   3.985   4.070 -0.0546  0.0449  0.2983
 7999W        W24846   7.315  15.015   2.613 -0.1539  0.2160 -0.3508
 8000W        W24847   4.773   4.710   2.797 -0.5704 -0.2101 -0.1079
 8001W        W24848   8.795  11.740  15.112 -0.1831 -0.2667 -0.0268
 8002W        W24849   1.051   1.182   3.366 -0.2373 -0.0710 -0.1153
 8003W        W24850   4.712   3.123  13.886  0.0299 -0.0148 -0.0717
 8004W        W24851  16.371  17.745  15.506 -0.2277 -0.0399 -0.1503
 8005W        W24852   5.849   8.162  14.461 -0.2162 -0.0347 -0.0810
 8006W        W24853  14.239   0.203   1.422 -0.3193 -0.1345  0.1930
 8007W        W24854   4.695   6.154   3.785  0.1384 -0.1259  0.3512
 8008W        W24855  14.407   1.911   1.056 -0.0511  0.0466 -0.1595
 8009W        W24856  12.274   9.428  16.206 -0.1559  0.1066  0.1539
 8010W        W24857   1.190   0.003  15.887 -0.0153 -0.0799 -0.1225
 8011W        W24858  15.015   7.259   2.692  0.0956 -0.0476  0.0114
 8012W        W24859   4.212  10.001  15.108 -0.3623  0.3661 -0.0101
 8013W        W24860  10.026  10.291   3.045  0.0274 -0.1057 -0.0343
 8014W        W24861  16.251  11.197   3.350  0.2874  0.2107  0.1686
 8015W        W24862  12.154  14.163  16.299 -0.0016 -0.4026 -0.0798
 8016W        W24863  10.322  12.289  13.021 -0.3133  0.0471 -0.0434
 8017W        W24864  10.844  11.326   2.820  0.0062 -0.0002 -0.0742
 8018W        W24865  13.077   3.429   2.837 -0.0160 -0.1723  0.0706
 8019W        W24866   2.484   2.980  10.870 -0.1742  0.1597 -0.0401
 8020W        W24867  13.198   1.473  14.438 -0.0066 -0.1522 -0.2329
 8021W        W24868   1.820  15.621   1.334 -0.4107 -0.2635 -0.1188
 8022W        W24869  10.560  11.066  14.183  0.1792 -0.1586  0.2589
 8023W        W24870   1.324  17.760   4.986 -0.0640 -0.0376 -0.0956
 8024W        W24871   9.418   7.499   2.417 -0.0557 -0.0491 -0.2181
 8025W        W24872   2.057   3.555  14.190 -0.1309  0.2331 -0.1017
 8026W        W24873   7.309   2.612  14.455 -0.0603  0.0136 -0.1998
 8027W        W24874   4.421  17.301   3.471  0.0012  0.5444 -0.1601
 8028W        W24875  15.941   2.773  12.365  0.3195  0.2101  0.0057
 8029W        W24876   3.272  15.148   3.899  0.1005 -0.0166  0.0918
 8030W        W24877   8.672   9.892  15.870  0.2436  0.1244 -0.0154
 8031W        W24878   2.924   3.289  12.428  0.1245 -0.1546  0.0033
 8032W        W24879  13.887   2.263   4.658  0.1717 -0.0024 -0.1218
 8033W        W24880   5.565   6.125   3.127  0.3351 -0.2945 -0.0429
 8034W        W24881   1.542   6.903  13.902 -0.0126 -0.2135 -0.3454
 8035W        W24882   3.759  11.486   1.428 -0.0157 -0.0455  0.0323
 8036W        W24883   9.318   5.775   4.581 -0.4626  0.1520  0.2089
 8037W        W24884  13.989   6.763   4.719 -0.1072 -0.4071 -0.0314
 8038W        W24885   4.229  12.880   1.511  0.0236 -0.1433  0.0430
 8039W        W24886   2.920   1.321  11.208 -0.3105 -0.0854 -0.0753
 8040W        W24887   3.849   8.083  11.188 -0.1780 -0.0723 -0.0004
 8041W        W24888   7.663  17.129   5.963  0.0514  0.4364 -0.1174
 8042W        W24889   4.287   1.933   1.414  0.1784 -0.0823 -0.1783
 8043W        W24890  12.002   7.858   1.704 -0.0860  0.2041 -0.1997
 8044W        W24891  14.189   7.234  16.787 -0.3610 -0.0981  0.0761
 8045W        W24892  13.992   9.555  12.573  0.3185 -0.0646 -0.0649
 8046W        W24893   9.924   7.449  11.809  0.2983  0.0372 -0.0515
 8047W        W24894  11.605  16.568   2.153  0.0369 -0.1116 -0.1356
 8048W        W24895  13.643   8.097   1.802  0.3972  0.0772 -0.0073
 8049W        W24896  12.477   9.250  14.111 -0.0464  0.2071 -0.1119
 8050W        W24897   1.748   0.149   0.579 -0.1572 -0.3093  0.0087
 8051W        W24898  10.270   3.854  11.986  0.1838 -0.2461  0.3230
 8052W        W24899  17.287  13.928  15.628  0.0719 -0.1496 -0.1941
 8053W        W24900  14.776  13.639  14.814  0.1317 -0.1133  0.0522
 8054W        W24901   2.359  11.239  16.280 -0.2096 -0.0829 -0.0412
 8055W        W24902   4.440   1.575  13.816 -0.1687  0.3782  0.2547
 8056W        W24903  13.572  16.568   0.383 -0.0632  0.0532  0.0640
 8057W        W24904  14.232  14.482   4.255  0.2834 -0.3364 -0.3021
 8058W        W24905   4.591  13.811   2.759  0.0039 -0.0394 -0.0523
 8059W        W24906   6.325  12.887   1.448 -0.0268 -0.1687 -0.1697
 8060W        W24907  16.229   5.021   1.014  0.0388 -0.0627 -0.0601
 8061W        W24908   0.751   0.948  14.358  0.2978  0.1161  0.0842
 8062W        W24909   3.754   3.371  11.371 -0.0827  0.0879 -0.1277
 8063W        W24910   5.182  10.970   1.672 -0.0768 -0.0578  0.1829
 8064W        W24911   5.939  15.686   5.492  0.2708 -0.1977  0.1604
 8065W        W24912  10.783   4.966  16.337  0.0453  0.2755  0.0063
 8066W        W24913  11.885   3.966  11.979 -0.0524 -0.0741 -0.0677
 8067W        W24914   7.517  10.393   1.718 -0.2923  0.1356 -0.2683
 8068W        W24915   9.483   7.448  12.681 -0.0593  0.1692 -0.1575
 8069W        W24916   1.750   4.333  13.427 -0.0169  0.3002  0.0654
 8070W        W24917  14.526   5.815  12.834  0.1776 -0.0920 -0.0314
 8071W        W24918   5.447  17.362   3.325  0.2390  0.0268 -0.0138
 8072W        W24919  11.777   8.687  14.742 -0.0509  0.1500  0.0225
 8073W        W24920  11.486   1.996   4.373 -0.1040 -0.2790 -0.0334
 8074W        W24921   4.229  11.756  11.853 -0.1253  0.2995 -0.2115
 8075W        W24922  17.744   2.565  14.169  0.0259  0.2254  0.1227
 8076W        W24923   4.041   5.387   2.713 -0.0969 -0.0774  0.1285
 8077W        W24924  15.813   9.009  11.823  0.5397 -0.1624  0.0497
 8078W        W24925  16.605  16.645  16.231  0.0605  0.0068  0.0594
 8079W        W24926   7.433   1.488   0.680 -0.0076 -0.1349  0.0099
 8080W        W24927   4.708  10.584  12.605 -0.1615  0.1648  0.0172
 8081W        W24928  17.804   7.255   4.810 -0.0954  0.1666 -0.1563
 8082W        W24929   0.798   6.085  12.920  0.0396  0.0902  0.1712
 8083W        W24930   4.515   2.862  11.342 -0.0653 -0.0997  0.2307
 8084W        W24931  12.554  11.963  15.759  0.0746  0.0808 -0.0613
 8085W        W24932   0.478  14.649   1.866 -0.1886  0.1229 -0.0133
 8086W        W24933   2.247  13.295   0.526  0.2499 -0.0167 -0.1665
 8087W        W24934   2.280   7.715  16.681 -0.2701 -0.1013 -0.0918
 8088W        W24935  15.890  12.709   0.346  0.1868 -0.0432 -0.0256
 8089W        W24936   8.406   8.423  15.667  0.2887 -0.0444 -0.0116
 8090W        W24937  10.090   1.369   4.510 -0.1015  0.5029 -0.0472
 8091W        W24938  17.700  10.517  15.174  0.1892 -0.2540 -0.0124
 8092W        W24939   4.323  16.634  13.618 -0.0203 -0.1835  0.0755
 8093W        W24940  13.517   0.444   2.162 -0.2595 -0.0611  0.1311
 8094W        W24941  12.151   5.094  16.654  0.1466  0.0758  0.0423
 8095W        W24942   0.762   1.336  11.965 -0.0723  0.2893  0.1498
 8096W        W24943   6.790   7.372  13.481  0.0089 -0.1445  0.1035
 8097W        W24944   2.258   0.092   5.515 -0.0360 -0.0550 -0.2670
 8098W        W24945  15.542  13.961   5.704 -0.3222 -0.1985  0.2242
 8099W        W24946   5.638  16.227   3.172  0.1439 -0.3271  0.0900
 8100W        W24947   2.266   1.933  14.034  0.1808  0.2542  0.2357
 8101W        W24948  15.260  13.579   3.971  0.4116  0.2060 -0.1439
 8102W        W24949  17.909   5.168  13.136  0.0726  0.0773  0.1203
 8103W        W24950   2.574   1.068  15.621  0.2331 -0.3351 -0.2119
 8104W        W24951   5.738  13.563  16.424  0.1409 -0.3921  0.0632
 8105W        W24952  17.870   0.415  15.740  0.0490  0.0113  0.0756
 8106W        W24953   6.469   0.373   3.015 -0.1017  0.0867  0.0152
 8107W        W24954  16.912  10.175  11.908  0.1110 -0.1603  0.0652
 8108W        W24955   4.666   9.350   5.195 -0.0995 -0.0598 -0.1829
 8109W        W24956  16.348   2.006   1.428  0.1046 -0.0309 -0.4622
 8110W        W24957  14.604  13.224  14.138 -0.0699  0.4205 -0.0375
 8111W        W24958   3.177   7.906   5.142 -0.2254 -0.1612  0.3219
 8112W        W24959  17.105   0.281   6.336  0.2176  0.2108  0.0481
 8113W        W24960  17.943   3.490   1.558  0.2986 -0.1123  0.3558
 8114W        W24961  12.028   4.809  14.544 -0.1360 -0.3107  0.1091
 8115W        W24962  10.005   5.761  16.344  0.0162  0.0215  0.0218
 8116W        W24963  11.608  17.859  12.046 -0.3281  0.0122 -0.2199
 8117W        W24964   9.933  17.260   3.245  0.1702 -0.0908 -0.1694
 8118W        W24965   9.753  13.999   4.869 -0.1890  0.1996  0.1870
 8119W        W24966   0.505  15.439   5.637 -0.2358  0.0315  0.2007
 8120W        W24967  17.903   1.608  15.281 -0.4494  0.2425  0.1169
 8121W        W24968  17.589   4.708   2.197 -0.1960 -0.1298  0.0199
 8122W        W24969   7.570  15.141   1.641 -0.0114 -0.1466 -0.3393
 8123W        W24970  14.162  11.672   3.770 -0.0127  0.0717  0.1049
 8124W        W24971   1.004   3.236  13.247 -0.2927 -0.3085 -0.2810
 8125W        W24972   9.072   7.155   2.473  0.1285 -0.1048  0.0630
 8126W        W24973   0.348  14.966  14.579  0.1163  0.3047  0.0357
 8127W        W24974   5.009   9.153   2.897 -0.1161  0.0548 -0.2737
 8128W        W24975   7.500  16.717   5.036  0.1839  0.5123 -0.1240
 8129W        W24976  12.884   3.768   5.071 -0.4280 -0.0831  0.1491
 8130W        W24977  10.479   3.957   0.488 -0.1689 -0.2616  0.2846
 8131W        W24978   8.872  14.890  16.604  0.1938 -0.2391  0.4341
 8132W        W24979   9.876   8.712  12.318 -0.2905  0.0164 -0.0600
 8133W        W24980   1.535  13.257   3.970  0.0322 -0.2094  0.0258
 8134W        W24981   7.858  17.148   1.750 -0.0268 -0.1987 -0.0721
 8135W        W24982   3.318   5.039  16.441 -0.0250 -0.0990 -0.3070
 8136W        W24983  11.001   3.476  12.902  0.0062 -0.2042 -0.1416
 8137W        W24984   8.632   0.547  16.215 -0.1033  0.4093 -0.1102
 8138W        W24985  15.407   4.675  14.528 -0.1333  0.0839  0.0952
 8139W        W24986  12.220   2.988  12.494 -0.1854 -0.0740 -0.0623
 8140W        W24987  10.315  12.397   5.376 -0.2603  0.0281 -0.0235
 8141W        W24988  13.121   7.168  13.101 -0.2482 -0.0881 -0.1573
 8142W        W24989  15.350   1.153  13.934  0.1622  0.3380  0.0142
 8143W        W24990   7.756   8.179  11.665  0.0300 -0.1019 -0.1837
 8144W        W24991   1.118   7.528  11.905 -0.0398 -0.1838 -0.1927
 8145W        W24992   4.835   0.103   1.845 -0.2049  0.0448  0.1068
 8146W        W24993   8.096  15.256  12.107 -0.1214  0.1816 -0.1299
 8147W        W24994   5.160  10.211   5.306 -0.0817 -0.2483  0.2785
 8148W        W24995   8.837   6.004   1.614  0.1410  0.1091 -0.1234
 8149W        W24996   6.825   8.950   5.471  0.2115 -0.0451 -0.1725
 8150W        W24997   0.471  10.372   5.800  0.1667  0.0689 -0.0966
 8151W        W24998  10.728   3.094  12.839 -0.0463 -0.0357  0.2569
 8152W        W24999   0.234  10.369  12.483  0.0528  0.1623 -0.0087
 8153W        W25000   3.184   8.444  11.785  0.0977 -0.0611 -0.3466
 8154W        W25001  15.514   6.504  13.481  0.0574  0.1122  0.0124
 8155W        W25002  16.541   2.105  11.946 -0.0408  0.0735 -0.2141
 8156W        W25003   7.506   8.919  13.336  0.0240  0.1058  0.0357
 8157W        W25004   2.795   3.652  12.803 -0.1184  0.4034  0.0421
 8158W        W25005  13.355  14.551   4.198 -0.2607  0.2198 -0.0752
 8159W        W25006   5.352   9.255   2.482  0.0119 -0.2624  0.1402
 8160W        W25007   3.194  13.180   5.047  0.1608 -0.0163  0.2073
 8161W        W25008   6.339  12.321   5.029 -0.0221  0.1718  0.1105
 8162W        W25009  12.073   4.395   3.311 -0.1575  0.0481  0.1706
 8163W        W25010  14.114  11.015  14.290 -0.1565  0.1142  0.0488
 8164W        W25011   9.867   0.092  14.475 -0.2214  0.0258 -0.0350
 8165W        W25012   4.918   9.700  15.769 -0.0126 -0.0052 -0.0072
 8166W        W25013  16.238   8.448   3.720 -0.1915  0.0522  0.2035
 8167W        W25014   5.292  14.015  15.005 -0.1817 -0.0710  0.1975
 8168W        W25015   9.161  17.371  16.771  0.3358 -0.3255  0.0695
 8169W        W25016   5.784   9.315  16.747 -0.1343 -0.1515  0.4757
 8170W        W25017  11.529  11.057  13.057  0.0808  0.1185 -0.3764
 8171W        W25018   0.900  16.523  12.040  0.2028 -0.1179  0.0740
 8172W        W25019   7.656   6.201  12.528  0.0522  0.2165 -0.1770
 8173W        W25020  13.933   3.832  14.334 -0.1734 -0.0941 -0.1224
 8174W        W25021   7.960   3.340   5.582 -0.0196 -0.5216  0.3375
 8175W        W25022  14.835   9.511   3.764  0.3389  0.1026 -0.0696
 8176W        W25023   8.154  12.209  13.359 -0.1466  0.0382  0.2858
 8177W        W25024  14.052  10.885   5.721 -0.1286  0.0335  0.3194
 8178W        W25025  14.154   7.293  12.933 -0.1306  0.0732  0.0537
 8179W        W25026   8.882  12.890   5.224 -0.0007 -0.1546 -0.1758
 8180W        W25027   4.383  10.951   0.920 -0.0913 -0.1804  0.2769
 8181W        W25028  13.717  16.006  12.269 -0.0716 -0.4348 -0.2706
 8182W        W25029  15.464   3.037  12.631 -0.0056 -0.2648 -0.1142
 8183W        W25030  13.686  14.255  12.157 -0.0438 -0.4193 -0.2445
 8184W        W25031   8.081  13.422  12.300 -0.0070 -0.0501 -0.0559
 8185W        W25032  11.800  14.348  13.685 -0.1154 -0.0119 -0.2214
 8186W        W25033   8.771   0.887  10.066 -0.0166 -0.0604  0.0275
 8187W        W25034  13.625   4.005  15.424 -0.0959  0.0562  0.0831
 8188W        W25035   5.821   1.447   2.091 -0.2161 -0.3639 -0.0621
 8189W        W25036  14.974  11.495   0.347 -0.2027  0.0934 -0.3345
 8190W        W25037   6.213   1.554   1.067 -0.2432  0.2284 -0.0272
 8191W        W25038   9.262  10.828  15.536 -0.3149  0.1313  0.0301
 8192W        W25039   7.047   5.246  14.021 -0.1851  0.0603 -0.0092
 8193W        W25040   7.490   7.358   0.214 -0.0425  0.2061  0.3326
 8194W        W25041  11.017   6.729   0.924  0.0087  0.0272  0.1419
 8195W        W25042   1.619  13.364   5.754  0.1196  0.1282 -0.0791
 8196W        W25043   7.327   6.844   2.523 -0.0102  0.0617  0.0791
 8197W        W25044  16.078   7.917  15.398 -0.0384  0.2139 -0.1723
 8198W        W25045   0.711   7.148   0.114 -0.2491 -0.0503 -0.3499
 8199W        W25046   7.743   0.744  14.792 -0.1813  0.0847  0.1355
 8200W        W25047  17.874   7.483  11.227 -0.0992  0.1728  0.0550
 8201W        W25048   9.999  11.248   1.293 -0.0625  0.0732 -0.0699
 8202W        W25049   1.041   3.391   4.172 -0.1933  0.2442  0.1292
 8203W        W25050  12.262   3.716  15.226 -0.1408  0.1939  0.1251
 8204W        W25051   6.477   9.637   4.254  0.3829 -0.1556 -0.0091
 8205W        W25052  17.598   8.660  13.410 -0.2197  0.2320  0.1944
 8206W        W25053   3.079  13.159  15.961 -0.0949 -0.0614 -0.0749
 8207W        W25054   2.044   6.611   4.357 -0.0666 -0.1216 -0.0584
 8208W        W25055   7.878   4.481  12.973  0.0447 -0.1339  0.0012
 8209W        W25056  16.309   9.825   1.617  0.2239 -0.2150  0.2340
 8210W        W25057   6.014   1.902   3.323  0.1352 -0.0712 -0.2668
 8211W        W25058  17.522  17.475  14.055 -0.1138  0.2999 -0.4183
 8212W        W25059  15.831  12.114   1.124 -0.1051  0.0800 -0.0788
 8213W        W25060   3.540   7.063   4.647  0.1901  0.1361 -0.2376
 8214W        W25061   0.365   8.593  12.375  0.0427 -0.0642 -0.3422
 8215W        W25062  17.740   8.663   4.586 -0.4600 -0.2483  0.0151
 8216W        W25063   9.807   7.825   0.174 -0.0042 -0.2305 -0.0475
 8217W        W25064  16.251   3.640   3.937  0.1496  0.4684 -0.0637
 8218W        W25065   2.681   3.580  11.832  0.1908  0.2719  0.0682
 8219W        W25066  11.969  15.872  16.461 -0.1295 -0.2770  0.1929
 8220W        W25067   1.506  12.520   5.182 -0.3209  0.1875  0.0944
 8221W        W25068  15.764   2.248  12.227 -0.1189 -0.1161 -0.4728
 8222W        W25069  17.337   3.537   4.047 -0.0956  0.0971 -0.1258
 8223W        W25070   7.551  17.917   2.301  0.0015  0.2201 -0.2270
 8224W        W25071   6.290  13.963   3.861  0.0562  0.2627  0.0525
 8225W        W25072   9.268  10.964  13.975 -0.2309  0.2554  0.0018
 8226W        W25073   6.618   8.770  15.068 -0.0081  0.2380 -0.0894
 8227W        W25074  16.887  10.188   3.079 -0.1097  0.0215 -0.0738
 8228W        W25075  16.874   3.940   2.799  0.1035  0.0879  0.0815
 8229W        W25076   0.350  15.911   4.944  0.2547  0.0387  0.2365
 8230W        W25077   3.291   4.150  13.939  0.1849 -0.0730 -0.1366
 8231W        W25078   4.489   3.997   4.194  0.3769 -0.0180 -0.0532
 8232W        W25079   9.437   2.395   1.437  0.2698 -0.1428 -0.1854
 8233W        W25080  14.770   7.918  15.136 -0.3950  0.0670  0.1151
 8234W        W25081   0.670  16.764   4.492 -0.2659 -0.0040  0.0604
 8235W        W25082   5.373  12.017   3.477  0.0891 -0.3605  0.0098
 8236W        W25083   6.469   5.593   1.427  0.1418 -0.1464  0.1877
 8237W        W25084  16.324   8.912   3.924 -0.2524  0.0414 -0.3823
 8238W        W25085  16.877   2.921   3.796  0.3744  0.0817 -0.1014
 8239W        W25086   6.574   0.386   0.153  0.1732 -0.0948 -0.2756
 8240W        W25087   5.096   4.212   0.371 -0.2198 -0.1293  0.1586
 8241W        W25088   1.575   8.623  12.256 -0.0286 -0.0836  0.0682
 8242W        W25089  12.650   7.685  13.497  0.2025 -0.0745  0.1956
 8243W        W25090   0.468  16.381   1.104 -0.3985 -0.2030  0.0513
 8244W        W25091  11.053   0.992  14.172 -0.3194  0.1439 -0.2761
 8245W        W25092  15.379  16.223   5.761  0.0135 -0.1114  0.2619
 8246W        W25093  10.879   1.200  11.648  0.1063 -0.0829 -0.2460
 8247W        W25094   1.727   9.613   2.111 -0.0084 -0.1721  0.3588
 8248W        W25095  14.251  11.810   4.594  0.4104  0.0053  0.3726
 8249W        W25096  13.316  12.691   4.862  0.4194 -0.1512 -0.0022
 8250W        W25097   6.248  15.602   3.317  0.2082 -0.2336 -0.2582
 8251W        W25098   7.763  12.290  12.127 -0.1263  0.1209  0.1316
 8252W        W25099   4.206   1.670   3.441  0.3158 -0.1944  0.4534
 8253W        W25100   2.114   4.280   3.591 -0.0837  0.3408  0.0235
 8254W        W25101   8.607   5.397  11.849  0.0877 -0.0441  0.1534
 8255W        W25102  14.049   7.784  13.307 -0.0071 -0.0451 -0.3381
 8256W        W25103   9.199   0.952  14.910  0.0398 -0.1453 -0.2083
 8257W        W25104  17.682   4.898   4.053  0.1576  0.3644 -0.0434
 8258W        W25105   1.495   9.928  15.141  0.3532  0.2442  0.0174
 8259W        W25106   8.371  13.219   3.571  0.1217 -0.1865 -0.0536
 8260W        W25107   4.113  11.711   1.703 -0.1477 -0.1038  0.2459
 8261W        W25108   1.021   2.759  16.334  0.2320  0.1737  0.1796
 8262W        W25109   3.989  12.782   3.967  0.1827  0.1899 -0.1833
 8263W        W25110  15.496   2.488   4.771 -0.0726  0.1781  0.0188
 8264W        W25111  15.668   0.715  13.488  0.2182  0.2092 -0.0290
 8265W        W25112   4.788   2.906  14.921  0.0783 -0.1654  0.1223
 8266W        W25113  14.861   6.388   0.717 -0.0135 -0.0638  0.4460
 8267W        W25114   2.630  10.897   5.253 -0.1082 -0.5531  0.2303
 8268W        W25115   1.194  15.951  14.295 -0.0861 -0.1790  0.0444
 8269W        W25116  13.860  17.723   0.169  0.0325 -0.2810  0.0587
 8270W        W25117   7.357  13.099  14.383 -0.0353 -0.0429 -0.2850
 8271W        W25118  11.371  13.407   0.344 -0.1510 -0.1773  0.1136
 8272W        W25119  10.070   2.760  11.945  0.1315  0.2202 -0.1113
 8273W        W25120  11.950   2.258  12.530  0.0930  0.0212  0.0584
 8274W        W25121   7.110  11.292   4.648  0.1052  0.0301 -0.0147
 8275W        W25122   3.549   6.227  14.774  0.0163 -0.1798  0.0874
 8276W        W25123  12.655   0.878  10.742  0.2186 -0.0781  0.3264
 8277W        W25124   5.526   0.196   0.811 -0.0684 -0.1648 -0.3811
 8278W        W25125   9.605  12.050  15.801  0.1219  0.0466  0.1359
 8279W        W25126   1.985  12.067  15.272  0.2584 -0.1223  0.1034
 8280W        W25127   3.533  14.068   4.751 -0.0752 -0.1074 -0.3820
 8281W        W25128  13.334   5.446   4.526  0.0021  0.1745 -0.2227
 8282W        W25129   5.567   4.663   6.644 -0.2028  0.1113 -0.1902
 8283W        W25130  11.313   8.361   5.101 -0.0943 -0.0737  0.0587
 8284W        W25131   1.181   2.292  13.097  0.1256 -0.1825 -0.3031
 8285W        W25132  10.246  10.287   4.610 -0.2599 -0.1745  0.1138
 8286W        W25133   4.076   6.761  15.952  0.2584 -0.1552  0.0910
 8287W        W25134   5.302  15.163  10.491 -0.1007 -0.0038 -0.0835
 8288W        W25135  10.752   1.807   0.069  0.1031  0.0709 -0.1232
 8289W        W25136  14.407  16.909   5.259 -0.1396 -0.0657 -0.0758
 8290W        W25137   5.918  17.529   0.084  0.1515 -0.0390 -0.1508
 8291W        W25138   3.567  14.401   3.358 -0.0457 -0.1022 -0.1278
 8292W        W25139   3.529   0.644   2.867 -0.0271  0.1768  0.0298
 8293W        W25140  17.736   0.859  13.839 -0.1784 -0.1184 -0.2245
 8294W        W25141   3.715   2.739   1.225  0.0594 -0.1307 -0.0411
 8295W        W25142  10.723   4.454   5.699 -0.1659  0.1677  0.0858
 8296W        W25143  14.833   5.535  15.874 -0.0264  0.0542  0.0700
 8297W        W25144  11.723   6.728   3.061  0.0855  0.1644  0.0290
 8298W        W25145  15.504   5.651  12.080  0.2526 -0.0574 -0.1379
 8299W        W25146  12.488   9.159   1.219 -0.2130  0.0695 -0.3761
 8300W        W25147   2.400  10.245   4.544 -0.2338  0.1418  0.2441
 8301W        W25148   5.039  16.680   2.056 -0.2704  0.1782  0.1292
 8302W        W25149   9.589   5.657   2.801 -0.1867 -0.1691 -0.1220
 8303W        W25150  12.706   5.627  14.551  0.1476  0.3704  0.0578
 8304W        W25151   1.239  12.988   4.455 -0.0968 -0.1039  0.0343
 8305W        W25152   6.681  13.148  16.247 -0.1936  0.3696  0.1072
 8306W        W25153   8.720   1.557   4.674 -0.0994 -0.1183  0.0484
 8307W        W25154   5.515  12.394   2.998 -0.0946  0.1393 -0.1882
 8308W        W25155  15.749  10.755   0.677  0.1552 -0.2813 -0.0007
 8309W        W25156  11.796   6.729  12.388 -0.0927  0.1360  0.1903
 8310W        W25157  10.577   3.293  15.414  0.1179 -0.0663 -0.1359
 8311W        W25158   9.188  11.597   1.001 -0.0812  0.2732 -0.1684
 8312W        W25159   3.884   9.691  16.405 -0.2601  0.0323 -0.2088
 8313W        W25160   8.701   6.329  11.530  0.2805 -0.0436 -0.1879
 8314W        W25161  13.939   9.527  13.732 -0.2504 -0.1244 -0.2424
 8315W        W25162  17.572  17.923  14.961 -0.2073  0.0934  0.0202
 8316W        W25163   2.579  15.812   1.110 -0.2444  0.2596  0.2742
 8317W        W25164   8.005   8.036   5.041 -0.1254 -0.2612  0.2070
 8318W        W25165  10.994   4.992  12.485 -0.4643 -0.0652 -0.3019
 8319W        W25166  17.094   5.546  14.049 -0.0875  0.0185 -0.2033
 8320W        W25167   2.859   2.693   2.588 -0.1725 -0.4310  0.0343
 8321W        W25168   3.659   2.177   5.413 -0.3905 -0.3558  0.0060
 8322W        W25169  16.590   7.174  15.909 -0.1159 -0.0203  0.2107
 8323W        W25170   4.315   6.140   5.999  0.0737 -0.2186 -0.0863
 8324W        W25171   6.859   9.608   0.461  0.0847  0.1896 -0.2589
 8325W        W25172   7.054  17.191   2.819 -0.2778  0.0687  0.0417
 8326W        W25173  17.788  11.722   4.588  0.1091  0.1015 -0.2927
 8327W        W25174   5.857  16.943  12.322 -0.0303  0.0039  0.1152
 8328W        W25175   1.528   9.687   4.668 -0.1769  0.0656  0.0017
 8329W        W25176   8.937   8.606  15.911 -0.0206  0.2182  0.1184
 8330W        W25177   6.448  17.853   5.686  0.0892  0.1792  0.1791
 8331W        W25178   8.207  15.344   4.560  0.1818 -0.0645 -0.1305
 8332W        W25179   7.624  12.907   0.358 -0.5111  0.1002  0.1182
 8333W        W25180  16.106  17.626  15.971 -0.1638  0.0305 -0.2160
 8334W        W25181   4.084   1.408   2.000  0.0264 -0.1485  0.2529
 8335W        W25182  17.220   8.468  15.363 -0.3629 -0.0144 -0.2962
 8336W        W25183  13.847  14.091   0.823 -0.1828  0.0423 -0.0614
 8337W        W25184  13.755   6.569  11.614 -0.2999 -0.1926  0.1471
 8338W        W25185   7.570   3.046  12.761 -0.2532  0.0753  0.4267
 8339W        W25186   2.391  12.879   6.097 -0.0372  0.0768 -0.1374
 8340W        W25187  14.485   6.985   0.744  0.1537 -0.1082  0.2673
 8341W        W25188  12.965  15.593  14.853 -0.0188  0.1039 -0.0840
 8342W        W25189   8.550  15.020  13.032 -0.0524 -0.1069  0.0678
 8343W        W25190  11.483  16.857  15.631  0.2006 -0.1353  0.0254
 8344W        W25191  14.383   1.955  14.487 -0.1925 -0.0507  0.0717
 8345W        W25192  17.323   5.080  13.925 -0.0003  0.3211 -0.0277
 8346W        W25193   9.239   8.437  13.079  0.3793 -0.0632  0.0074
 8347W        W25194   6.760  10.970   2.911  0.1063 -0.1065 -0.0069
 8348W        W25195  12.784   9.665   0.053 -0.3230 -0.2340  0.1484
 8349W        W25196  17.568   8.456  16.545 -0.1131 -0.0069  0.1340
 8350W        W25197   7.468  12.704   3.988 -0.1149  0.0298 -0.0709
 8351W        W25198  10.460  15.731  12.361 -0.0985 -0.1297 -0.1904
 8352W        W25199   3.326  13.686   0.277 -0.0258 -0.3482  0.0855
 8353W        W25200   0.638  17.007  16.573  0.1496  0.2547  0.0434
 8354W        W25201   6.742   1.637  11.842  0.0918  0.2315  0.1180
 8355W        W25202   9.840   0.349  13.989 -0.1454 -0.3390  0.1095
 8356W        W25203   7.901  15.164   0.821 -0.4628  0.0114 -0.1982
 8357W        W25204   8.093   4.600  16.109 -0.0667  0.0299  0.0276
 8358W        W25205  14.806  10.827  15.768 -0.2348 -0.0664 -0.1975
 8359W        W25206  16.896   5.283   2.671 -0.3386  0.2759  0.1529
 8360W        W25207  14.636   2.552   5.236 -0.1690  0.1043 -0.0236
 8361W        W25208   3.589  13.388   1.924  0.0745 -0.0126 -0.0614
 8362W        W25209   8.212  12.563   3.356  0.2714  0.1642 -0.0084
 8363W        W25210  15.377  11.811   1.123 -0.0575  0.1588 -0.0573
 8364W        W25211  16.264  10.981   5.201  0.0727  0.1117 -0.0040
 8365W        W25212  15.059   1.944  15.874 -0.0727 -0.1110 -0.0317
 8366W        W25213   5.178   5.296   3.801 -0.0372 -0.0118  0.0652
 8367W        W25214  12.261   0.602  13.644  0.0382 -0.3611 -0.2085
 8368W        W25215   7.086  14.269   1.388 -0.1582  0.1919 -0.0498
 8369W        W25216  17.879   5.038  15.809 -0.0429  0.0796 -0.0825
 8370W        W25217   3.936   1.307  13.757 -0.1185  0.0356  0.2167
 8371W        W25218  10.006  12.066  14.902 -0.2506 -0.0615  0.1451
 8372W        W25219   2.219   6.191   5.128  0.0826 -0.0414 -0.0201
 8373W        W25220   0.953   9.245   2.765  0.0116  0.1652  0.1729
 8374W        W25221   7.461   7.586   1.850 -0.0127 -0.0113  0.3383
 8375W        W25222  14.877  17.455  14.503 -0.1644  0.0444 -0.0315
 8376W        W25223  16.365  17.795  13.360 -0.2450 -0.3791  0.2546
 8377W        W25224   0.416  12.450  12.786 -0.1314  0.3035  0.0365
 8378W        W25225   0.697   4.842  12.013 -0.2734  0.1629  0.3617
 8379W        W25226  10.223  16.484   3.473 -0.2517  0.1991 -0.0715
 8380W        W25227   2.823  15.438   3.357 -0.2428 -0.0406 -0.0326
 8381W        W25228   2.164  15.813   5.308 -0.0822  0.1897  0.1479
 8382W        W25229   6.196   0.717   0.830  0.2051 -0.1753 -0.2808
 8383W        W25230   7.486   9.192   2.950 -0.0821  0.0226 -0.3507
 8384W        W25231   1.102   1.426   3.936  0.0462  0.1670 -0.1401
 8385W        W25232   6.263   7.333   5.531 -0.0009 -0.0124 -0.0016
 8386W        W25233  11.564   3.009  16.791 -0.3130 -0.2307 -0.1397
 8387W        W25234   9.439  11.082  11.945  0.1186 -0.4198  0.2311
 8388W        W25235   0.128   4.336  15.191 -0.0638  0.3771  0.1150
 8389W        W25236  10.542   6.822  13.252  0.0251  0.0109 -0.0972
 8390W        W25237   8.742  16.079   0.532  0.1023  0.1388 -0.0298
 8391W        W25238   3.408  15.819   1.254  0.2131 -0.1827  0.4361
 8392W        W25239  11.371  15.880   5.802  0.2269  0.1215  0.0987
 8393W        W25240   8.049  10.970   2.038 -0.3423  0.1250 -0.2740
 8394W        W25241  14.407  13.358   3.009 -0.2166  0.1315  0.0683
 8395W        W25242   3.571   1.849  15.108 -0.1119  0.1180 -0.2523
 8396W        W25243  14.344   6.949   5.018 -0.2137 -0.0510  0.0942
 8397W        W25244   8.496  16.073  13.423 -0.0138  0.0799 -0.1690
 8398W        W25245   8.455  14.739  16.312 -0.0102 -0.2997 -0.0721
 8399W        W25246  15.903  15.637   4.625 -0.0991  0.1654 -0.4430
 8400W        W25247  10.948  12.556   1.176  0.0168 -0.1950 -0.0753
 8401W        W25248  10.609  14.935   0.730  0.0950 -0.3926 -0.0114
 8402W        W25249  13.945   9.117  16.439 -0.0851  0.3009  0.1423
 8403W        W25250  14.972   2.049  15.108 -0.3240  0.0019 -0.3177
 8404W        W25251   2.690   5.470  15.271  0.1169 -0.3927 -0.0239
 8405W        W25252   0.079   0.112   0.538 -0.1935  0.2152  0.0462
 8406W        W25253   1.691  13.116  16.525 -0.1982 -0.0667 -0.2206
 8407W        W25254   0.241  14.406  13.672  0.3215  0.0718  0.3950
 8408W        W25255  15.288  13.642  14.844 -0.0351 -0.1553  0.0498
 8409W        W25256  14.231   5.999   4.698  0.0155  0.2267 -0.0673
 8410W        W25257   4.093  15.955  14.045 -0.1108 -0.0484 -0.0864
 8411W        W25258   7.390   2.092   1.180  0.2019 -0.1364  0.0037
 8412W        W25259  12.142   3.690  13.832 -0.1705 -0.0109  0.2606
 8413W        W25260  16.121   6.014  13.999 -0.1848  0.0537 -0.1063
 8414W        W25261  13.417   1.751   2.825  0.0452  0.0593  0.1924
 8415W        W25262   9.804   1.994   5.073  0.0564  0.1339  0.0550
 8416W        W25263  17.255   1.639   1.581  0.1357 -0.1616  0.0895
 8417W        W25264   0.390  17.767   2.907 -0.0080  0.0676  0.0135
 8418W        W25265  16.452  15.900   2.746 -0.0804  0.2263 -0.0616
 8419W        W25266   9.527   8.478  12.054 -0.1304 -0.1552  0.0945
 8420W        W25267   2.142   9.680   1.820  0.1781 -0.2170 -0.0177
 8421W        W25268  13.749   5.369   2.857 -0.1079 -0.1896  0.1038
 8422W        W25269  14.150   2.628   1.699  0.2325  0.2140  0.0775
 8423W        W25270  16.932  11.289   5.938 -0.1579 -0.0434 -0.0028
 8424W        W25271   3.784   0.980   4.175 -0.3342  0.0987 -0.0346
 8425W        W25272   8.843   3.789  16.033  0.2574 -0.2453  0.3780
 8426W        W25273   4.736   3.474  12.988 -0.1429 -0.1824 -0.1897
 8427W        W25274  13.882   4.314  12.843 -0.1422  0.0734 -0.0986
 8428W        W25275   2.738  15.071   5.285  0.0219 -0.0132 -0.1690
 8429W        W25276   2.455   5.329   3.933  0.1519 -0.0239 -0.2174
 8430W        W25277   4.617  10.231  12.952 -0.0770 -0.2178  0.2913
 8431W        W25278   2.979  11.536   6.391  0.1968 -0.0793  0.1582
 8432W        W25279   5.935  10.857   6.329  0.1529  0.0343 -0.1518
 8433W        W25280  16.980   0.493   2.337  0.0540  0.2156 -0.2971
 8434W        W25281   9.117  14.815  15.666  0.1228 -0.1268 -0.1702
 8435W        W25282  15.206   6.014   4.575 -0.1884  0.1451 -0.1344
 8436W        W25283   6.848  11.308  15.480 -0.0751  0.3968 -0.1671
 8437W        W25284  12.514  11.471   3.256  0.1459  0.0300  0.0491
 8438W        W25285  10.220   5.235   2.494  0.0721 -0.0010  0.3709
 8439W        W25286   2.762   4.511  16.025  0.1548 -0.2358 -0.1588
 8440W        W25287  14.434  11.992  13.278  0.3715  0.0443 -0.2007
 8441W        W25288   7.572  10.923   3.295 -0.0285 -0.1244 -0.0932
 8442W        W25289   9.653   2.269  16.531 -0.0515  0.2382 -0.1619
 8443W        W25290   9.901   4.961   1.121 -0.0598 -0.0568  0.0611
 8444W        W25291   7.668  12.354   2.551  0.1148 -0.1275  0.0555
 8445W        W25292   6.944   1.490   3.349 -0.1367 -0.3573 -0.1713
 8446W        W25293  15.355  14.229  13.315  0.2674 -0.2479 -0.3097
 8447W        W25294   2.860   5.047  16.680  0.1744  0.0605  0.1598
 8448W        W25295   7.035   4.516   3.728  0.2261 -0.4311  0.1818
 8449W        W25296   6.652   6.353   0.798 -0.0549 -0.1496  0.0190
 8450W        W25297   9.362   6.981   0.907  0.1245 -0.0394  0.1752
 8451W        W25298  14.796   5.417   0.991  0.1176 -0.1202 -0.1530
 8452W        W25299  13.669  16.335   3.248 -0.1152 -0.0103 -0.3557
 8453W        W25300   9.943  13.457   4.232  0.1390 -0.5288  0.1526
 8454W        W25301  12.145  14.793   1.686 -0.1380  0.0071 -0.1924
 8455W        W25302   0.429  16.316   4.666  0.1677  0.0949 -0.1197
 8456W        W25303  15.246  11.052  16.156 -0.0944 -0.2879 -0.2579
 8457W        W25304  11.384   9.735   4.231  0.2094 -0.0805 -0.1418
 8458W        W25305   2.490   8.513   1.468  0.0141  0.1319 -0.2183
 8459W        W25306   8.951   9.493  16.093 -0.0922  0.0799  0.0376
 8460W        W25307  17.457   2.300  13.651 -0.0732  0.4086 -0.2854
 8461W        W25308   4.220  13.145  13.649 -0.1681  0.2373  0.1468
 8462W        W25309   4.151   1.773  12.919 -0.0842 -0.0665  0.1309
 8463W        W25310   0.763   5.131  14.909  0.0123  0.2408  0.2460
 8464W        W25311   0.758  11.127  15.924  0.0028 -0.2072  0.2963
 8465W        W25312  11.556  12.436  14.006  0.0647  0.0680 -0.3188
 8466W        W25313   6.090   7.512  12.964  0.2737 -0.0367  0.0216
 8467W        W25314  17.318   6.193  11.915 -0.1199 -0.2318 -0.0405
 8468W        W25315  15.111   7.617   4.898  0.1209 -0.0514  0.0814
 8469W        W25316  11.748   6.910  13.578 -0.0337  0.2788  0.3297
 8470W        W25317   6.929   0.036   0.242 -0.1953  0.1920 -0.0056
 8471W        W25318   7.099  12.831  16.213 -0.0868  0.0431  0.1259
 8472W        W25319  15.557  16.869  14.301  0.1056 -0.0398  0.0979
 8473W        W25320  17.126  11.184  13.416 -0.0128 -0.2215  0.1179
 8474W        W25321   5.153   3.638  14.404 -0.2388  0.1011 -0.2563
 8475W        W25322   9.777   4.597  12.104 -0.0453 -0.0254  0.0279
 8476W        W25323   9.058   1.371  12.375 -0.2826 -0.0895  0.1286
 8477W        W25324  14.560   0.595  12.060  0.1010 -0.0706  0.0634
 8478W        W25325   3.222  14.225   2.257 -0.1689 -0.5466 -0.1045
 8479W        W25326   5.339  11.460   1.346 -0.0589 -0.4083  0.0437
 8480W        W25327  15.654  17.533  11.763  0.0509 -0.4196 -0.0861
 8481W        W25328   9.457  16.136  16.096 -0.0381 -0.2058 -0.2934
 8482W        W25329   3.073  13.437   2.003 -0.1845 -0.1693  0.1193
 8483W        W25330   8.491   5.226   1.761  0.1735  0.4045  0.4608
 8484W        W25331   1.118   4.555  11.673  0.1137 -0.1050 -0.0783
 8485W        W25332  16.568   5.090  13.145 -0.2362 -0.1213  0.2266
 8486W        W25333   5.093  13.691  15.293 -0.0630 -0.0333 -0.0104
 8487W        W25334   8.653  14.965  15.517 -0.5086  0.0107  0.0926
 8488W        W25335  13.313   5.541  15.343  0.0598 -0.0162 -0.3353
 8489W        W25336   8.895  17.776  11.264  0.3009  0.1626  0.0608
 8490W        W25337   4.562   0.267   4.172  0.0221  0.1826 -0.1308
 8491W        W25338   5.770   0.224  13.352  0.2841 -0.4721 -0.1340
 8492W        W25339  10.676  13.946   2.043  0.2195  0.0847  0.0543
 8493W        W25340  13.729  15.927  14.742  0.0663  0.2126  0.0416
 8494W        W25341  10.108  13.918  15.463 -0.2630 -0.0338 -0.1596
 8495W        W25342  15.799  10.718   2.614 -0.1212  0.1059 -0.2347
 8496W        W25343  13.782  16.022   2.859 -0.5263 -0.1442 -0.0138
 8497W        W25344  13.332   0.064   2.466  0.1702  0.0329 -0.0566
 8498W        W25345  14.671   0.895   0.315  0.0062 -0.0505 -0.1047
 8499W        W25346   1.869   5.246  13.052  0.1146  0.1547  0.0301
 8500W        W25347   5.872   2.488   1.370  0.2546 -0.0721 -0.1771
 8501W        W25348   7.452   9.000  14.839 -0.3140  0.1573 -0.1416
 8502W        W25349   9.490   7.396   3.585 -0.1977 -0.2302  0.1784
 8503W        W25350   5.825  12.778  16.496 -0.2357 -0.1059 -0.4513
 8504W        W25351  10.896  13.189  12.388  0.1362 -0.0014  0.0451
 8505W        W25352   0.750  10.055   1.179  0.1298  0.0053  0.2010
 8506W        W25353  15.160  10.256  13.845 -0.1834 -0.1080 -0.2416
 8507W        W25354   6.153  17.834   2.859  0.1106 -0.0138 -0.2431
 8508W        W25355  13.722   9.004   4.044  0.1120 -0.2296  0.0105
 8509W        W25356  17.186  12.335  15.392 -0.1700  0.0361  0.2310
 8510W        W25357   8.159   5.097   4.097 -0.1095  0.0658  0.1813
 8511W        W25358  13.431   1.568  13.014  0.1540 -0.0221 -0.2405
 8512W        W25359  16.287  16.487  12.703  0.0367 -0.0609 -0.1157
 8513W        W25360  12.278  17.460   1.226 -0.0843  0.1004 -0.0703
 8514W        W25361   7.692   1.416  15.911  0.2569 -0.1310  0.1726
 8515W        W25362   1.222  16.232  13.887 -0.2252 -0.0919  0.0998
 8516W        W25363   7.658   4.631  13.726 -0.1700  0.0286 -0.1380
 8517W        W25364   3.056   1.160  15.769  0.0832  0.0664 -0.0416
 8518W        W25365  14.723   5.274   2.841 -0.0449 -0.2230 -0.1849
 8519W        W25366   0.214  14.951  15.890 -0.0771  0.3747 -0.0311
 8520W        W25367  12.598   2.591   0.509 -0.0048  0.0737 -0.1898
 8521W        W25368   2.694  11.731   0.088 -0.1620  0.3596 -0.0215
 8522W        W25369   1.634  17.281   0.988 -0.1588 -0.3193  0.1131
 8523W        W25370  14.262  10.426   0.789 -0.0273  0.1461 -0.0296
 8524W        W25371   7.511   3.853   2.663 -0.0982  0.0619  0.0908
 8525W        W25372   3.449   2.883  15.626  0.1893  0.0111  0.0077
 8526W        W25373   3.305  10.042   0.990  0.1030 -0.2187 -0.1331
 8527W        W25374   5.322   4.031   3.706 -0.0751 -0.0189 -0.1517
 8528W        W25375  11.260   0.701   5.060  0.0651  0.0142 -0.1384
 8529W        W25376   5.836  12.142   0.294 -0.0565 -0.3058 -0.0317
 8530W        W25377  17.764   5.173   2.242  0.1339 -0.2487  0.2082
 8531W        W25378   2.911   5.729   1.331  0.0824  0.1070  0.0271
 8532W        W25379   9.792   6.404   1.533 -0.1360  0.0213 -0.3470
 8533W        W25380  14.559   4.349   0.634  0.0147 -0.0164 -0.3146
 8534W        W25381   5.000   9.954  13.930 -0.0844 -0.1581  0.1410
 8535W        W25382   0.031  15.661   3.082 -0.2105  0.0641  0.0606
 8536W        W25383  12.234  10.514   3.625  0.0338 -0.1309 -0.0877
 8537W        W25384   2.375   3.771  15.537  0.0733 -0.0266 -0.1496
 8538W        W25385  15.670   2.813  16.647  0.2262 -0.0632 -0.1673
 8539W        W25386   4.767   4.999  15.951 -0.0458 -0.0546  0.0967
 8540W        W25387   5.959   6.547   2.449 -0.3759 -0.0349 -0.1419
 8541W        W25388  13.114   7.925   3.385  0.0903 -0.2767  0.3209
 8542W        W25389   5.505   1.148   1.211 -0.3369 -0.0753  0.1234
 8543W        W25390  14.398   8.926  12.029 -0.0938 -0.2158 -0.1175
 8544W        W25391   7.319  11.998   2.325  0.1567  0.0406  0.0150
 8545W        W25392   5.568   1.078   1.738 -0.0102 -0.1917  0.1589
 8546W        W25393  15.820  13.337  12.345  0.4136  0.0131  0.3330
 8547W        W25394  15.174   6.461   4.785  0.1524 -0.0723 -0.0195
 8548W        W25395   4.016   2.420  13.065  0.0723 -0.1134 -0.0894
 8549W        W25396  14.697  12.051   0.348 -0.0740  0.0988 -0.3383
 8550W        W25397   4.712   9.845  15.113  0.0881  0.2710  0.1251
 8551W        W25398   2.610  14.570   5.542  0.0345  0.0493 -0.0932
 8552W        W25399  14.310  12.387   0.365  0.4016  0.0619  0.0908
 8553W        W25400   0.464   0.011   4.986 -0.0679  0.2492 -0.0543
 8554W        W25401   0.080  11.530  13.056 -0.3335  0.0725  0.2800
 8555W        W25402   9.510  10.540  15.229 -0.2146  0.1643  0.0783
 8556W        W25403  12.978   7.778  13.048 -0.1261 -0.1189  0.1050
 8557W        W25404  12.950  15.894   4.604  0.1781  0.1202  0.1710
 8558W        W25405   0.385   5.452  12.917 -0.0370  0.2657 -0.0285
 8559W        W25406  12.663   9.331   4.907 -0.0322  0.0375 -0.1810
 8560W        W25407  12.988   9.092  12.318  0.0318 -0.0111  0.0695
 8561W        W25408   4.325  13.270  15.378 -0.0708  0.1569 -0.0302
 8562W        W25409  11.314   2.027  14.174 -0.4956  0.2376 -0.0808
 8563W        W25410   8.562  10.205  13.693 -0.0390  0.2284 -0.1470
 8564W        W25411   1.557   7.456  13.906 -0.2936 -0.2024  0.0130
 8565W        W25412   4.961  10.662  14.639  0.0617 -0.0235  0.2655
 8566W        W25413  16.369   8.280  14.469  0.0697 -0.0839  0.0591
 8567W        W25414  14.288   1.421   4.801 -0.1593 -0.3694  0.1893
 8568W        W25415  17.924  17.222  11.838  0.1128  0.0494  0.0134
 8569W        W25416  13.896  12.165   0.147  0.0317 -0.1803  0.1799
 8570W        W25417   1.097   7.022   4.242 -0.3284  0.1175  0.2784
 8571W        W25418   1.183   0.723  15.336 -0.2805  0.0270  0.0382
 8572W        W25419   8.753   7.375  12.192  0.0781  0.0353  0.0197
 8573W        W25420   1.211  13.774  13.548  0.0344 -0.0862 -0.0345
 8574W        W25421  15.400   6.997   2.933 -0.0273 -0.0345  0.0930
 8575W        W25422  12.572   3.565  13.626 -0.1050  0.5269  0.1831
 8576W        W25423  14.813  17.878   0.480  0.0651  0.0186  0.2744
 8577W        W25424   7.171  16.520  12.442  0.1619  0.2026 -0.0546
 8578W        W25425   2.950  12.797  16.294 -0.0419 -0.1235  0.0657
 8579W        W25426  14.923   0.220  14.022  0.0672 -0.1304 -0.0793
 8580W        W25427   3.936   1.612   0.322 -0.0856  0.0765 -0.1060
 8581W        W25428   0.781   0.950   5.034 -0.0592 -0.1066  0.1770
 8582W        W25429  12.225   5.291  16.137 -0.2641  0.3103  0.0577
 8583W        W25430   5.505  17.830  13.936 -0.0952  0.0432  0.1306
 8584W        W25431  16.497  14.157   3.873 -0.2510 -0.1016  0.1120
 8585W        W25432   1.812   5.753   2.245 -0.2105 -0.0440  0.1553
 8586W        W25433  13.697  11.681   0.924  0.0433 -0.0855  0.1919
 8587W        W25434   9.288   6.411   5.376 -0.1017  0.1897 -0.1518
 8588W        W25435   7.859  15.175  14.858 -0.1144 -0.4175 -0.1320
 8589W        W25436  11.399  17.043   2.158  0.0624 -0.1598  0.0910
 8590W        W25437  14.971  12.724  14.934 -0.2886  0.1716 -0.0093
 8591W        W25438   2.428   9.827  13.991  0.2116  0.0835  0.0401
 8592W        W25439   2.561  14.803  15.113 -0.5069  0.1734  0.1971
 8593W        W25440   9.548   4.372  14.253 -0.1913 -0.0036 -0.2903
 8594W        W25441   1.141   2.605  14.138 -0.0990  0.1262 -0.0596
 8595W        W25442   7.412   5.311   1.638  0.0088 -0.2154  0.2462
 8596W        W25443  11.184   7.219  11.896 -0.1180 -0.1071  0.3502
 8597W        W25444  15.479   5.551   4.354 -0.2739 -0.0678 -0.2371
 8598W        W25445   4.693   2.966  12.910  0.3522 -0.2840  0.2653
 8599W        W25446   5.938   4.753   2.618  0.0138  0.2672 -0.2666
 8600W        W25447   6.714  17.101   4.748  0.3193  0.1272  0.0028
 8601W        W25448   7.787   0.751  11.856  0.1466 -0.2897 -0.0010
 8602W        W25449  10.965   1.094  12.582  0.0776 -0.1532 -0.1703
 8603W        W25450   9.591  17.311   2.850  0.3081 -0.0438 -0.1495
 8604W        W25451   7.902   1.692   6.305  0.0777 -0.0295  0.0037
 8605W        W25452   7.229   4.266  14.340 -0.4257 -0.0092  0.0485
 8606W        W25453   4.850   5.919   2.510 -0.1801 -0.0468  0.0794
 8607W        W25454   2.093   8.427   1.831 -0.0154 -0.1355 -0.1004
 8608W        W25455  13.789   5.400  16.383 -0.3054  0.1561 -0.0475
 8609W        W25456   2.029   8.841  11.986  0.2187 -0.0635 -0.0155
 8610W        W25457   0.894   4.591  13.791 -0.1489 -0.3478 -0.1905
 8611W        W25458   7.299   7.827   2.649  0.0844 -0.1863  0.1944
 8612W        W25459   2.377   1.392  15.963  0.0754 -0.0075  0.0972
 8613W        W25460  13.495   8.806   2.258 -0.0125  0.2669  0.0653
 8614W        W25461   2.731   7.187   1.489  0.1435  0.1612 -0.4588
 8615W        W25462  14.932   0.239  14.990 -0.2054  0.0743  0.1169
 8616W        W25463  14.594   0.303  15.996  0.1262  0.0214  0.2597
 8617W        W25464  13.284   2.230   2.969 -0.3418  0.3181 -0.1319
 8618W        W25465   3.296   9.101   1.979  0.0786  0.3684 -0.1557
 8619W        W25466  15.224  15.723  16.540  0.1326  0.3799  0.0249
 8620W        W25467   3.150   3.413  13.412 -0.3594 -0.1885 -0.2869
 8621W        W25468  15.897  11.358   5.165  0.0277  0.1954  0.0032
 8622W        W25469   3.602  15.952   2.075  0.0442 -0.0415 -0.0305
 8623W        W25470  10.773  14.599  13.182  0.0325  0.2035  0.0135
 8624W        W25471   8.671   3.512  13.629  0.1779  0.2143  0.1593
 8625W        W25472   3.118  12.731   2.171 -0.0084  0.0046 -0.1052
 8626W        W25473   6.185   8.278   3.025 -0.2432 -0.2276  0.2334
 8627W        W25474   9.789  17.755  11.819 -0.1437 -0.1868 -0.0228
 8628W        W25475   0.473   0.475  16.452 -0.3707  0.2580  0.0917
 8629W        W25476   0.475  12.199  10.669  0.2815 -0.1644  0.1214
 8630W        W25477   2.809   0.481   3.431 -0.6734 -0.0384 -0.1288
 8631W        W25478   7.750   6.537   5.912 -0.1440  0.0932  0.1511
 8632W        W25479  15.341  12.301   4.038 -0.1508 -0.0647  0.2488
 8633W        W25480  15.049   8.784   0.755 -0.1517  0.1941 -0.1579
 8634W        W25481  12.185  17.202   3.676  0.3305  0.0953 -0.0633
 8635W        W25482  10.449  11.646   2.612 -0.0548  0.0727  0.0635
 8636W        W25483  17.062   2.370   4.892  0.0967 -0.0471 -0.1675
 8637W        W25484   0.097  16.351   5.145 -0.1931  0.1336 -0.1912
 8638W        W25485  15.353   4.381  11.656 -0.0985 -0.0193  0.1212
 8639W        W25486   6.673  12.784  15.557 -0.0071 -0.1407  0.4362
 8640W        W25487  12.431   6.576   0.948 -0.2345  0.1385 -0.0917
 8641W        W25488  14.547   0.206   4.996 -0.2007  0.1450 -0.3366
 8642W        W25489  11.926   7.070  16.748 -0.2463 -0.0223 -0.1107
 8643W        W25490  15.023   9.726  15.104 -0.1786  0.1795  0.0259
 8644W        W25491   7.858   2.859   0.782 -0.0458 -0.2125 -0.1349
 8645W        W25492   5.148   7.315   2.103 -0.0396 -0.0231 -0.3394
 8646W        W25493  16.756  11.851  14.652 -0.2277 -0.0592  0.0342
 8647W        W25494   1.664   7.873   0.361  0.1274  0.1892 -0.1694
 8648W        W25495   4.943  11.459  12.226  0.2143  0.2373 -0.0155
 8649W        W25496   1.350  11.622  14.786  0.3913 -0.0292  0.1073
 8650W        W25497  17.139   4.436  12.830 -0.0266 -0.1790  0.0948
 8651W        W25498   4.011   9.233  13.750  0.1136  0.2668 -0.1395
 8652W        W25499   5.853  14.156   1.426 -0.0086  0.2374 -0.0864
 8653W        W25500  10.343  11.834  16.201 -0.1098  0.0421 -0.2455
 8654W        W25501   5.749   1.844  13.729 -0.0685  0.0527  0.1224
 8655W        W25502   3.890   0.903  11.262 -0.2774  0.1912 -0.0510
 8656W        W25503   1.968   6.554  12.975  0.0646  0.0640 -0.0336
 8657W        W25504   3.821  16.616   3.926  0.0727  0.2303 -0.1445
 8658W        W25505  10.270   9.123   3.917 -0.0946  0.1135  0.1130
 8659W        W25506   1.854   3.304  12.791 -0.0189  0.3723 -0.0206
 8660W        W25507  15.584  11.996   3.716 -0.1036  0.0272  0.2805
 8661W        W25508   5.158  10.429   0.766  0.2779  0.0467 -0.0933
 8662W        W25509   5.346  12.056   0.451  0.0141  0.0270  0.3624
 8663W        W25510  12.810   4.969   3.248  0.0721  0.1015 -0.2880
 8664W        W25511  10.119   7.835   3.081  0.0137  0.0472  0.2089
 8665W        W25512  14.893   4.733   5.278 -0.2766  0.0121 -0.2438
 8666W        W25513   2.110   2.850  12.800 -0.1881  0.0290  0.0596
 8667W        W25514   2.436  14.710  15.593  0.1996 -0.3098 -0.2642
 8668W        W25515  15.116   9.425  12.600  0.3112 -0.0983  0.1466
 8669W        W25516  11.017  10.102   0.221 -0.0730 -0.0209 -0.2539
 8670W        W25517  11.144  16.080   1.381  0.1106 -0.0336  0.1273
 8671W        W25518  16.680   7.179   3.365 -0.2232 -0.0472  0.1701
 8672W        W25519   4.409  10.847   2.255  0.1883 -0.0231  0.1055
 8673W        W25520  14.927   2.462  12.048 -0.3959  0.1719  0.1376
 8674W        W25521   5.732  14.887  15.906  0.1012  0.0258 -0.3114
 8675W        W25522   4.278   3.875  15.025  0.0633 -0.0123 -0.2129
 8676W        W25523   1.592   7.712  13.482  0.2523 -0.1602  0.1366
 8677W        W25524  14.785   9.493   4.871  0.3415  0.1683  0.0393
 8678W        W25525  13.721   3.720  16.424  0.2933  0.2643 -0.0164
 8679W        W25526  17.886  13.817  12.667 -0.1831 -0.1536  0.1486
 8680W        W25527   9.728   3.012   1.934  0.0994  0.0087 -0.3427
 8681W        W25528   0.158   5.687  12.472  0.1598  0.2096  0.0416
 8682W        W25529   3.349   4.211   2.451 -0.0924 -0.2816  0.3101
 8683W        W25530   8.901   5.493   4.628 -0.0555  0.0239  0.0539
 8684W        W25531   9.750   0.319   1.646 -0.0215 -0.0031 -0.0467
 8685W        W25532   0.378  16.567   2.595 -0.1914 -0.1776 -0.0391
 8686W        W25533   3.390   7.771   1.370 -0.0193 -0.0262 -0.4388
 8687W        W25534   3.832   6.572   2.904 -0.2100 -0.3532 -0.2366
 8688W        W25535  17.000   7.922   0.225  0.1331 -0.0635 -0.1632
 8689W        W25536   1.379   2.139   5.096 -0.1251 -0.3032  0.0578
 8690W        W25537  14.921  14.924  14.515 -0.1682  0.2786  0.0266
 8691W        W25538  13.790   7.880  15.082 -0.0800 -0.0624  0.1361
 8692W        W25539  12.257   2.910  16.461 -0.1521 -0.0890  0.1579
 8693W        W25540  10.635  10.593  13.993 -0.1230 -0.0752  0.0634
 8694W        W25541  10.434   7.918   2.556 -0.0248 -0.2260  0.2228
 8695W        W25542  12.983   2.962   0.907 -0.2077  0.1256 -0.3345
 8696W        W25543  17.332  10.603   3.704  0.2588 -0.0248 -0.1692
 8697W        W25544   0.888  14.022   1.626  0.1660  0.3855  0.3478
 8698W        W25545   7.280  15.983   1.881 -0.3922 -0.1449 -0.3363
 8699W        W25546   5.581  15.347  14.256 -0.1536 -0.1059 -0.2904
 8700W        W25547   5.246   0.206  11.183 -0.0702  0.0678 -0.0497
 8701W        W25548   8.223  17.406   1.946 -0.3301 -0.2008  0.0843
 8702W        W25549   3.877   8.762   0.557 -0.0333 -0.3185 -0.1062
 8703W        W25550  15.951   8.164   0.489  0.0113 -0.4713  0.1982
 8704W        W25551   4.305   5.974  11.355  0.1909 -0.0678  0.0443
 8705W        W25552  10.128   6.797   1.265  0.1967  0.1866 -0.3513
 8706W        W25553   7.274  11.561  11.939  0.0375  0.0461 -0.1933
 8707W        W25554   5.880  14.217  15.122  0.0236 -0.1188 -0.2010
 8708W        W25555  17.055  14.795   0.717  0.2055  0.3269 -0.0837
 8709W        W25556   2.052   0.175   5.986  0.2562  0.0158  0.0270
 8710W        W25557   6.254   1.794   4.314 -0.3143 -0.0212 -0.0622
 8711W        W25558   2.733   7.957  16.637 -0.1063  0.1834  0.1773
 8712W        W25559  10.367   8.085   0.898  0.1698 -0.2010  0.1318
 8713W        W25560  13.689  10.284  12.288 -0.0375  0.0545 -0.1257
 8714W        W25561   7.132  12.596  11.882  0.0260 -0.1178  0.0105
 8715W        W25562   8.074  15.653  15.632  0.2202  0.2238  0.2762
 8716W        W25563   9.354   4.527   3.821 -0.1424 -0.0148 -0.0917
 8717W        W25564   0.457   8.378  16.679 -0.1551 -0.1894  0.1372
 8718W        W25565  10.293  15.853   5.333 -0.0140 -0.1825 -0.1867
 8719W        W25566  16.847   1.715  11.981  0.0049  0.0207  0.0164
 8720W        W25567  10.514   4.505   4.216  0.2995  0.1142 -0.0035
 8721W        W25568   8.706  16.149   0.061  0.0840  0.3085 -0.4206
 8722W        W25569  15.057  14.004  14.612  0.1504 -0.0580 -0.1399
 8723W        W25570   0.160  11.110   3.486  0.0562 -0.0719  0.0835
 8724W        W25571  11.856   2.167  16.775  0.1505  0.2040 -0.2168
 8725W        W25572   5.413  11.249   2.421  0.1520 -0.1414  0.3401
 8726W        W25573   7.612  15.315   4.252  0.0831 -0.2399  0.3117
 8727W        W25574   5.075  12.550   2.779  0.4831  0.1106  0.3192
 8728W        W25575  14.813   7.365   3.154  0.2056  0.0735 -0.5404
 8729W        W25576   1.430  17.006   4.179 -0.2047  0.0040 -0.1182
 8730W        W25577  10.720   7.732   0.933 -0.3205 -0.0910 -0.1417
 8731W        W25578   8.103  12.203   6.075  0.0545  0.4734  0.1170
 8732W        W25579   7.824  17.176   2.317  0.2108 -0.1039 -0.2349
 8733W        W25580   6.975  11.046  12.234 -0.0702 -0.2532 -0.0581
 8734W        W25581   7.206  10.530  14.498  0.0632 -0.0688 -0.4838
 8735W        W25582   4.391   7.705  15.478 -0.3097  0.2190  0.3119
 8736W        W25583   4.662   7.273  13.076 -0.0501  0.2325  0.1802
 8737W        W25584  12.355   0.356  11.830  0.0937  0.0164  0.0012
 8738W        W25585   4.347  11.391   5.764 -0.0049  0.0692 -0.0564
 8739W        W25586   2.977   1.682  13.800 -0.0244 -0.1581  0.0905
 8740W        W25587  10.778   8.604  15.106 -0.1967 -0.3867 -0.1420
 8741W        W25588  14.459  14.171  12.113  0.2834  0.0314 -0.0438
 8742W        W25589   5.023   2.254   4.349  0.1665  0.0580  0.0401
 8743W        W25590   3.108   7.928   3.629  0.0407  0.4588  0.2548
 8744W        W25591  12.449  14.525   2.155  0.1388  0.0050 -0.1473
 8745W        W25592  12.201  11.638  16.037 -0.2572 -0.0022  0.2697
 8746W        W25593  15.833  12.320  15.752  0.0927 -0.1859  0.1616
 8747W        W25594  14.950  12.790  13.909 -0.0900  0.0042  0.3575
 8748W        W25595   3.945   4.596  14.452 -0.3023 -0.1132 -0.1040
 8749W        W25596   7.782  10.289  13.273 -0.2214  0.0270  0.1243
 8750W        W25597   0.630  12.758  14.157  0.1197  0.1247 -0.1439
 8751W        W25598   1.787  11.549  15.116 -0.0167  0.3691  0.2185
 8752W        W25599   2.354   0.480   3.613 -0.1696  0.0316 -0.1653
 8753W        W25600   3.181   3.845   5.365  0.0696 -0.2038 -0.0566
 8754W        W25601   0.194  12.167   2.714  0.1159 -0.2669 -0.0432
 8755W        W25602   8.337   3.316  12.830 -0.1234 -0.1623  0.2866
 8756W        W25603  16.446  10.485   5.166  0.0138 -0.2298  0.2214
 8757W        W25604  16.312  12.714  12.628  0.0702  0.1867 -0.0577
 8758W        W25605  16.303  17.239   3.249  0.2941  0.2107  0.2180
 8759W        W25606   6.849  15.214   0.748  0.1057  0.0441  0.2469
 8760W        W25607   5.030   8.787   0.291 -0.2327  0.0481 -0.2082
 8761W        W25608  13.294  16.086   3.482 -0.1092 -0.0594 -0.2295
 8762W        W25609   9.323  13.707   0.799 -0.1073  0.0670  0.1336
 8763W        W25610   8.397  14.738  15.140 -0.2889  0.0479  0.0632
 8764W        W25611  17.937  17.053   3.149 -0.0946 -0.4215 -0.0920
 8765W        W25612   4.403   2.816  15.211 -0.0309  0.0583 -0.0774
 8766W        W25613   2.301   5.883   3.905  0.1757  0.1124 -0.1400
 8767W        W25614  16.957  15.756  16.623  0.0206  0.1317  0.2362
 8768W        W25615   3.487   1.472  12.625  0.0037  0.1837 -0.0860
 8769W        W25616  10.361   6.797   3.801 -0.1723  0.2817 -0.2214
 8770W        W25617   9.461  14.526  12.077  0.2894 -0.1309  0.1036
 8771W        W25618   0.775   5.153  12.603  0.1945  0.3525  0.0361
 8772W        W25619   6.134   2.981  14.188  0.1651  0.0516 -0.1665
 8773W        W25620   7.156  11.672   3.603  0.2147 -0.0858 -0.0814
 8774W        W25621   7.337   1.603   5.157 -0.0610 -0.0810  0.0621
 8775W        W25622  12.752   1.609   0.277 -0.0517 -0.0970 -0.0807
 8776W        W25623  16.659  17.839   1.444 -0.0830 -0.0565 -0.0907
 8777W        W25624  14.625  13.956  14.369  0.1719  0.1427 -0.0942
 8778W        W25625   6.773   4.715   0.624 -0.0291  0.1410 -0.2100
 8779W        W25626   1.738  16.778   3.855 -0.3277 -0.0914 -0.2938
 8780W        W25627   8.721  10.880   5.694  0.0219 -0.1457  0.1463
 8781W        W25628   1.337   8.156   3.577  0.0237  0.0493 -0.2307
 8782W        W25629   7.978   1.122   1.899  0.1393  0.2497  0.1133
 8783W        W25630  14.660   2.225   1.710  0.1429 -0.0317 -0.1074
 8784W        W25631   1.431   6.801   3.945 -0.1965  0.1052  0.0976
 8785W        W25632   0.911   6.921   1.803 -0.0878 -0.2307  0.0350
 8786W        W25633  13.349   9.279  16.169  0.0536 -0.3384  0.1444
 8787W        W25634  17.318   5.394  12.004  0.1350 -0.1090 -0.0922
 8788W        W25635   1.429  15.651  11.654  0.0257  0.0079 -0.4867
 8789W        W25636  15.687  13.384  11.811 -0.0106 -0.1278 -0.0713
 8790W        W25637   8.401   2.175   4.328 -0.1095  0.0409 -0.0392
 8791W        W25638   8.346  15.783  15.268 -0.0602  0.1655  0.0207
 8792W        W25639  17.422   4.878   2.617 -0.2873 -0.3858  0.1088
 8793W        W25640   4.314  10.615   5.564 -0.1532 -0.2530  0.0084
 8794W        W25641   7.547   1.484  13.071  0.2123 -0.0460  0.0840
 8795W        W25642  12.362  15.906   3.772 -0.2403  0.3171  0.1660
 8796W        W25643  16.595   7.455   3.802  0.2280 -0.1257  0.0474
 8797W        W25644  13.206   7.973  13.453  0.0903  0.0375 -0.0675
 8798W        W25645   7.378  12.713   2.793  0.0417  0.3908 -0.1768
 8799W        W25646   5.468   9.692   4.490 -0.1045 -0.1902 -0.0599
 8800W        W25647   4.246   3.914   0.509 -0.1492  0.1250 -0.0652
 8801W        W25648  10.752  15.247   5.816 -0.2657  0.0302 -0.2350
 8802W        W25649   6.797  15.886   1.231 -0.0305 -0.1644  0.1170
 8803W        W25650   2.143  12.020  14.359 -0.0572 -0.1976  0.0814
 8804W        W25651  14.393  10.895   0.758 -0.2931  0.0863 -0.1767
 8805W        W25652   7.224   2.881  16.251 -0.1750  0.0516 -0.1345
 8806W        W25653   5.913   3.676   0.755  0.1003 -0.1199 -0.1630
 8807W        W25654   3.267  14.499   4.522 -0.1865  0.1575  0.1327
 8808W        W25655  14.660  11.860   1.829 -0.1071  0.0015  0.1833
 8809W        W25656  10.600   6.359   1.975 -0.2068  0.1629 -0.0458
 8810W        W25657  12.628   9.642   2.114  0.4800 -0.0068  0.1501
 8811W        W25658   3.216  11.863   2.841  0.2146  0.2139  0.1186
 8812W        W25659   5.242  11.030  15.844  0.0345 -0.0853 -0.0597
 8813W        W25660  15.071   1.391  11.526  0.0706 -0.1092  0.2102
 8814W        W25661  11.286  11.449  16.151  0.0987 -0.0724  0.1419
 8815W        W25662   9.717   4.966   3.038 -0.0721 -0.0854 -0.3535
 8816W        W25663   2.664  14.901   0.131  0.0479 -0.3153 -0.0721
 8817W        W25664  10.595  11.088  15.530 -0.0599 -0.3041 -0.0625
 8818W        W25665  14.566   6.545  16.261 -0.2221 -0.0210 -0.1835
 8819W        W25666   8.429   6.208   5.118  0.0313  0.0634 -0.0321
 8820W        W25667   6.778  15.599   0.435 -0.0617 -0.0469 -0.4803
 8821W        W25668  17.534   6.464  15.056  0.1133 -0.1324 -0.0190
 8822W        W25669  14.975   8.983   4.453  0.0144 -0.0199 -0.4999
 8823W        W25670  11.076  16.716   4.045 -0.0929 -0.1212 -0.2202
 8824W        W25671   1.610   8.606   4.141 -0.3120 -0.0092  0.0423
 8825W        W25672   2.455   3.100  11.970 -0.1751 -0.0728 -0.2398
 8826W        W25673   1.535   7.710  14.357  0.0546  0.0476  0.2447
 8827W        W25674  11.333   1.537  15.011 -0.3371  0.1299  0.0090
 8828W        W25675   4.476   5.397   0.047  0.0238  0.1212  0.1787
 8829W        W25676  16.463   8.839   4.416 -0.0167  0.1668  0.0712
 8830W        W25677   5.701  11.722  12.405 -0.0209 -0.0863 -0.0816
 8831W        W25678   4.869   3.469  14.788 -0.1576 -0.2769 -0.0096
 8832W        W25679   9.599   1.186  14.574 -0.0287  0.1303  0.1717
 8833W        W25680   2.985   0.980  13.392 -0.5071 -0.1046  0.1070
 8834W        W25681   9.679  14.055   1.936 -0.2643  0.0226  0.3547
 8835W        W25682   7.154  16.325  10.637 -0.0393  0.0668 -0.2323
 8836W        W25683  13.229   0.761  16.796  0.0169  0.1671  0.0526
 8837W        W25684   3.480  15.861   3.686 -0.0360 -0.0820 -0.0573
 8838W        W25685  12.419   3.932  11.993  0.1352  0.3924  0.1019
 8839W        W25686   3.798   2.766   4.219 -0.2083  0.1314 -0.2499
 8840W        W25687   6.612   9.926   6.456  0.2066  0.1673 -0.1350
 8841W        W25688   1.310  11.909  13.725  0.2952 -0.0368  0.2215
 8842W        W25689  17.410   8.940  15.113 -0.2274  0.1506  0.4731
 8843W        W25690   9.080   8.298   5.013  0.0673 -0.0042 -0.0860
 8844W        W25691  10.694   1.827  15.812  0.1632  0.3515  0.0733
 8845W        W25692   5.975   0.913   1.295 -0.0863 -0.0547  0.2241
 8846W        W25693  10.451   3.557  13.725  0.0389 -0.0552 -0.1566
 8847W        W25694   7.670  15.678  15.979 -0.0955  0.2233  0.1152
 8848W        W25695   8.054   5.059  13.842  0.1495  0.1264  0.2512
 8849W        W25696  11.882   0.170  13.540  0.4574  0.1437  0.0745
 8850W        W25697  13.520   7.560  15.410  0.2357 -0.3128  0.2176
 8851W        W25698  14.189  14.749   0.120 -0.0385 -0.2942 -0.0137
 8852W        W25699   3.678   1.462   3.856 -0.2179 -0.0418  0.1373
 8853W        W25700   5.656   8.620  15.436 -0.1065 -0.0747  0.3208
 8854W        W25701   9.406  12.167  14.037  0.2871  0.0862 -0.0214
 8855W        W25702   3.633   0.164  10.045 -0.0942  0.0565 -0.2489
 8856W        W25703  16.471  12.866   0.903 -0.0487  0.0934 -0.0488
 8857W        W25704   3.785   4.990  13.435  0.1630 -0.0792  0.0436
 8858W        W25705   5.600   8.807   4.290  0.2873  0.0665 -0.0665
 8859W        W25706   2.263  11.561  15.258  0.2999  0.3602 -0.0608
 8860W        W25707  15.344  11.155  12.207 -0.0759 -0.0936  0.1049
 8861W        W25708  16.567  16.132  13.605  0.1521  0.1586 -0.1127
 8862W        W25709  11.326   8.322  12.211  0.1016 -0.1943 -0.2392
 8863W        W25710  14.351   4.768   0.360 -0.1749  0.1431 -0.0716
 8864W        W25711  15.579   5.923   2.652 -0.1351 -0.2482 -0.2513
 8865W        W25712   9.010  11.600   4.881  0.4444  0.0113 -0.1935
 8866W        W25713   4.988   9.012   0.769 -0.0285  0.0733 -0.2187
 8867W        W25714   6.938  10.609  14.856  0.0641 -0.2371 -0.0645
 8868W        W25715  16.960   7.343  12.323  0.1463 -0.1265 -0.1594
 8869W        W25716   5.027   6.984  11.784  0.3148  0.2898 -0.1586
 8870W        W25717   8.338   2.695   4.299 -0.1547  0.2082 -0.0213
 8871W        W25718  15.469   1.755   4.036  0.0162 -0.0672 -0.0067
 8872W        W25719   0.987   7.628   4.881 -0.3278 -0.2505 -0.0780
 8873W        W25720   7.422   9.911  11.479  0.1991  0.1055 -0.0105
 8874W        W25721   5.442   2.914   0.758  0.0618  0.0643  0.0538
 8875W        W25722  12.296   3.651   4.224  0.1459 -0.3126 -0.0225
 8876W        W25723   9.085   7.297   5.058  0.1140  0.2467  0.0979
 8877W        W25724  11.409   5.715   2.066  0.2124  0.0294 -0.2222
 8878W        W25725   9.914   7.710   3.670 -0.0201  0.0434  0.0106
 8879W        W25726  11.125  14.865   0.599  0.2538  0.1001 -0.1135
 8880W        W25727   3.797  13.000  16.392  0.0516 -0.4511 -0.2485
 8881W        W25728  17.395   2.503  11.850  0.1616 -0.1888 -0.0478
 8882W        W25729   6.399  15.421  15.904 -0.1740  0.0537 -0.3764
 8883W        W25730   9.487   3.918  15.469 -0.1104  0.0375  0.0543
 8884W        W25731  10.411   8.794   1.676  0.2386 -0.2070 -0.1176
 8885W        W25732  16.274  12.113  11.952  0.2385 -0.0507  0.0303
 8886W        W25733  16.620   0.673  13.397  0.1871 -0.2058  0.0634
 8887W        W25734  15.417  13.232  16.537 -0.3410  0.1464  0.0986
 8888W        W25735   7.089   6.981  15.288  0.0278 -0.0120  0.0042
 8889W        W25736   8.372  12.254   3.762  0.1457 -0.1330 -0.3840
 8890W        W25737  10.848   1.319   5.843 -0.0253  0.0833  0.1307
 8891W        W25738   2.170  10.197   1.600 -0.0921  0.0724 -0.1353
 8892W        W25739   0.127   5.294   4.977 -0.2465 -0.0694 -0.3145
 8893W        W25740  13.918  10.639   1.553 -0.0817 -0.0211  0.2526
 8894W        W25741   3.125   2.417  14.528 -0.1599  0.0340 -0.0965
 8895W        W25742   9.921  10.405   1.621 -0.0141 -0.0110  0.0541
 8896W        W25743  12.460  16.448  12.164  0.1300  0.1302  0.1544
 8897W        W25744   7.620  12.715  11.941  0.2552  0.2785 -0.1355
 8898W        W25745  15.995  13.681  12.680  0.0006  0.0070  0.1495
 8899W        W25746   0.949   6.862  13.017  0.2222  0.2782  0.1309
 8900W        W25747   9.560   9.153  15.336 -0.3532 -0.0042 -0.1512
 8901W        W25748   4.479  12.673   0.409 -0.1313  0.1173  0.2076
 8902W        W25749   7.249  17.036   5.455 -0.0882 -0.1020  0.0273
 8903W        W25750  16.017   5.693  12.265  0.0190 -0.2128  0.2363
 8904W        W25751   0.163  10.039  15.507  0.0392  0.1347  0.0233
 8905W        W25752   7.113   6.763  13.949  0.0212  0.1083  0.0783
 8906W        W25753  14.920   8.181   1.629 -0.2785 -0.1070 -0.2386
 8907W        W25754   8.632   0.182   4.553 -0.0430  0.0424 -0.1297
 8908W        W25755   2.857   0.536  13.235  0.0344 -0.3391 -0.1857
 8909W        W25756   9.884  17.611   4.483 -0.1125  0.0994 -0.1382
 8910W        W25757  13.368  10.792  16.537 -0.2537  0.0691  0.2867
 8911W        W25758   7.918  16.608   3.600 -0.2797  0.2078 -0.1037
 8912W        W25759   0.274  10.711   0.153 -0.0603 -0.3226  0.1544
 8913W        W25760   2.569   4.569  15.344 -0.1239  0.0410  0.3234
 8914W        W25761   3.221   8.911  15.321 -0.1848 -0.0795 -0.0249
 8915W        W25762  12.389  16.477  14.379 -0.0140  0.3371  0.3924
 8916W        W25763   0.795  16.083  15.922 -0.2830  0.0289  0.2540
 8917W        W25764  15.478   6.526   1.768  0.0454  0.1526  0.1838
 8918W        W25765  11.093  13.688   2.282  0.0131 -0.0420 -0.0363
 8919W        W25766   4.153  11.369   5.185  0.2428  0.0020  0.1781
 8920W        W25767   8.911   5.053   4.814  0.2512 -0.1136 -0.0857
 8921W        W25768   1.823  16.352   3.102  0.0310  0.1084  0.2541
 8922W        W25769  16.769  11.661   5.434  0.0239 -0.3655 -0.1478
 8923W        W25770   8.629  10.044  15.368  0.2617 -0.2475  0.1539
 8924W        W25771  12.711  14.964  15.884  0.0068  0.2523  0.0281
 8925W        W25772   9.332  15.441   0.434  0.2724 -0.2870  0.1032
 8926W        W25773  15.742  11.818   4.893  0.3296 -0.0548 -0.0878
 8927W        W25774  15.972  13.103  14.699 -0.0519 -0.0180  0.1244
 8928W        W25775   6.331  17.608   2.418 -0.1012  0.0807  0.0339
 8929W        W25776   5.102  14.700  12.109 -0.1654 -0.0791  0.0455
 8930W        W25777   6.770   6.518  14.965  0.1697  0.1424  0.2431
 8931W        W25778   6.886   5.209  11.824 -0.1515 -0.1776  0.1788
 8932W        W25779   8.307  14.020  13.257  0.1106 -0.1855 -0.0795
 8933W        W25780   7.085  11.095   2.073  0.0861 -0.1695  0.1265
 8934W        W25781  14.278   9.797  14.625  0.1794 -0.0267 -0.1747
 8935W        W25782   2.427   0.727  15.952  0.1950 -0.0057  0.4495
 8936W        W25783  12.378  12.998   1.208  0.0551  0.1553  0.2048
 8937W        W25784  15.868   2.071  13.139  0.1948 -0.0915  0.0520
 8938W        W25785   1.989   1.302  12.492 -0.1255  0.2119 -0.2783
 8939W        W25786  16.896  10.412  12.444  0.0268 -0.1861 -0.1120
 8940W        W25787  12.982   4.328   5.205 -0.2319 -0.3084  0.1142
 8941W        W25788  14.742   1.099   5.001  0.0746  0.3310 -0.0548
 8942W        W25789  12.956  14.295  16.416 -0.2285  0.2608 -0.0923
 8943W        W25790   5.092   1.490   1.119 -0.1898  0.2874  0.3312
 8944W        W25791  17.199   6.573   3.645 -0.0229 -0.1556 -0.0720
 8945W        W25792  15.899   7.410   4.645 -0.0412  0.1109 -0.0019
 8946W        W25793  10.744   5.240   4.690  0.1318  0.0922 -0.1870
 8947W        W25794  11.418  16.449   3.714 -0.1874  0.0255  0.1084
 8948W        W25795  12.637   0.325   5.512  0.1107 -0.2245  0.1118
 8949W        W25796  16.867   4.035   1.650  0.1830 -0.4175  0.0975
 8950W        W25797   3.526   3.752   4.502  0.1849 -0.3125 -0.1912
 8951W        W25798  10.844  15.905  14.535 -0.0872 -0.1093  0.1807
 8952W        W25799   3.244   9.738  14.244  0.2703 -0.0597 -0.0349
 8953W        W25800   4.426   4.840   3.761 -0.0263  0.0504  0.1778
 8954W        W25801   0.890   3.110  16.689  0.3107  0.1222 -0.2292
 8955W        W25802   0.557  10.154  13.269 -0.1129 -0.3957 -0.2156
 8956W        W25803   5.863   6.074   1.462 -0.0258 -0.1011 -0.0196
 8957W        W25804   6.901  15.569  13.546 -0.0124  0.1033  0.3714
 8958W        W25805  12.780  13.750  10.947 -0.1835 -0.1878  0.0941
 8959W        W25806   4.394  16.192   3.056 -0.1010  0.0413 -0.1202
 8960W        W25807  10.334   7.853   3.490 -0.0903  0.0026  0.0470
 8961W        W25808   3.951   5.250   1.999  0.1299  0.1707 -0.1700
 8962W        W25809  10.520  11.307   3.628 -0.0269  0.2339 -0.2782
 8963W        W25810   0.233   5.632   3.979 -0.0210 -0.0574  0.1560
 8964W        W25811   0.046   6.563   2.334 -0.1561  0.1663  0.1639
 8965W        W25812  17.048  12.956   5.317  0.0938 -0.3188  0.0449
 8966W        W25813  16.182   4.094   4.749 -0.0808 -0.3205 -0.1871
 8967W        W25814   9.639   4.832  15.502  0.1145  0.0680  0.1867
 8968W        W25815  15.687   0.698  16.018 -0.0807  0.0442  0.1220
 8969W        W25816  16.396   0.353   1.396  0.2515  0.0951  0.1915
 8970W        W25817   6.166  17.094  15.076 -0.0285 -0.1009 -0.0138
 8971W        W25818  15.240  17.081   5.474 -0.3322 -0.3969  0.0399
 8972W        W25819   8.015   4.162  11.479  0.1279 -0.1330 -0.0421
 8973W        W25820  12.860  17.721  14.842  0.0144 -0.0374  0.1658
 8974W        W25821   9.304  15.024  12.000  0.0856 -0.1127 -0.1625
 8975W        W25822   2.942  10.289   4.786  0.1415  0.2430 -0.2103
 8976W        W25823   3.026   8.302  15.495 -0.1308  0.0732  0.0776
 8977W        W25824  13.214   5.145   2.928 -0.2623 -0.1673 -0.1932
 8978W        W25825   0.886   3.228  15.545 -0.0577  0.4375  0.1642
 8979W        W25826  14.304  10.807   1.247 -0.1169  0.1768  0.2082
 8980W        W25827  15.538   9.814  16.007  0.1042  0.0681  0.3075
 8981W        W25828  11.946  15.199   2.016  0.0269  0.0535 -0.3229
 8982W        W25829  15.942   1.960   2.768  0.0286  0.1360 -0.2091
 8983W        W25830   5.954  16.295  14.279 -0.0459  0.1480  0.2623
 8984W        W25831  16.682   1.023   3.555  0.1286 -0.4824 -0.1914
 8985W        W25832  13.549  17.508  15.721 -0.0652  0.1702 -0.0034
 8986W        W25833   9.759  11.029  16.522 -0.0535 -0.0841 -0.2916
 8987W        W25834   5.192  12.544  12.906  0.3384  0.0014 -0.1167
 8988W        W25835   3.141   2.521   0.087 -0.2371  0.1756 -0.0913
 8989W        W25836   8.962   2.456   5.091 -0.3228  0.0592 -0.0951
 8990W        W25837  10.297   2.894  12.380  0.0481  0.0957  0.0087
 8991W        W25838   6.309  14.856  16.608 -0.2408 -0.0298  0.3198
 8992W        W25839  17.359   1.533   4.867  0.0642 -0.0034 -0.3721
 8993W        W25840   1.080   9.207   1.708  0.0568  0.1362 -0.3457
 8994W        W25841  17.838  13.519  13.627  0.0079  0.0796  0.3372
 8995W        W25842   7.210  14.008  15.400  0.4775  0.1352  0.0750
 8996W        W25843   8.349  15.793  16.102  0.2853  0.2030 -0.0594
 8997W        W25844   9.723  14.968   2.289 -0.2995 -0.1803  0.0839
 8998W        W25845  15.416  14.493   0.104 -0.1088  0.0419  0.1348
 8999W        W25846   3.725   1.750  11.678  0.1868 -0.2083 -0.0204
 9000W        W25847  17.731  15.157   4.428  0.2075  0.2670 -0.1473
 9001W        W25848   6.509  16.724  14.995 -0.0711 -0.1361  0.0316
 9002W        W25849   6.912  16.458  11.949  0.3998 -0.0976 -0.0306
 9003W        W25850   9.067   1.822   3.799 -0.0843 -0.2092  0.2337
 9004W        W25851  13.032  15.700  16.062 -0.0796  0.1331 -0.0332
 9005W        W25852   9.376  12.765  14.722 -0.3644  0.0536 -0.1375
 9006W        W25853  12.755  13.200  12.197  0.0743  0.1017  0.3264
 9007W        W25854  14.343   0.524  15.677 -0.1219  0.0103  0.1980
 9008W        W25855   8.648   3.426  14.504  0.1379 -0.4351  0.0044
 9009W        W25856   9.067  15.451   1.780  0.0078 -0.0007 -0.2514
 9010W        W25857  14.718  15.692   3.885 -0.1895 -0.1033  0.1277
 9011W        W25858   0.079   7.159  16.050 -0.2250  0.0289 -0.1912
 9012W        W25859  11.130  16.396   5.031  0.1154  0.1272 -0.0082
 9013W        W25860   7.811  11.749  16.528 -0.0414  0.2177  0.2805
 9014W        W25861  10.223  12.119   1.651  0.0206 -0.4145  0.0180
 9015W        W25862  14.742   8.655   0.130  0.0037  0.0916  0.3979
 9016W        W25863   2.387  11.317   0.020  0.0561 -0.1078  0.0172
 9017W        W25864   6.734   9.402   1.619 -0.0409 -0.2712  0.0334
 9018W        W25865   1.183  14.050   3.358 -0.0506 -0.1064  0.1931
 9019W        W25866  13.925  12.553   3.271  0.0243  0.0187  0.1785
 9020W        W25867   1.577   2.721  16.111  0.1944  0.0499 -0.1426
 9021W        W25868   0.068   1.065   1.639  0.0625 -0.1201 -0.1928
 9022W        W25869  17.132   9.296   3.434 -0.0433  0.0079 -0.2423
 9023W        W25870   2.593   8.281   5.416  0.0149  0.0317 -0.0098
 9024W        W25871  13.847  11.830   1.542 -0.2351 -0.2536 -0.2142
 9025W        W25872   2.606   4.967  16.175 -0.1344  0.0334  0.1914
 9026W        W25873   4.086  14.113   1.177 -0.0067  0.2313 -0.2534
 9027W        W25874   2.619   5.797  16.187  0.1834  0.2295 -0.0093
 9028W        W25875  14.350   2.450   3.717  0.0966 -0.1042 -0.0013
 9029W        W25876   2.537  12.767  14.142  0.1090 -0.0051 -0.2631
 9030W        W25877   3.867   7.024   1.371  0.0943 -0.0762  0.0433
 9031W        W25878   3.449   5.559  15.559  0.2400  0.1466  0.1868
 9032W        W25879  14.667  12.144  16.473  0.1117  0.1967  0.0831
 9033W        W25880   5.935  17.316  11.975 -0.1340  0.1660 -0.1198
 9034W        W25881  11.311   6.634   2.756  0.0059 -0.2739 -0.1155
 9035W        W25882   4.915  17.885   4.601  0.0309 -0.1078  0.3012
 9036W        W25883   4.560   6.483  16.010 -0.4382 -0.3541  0.0852
 9037W        W25884   3.388   8.548  12.255  0.2198  0.0047 -0.0605
 9038W        W25885   5.941   8.696   1.638 -0.0641  0.0692 -0.2621
 9039W        W25886  16.355   0.656   3.568  0.0557  0.1246  0.1008
 9040W        W25887   2.899  11.049   1.625  0.0000  0.5293  0.0107
 9041W        W25888  10.035  13.194  14.364  0.1425 -0.0294 -0.1748
 9042W        W25889  16.086  14.499   3.641 -0.1477  0.3792 -0.2200
 9043W        W25890  12.649   3.243   5.198 -0.1317 -0.0726  0.1724
 9044W        W25891   2.769   9.040   1.384  0.2750  0.0975 -0.1261
 9045W        W25892   4.932  14.782  12.594 -0.1028  0.0636 -0.1457
 9046W        W25893  15.656  14.144   2.438  0.2260 -0.1180 -0.2804
 9047W        W25894  10.783  15.642   2.543 -0.0026  0.1006 -0.0440
 9048W        W25895   1.716  15.238  11.926  0.3627 -0.1930  0.0305
 9049W        W25896  17.091   3.943  15.144 -0.1606 -0.4644  0.5907
 9050W        W25897   7.990   6.269  13.649 -0.1818  0.3092 -0.1694
 9051W        W25898   9.039   4.642  16.532 -0.0366  0.0433  0.0069
 9052W        W25899   3.336   0.632  13.188 -0.1916  0.1070  0.0345
 9053W        W25900  17.077   3.057   2.431  0.1401 -0.0962 -0.1074
 9054W        W25901   1.550  12.681   0.114  0.1698  0.1743 -0.0822
 9055W        W25902   4.990   0.655  12.805 -0.0908 -0.0117 -0.2299
 9056W        W25903  17.456   5.493  15.027 -0.0241 -0.0481  0.1256
 9057W        W25904   3.655   3.688  13.234 -0.1174  0.1689  0.1172
 9058W        W25905  13.777  12.468   0.566  0.1864 -0.1435 -0.0846
 9059W        W25906   7.514   2.226  16.491 -0.2122  0.0030  0.1750
 9060W        W25907  15.328   3.337   0.582 -0.1911  0.3622  0.0285
 9061W        W25908   9.295  10.309   4.818  0.0527  0.0024  0.0234
 9062W        W25909  12.295  10.559  13.651 -0.0421  0.1152  0.1023
 9063W        W25910  10.251   8.943  15.266  0.2723 -0.0886  0.4037
 9064W        W25911  17.487  17.059   5.044 -0.0655  0.2882  0.0119
 9065W        W25912  16.168   9.379  15.250 -0.3660  0.1211 -0.0169
 9066W        W25913  17.604   5.323  15.435  0.0657  0.0705  0.0729
 9067W        W25914   9.292   7.819   0.217 -0.0345  0.1769  0.0681
 9068W        W25915  16.345   7.682   2.190 -0.1316 -0.1469 -0.0766
 9069W        W25916  11.884  17.090  16.089  0.1642  0.0339  0.2299
 9070W        W25917  15.962   1.617   3.885 -0.2897 -0.2873  0.0091
 9071W        W25918   1.382   7.846   1.333 -0.2084 -0.1619 -0.0912
 9072W        W25919  12.468  10.887  12.681  0.3586  0.0768 -0.4416
 9073W        W25920  12.447   8.389   3.630  0.0516 -0.0568 -0.4573
 9074W        W25921  13.351  10.808  16.064 -0.0908  0.0593 -0.0042
 9075W        W25922  11.778   3.908  16.138 -0.3825 -0.0529 -0.0022
 9076W        W25923  15.129  10.833   4.383 -0.1704  0.0710 -0.0006
 9077W        W25924   6.470  10.427   3.662 -0.0937  0.0261 -0.0748
 9078W        W25925   2.693  16.277  13.611 -0.0348 -0.2842 -0.0368
 9079W        W25926  16.880   7.470  11.848 -0.2015 -0.2517  0.3343
 9080W        W25927  14.154  16.252   3.126 -0.0349 -0.2768 -0.2611
 9081W        W25928  10.332   6.307  13.427  0.3616  0.1570 -0.3039
 9082W        W25929  17.126  14.155   2.062  0.0385 -0.1969  0.1084
 9083W        W25930   8.728   1.221  13.171  0.1347  0.2374 -0.3133
 9084W        W25931   1.993  14.148   2.197  0.1347  0.0423  0.0592
 9085W        W25932  13.972  15.545   5.183 -0.1626 -0.2458 -0.0056
 9086W        W25933   8.882  12.217  15.251  0.1666 -0.0578 -0.0513
 9087W        W25934   9.976   5.146  15.663 -0.2484 -0.1152 -0.1914
 9088W        W25935  13.508   2.992   3.573 -0.0999 -0.0659 -0.4015
 9089W        W25936  10.412   1.811  13.205 -0.2134 -0.2158  0.1045
 9090W        W25937   3.235  11.166  15.238  0.0209 -0.1294 -0.0277
 9091W        W25938   1.979   4.419  11.881 -0.0714 -0.0895 -0.0278
 9092W        W25939  15.766   9.393  12.984 -0.2730  0.0159  0.0069
 9093W        W25940   3.250  13.807   3.825 -0.2174 -0.0911 -0.1231
 9094W        W25941   6.287  15.933   2.258  0.0941  0.0013  0.1031
 9095W        W25942   1.986  12.573  15.208 -0.2297 -0.2334  0.2365
 9096W        W25943   1.132   6.548   4.280 -0.1375 -0.0836 -0.0869
 9097W        W25944  12.738   8.635   3.216  0.1998  0.0567  0.1183
 9098W        W25945  14.839  16.149   1.764  0.1185 -0.0386 -0.0190
 9099W        W25946   4.781  16.781  16.023 -0.1728 -0.0425 -0.2531
 9100W        W25947  11.371   0.671   4.051 -0.0719  0.0883 -0.0658
 9101W        W25948   6.424   2.991   0.907  0.1288  0.1409 -0.0332
 9102W        W25949   7.212  13.320  16.605  0.0196 -0.2809 -0.0131
 9103W        W25950   0.312   6.976   1.936 -0.1601 -0.1806  0.2008
 9104W        W25951   8.543  16.509  16.549  0.4203 -0.0247  0.0130
 9105W        W25952   3.968  15.365   2.024 -0.1108 -0.0626 -0.2382
 9106W        W25953  15.866   7.901  15.865  0.1149 -0.2128 -0.1694
 9107W        W25954  16.699  11.508  16.153 -0.0628 -0.2993  0.2311
 9108W        W25955  12.892   7.106   0.737 -0.0491  0.1262  0.0370
 9109W        W25956   3.295  13.150  11.852 -0.1149  0.0261 -0.3557
 9110W        W25957  12.867  10.487   1.548  0.0665 -0.2119  0.2009
 9111W        W25958  15.802  16.725  15.206  0.0258 -0.0617  0.2655
 9112W        W25959  13.941   1.149  15.577 -0.0562 -0.0064  0.2233
 9113W        W25960   4.452  10.915  14.709  0.1974 -0.2422 -0.0920
 9114W        W25961   2.021   7.090  15.943  0.1116  0.1768 -0.1748
 9115W        W25962   9.701   2.594   0.573  0.0406  0.1077  0.0535
 9116W        W25963  13.142   2.425  15.662 -0.0951  0.0936 -0.0404
 9117W        W25964   7.118   6.556  12.176  0.1009  0.1078  0.1313
 9118W        W25965  11.240   0.176  15.356  0.2982 -0.2894  0.1798
 9119W        W25966   8.391   7.707   1.883 -0.1133  0.2684  0.5461
 9120W        W25967   9.140   2.060  11.025  0.1277  0.1223 -0.2786
 9121W        W25968  10.387  10.046   0.986 -0.1321 -0.2272  0.2235
 9122W        W25969  11.816  16.817   4.972 -0.1384  0.3012  0.2048
 9123W        W25970  17.406  14.041   3.783  0.1333  0.0254 -0.2339
 9124W        W25971  13.224  10.543   5.085 -0.0280  0.0411  0.1750
 9125W        W25972   4.685   1.442  11.580  0.1714  0.0210 -0.3626
 9126W        W25973  15.235   0.796   3.865  0.0203 -0.5258  0.2085
 9127W        W25974   3.953   4.975  16.517 -0.3318  0.0088  0.2015
 9128W        W25975  15.974   6.776   4.834  0.4474  0.2547 -0.4598
 9129W        W25976   8.745  11.186   1.277 -0.1284 -0.1005  0.1575
 9130W        W25977  10.907   6.871   2.557 -0.1210 -0.2914  0.0530
 9131W        W25978   9.246   6.289  12.822 -0.1077  0.0298 -0.0512
 9132W        W25979  15.409   1.922  15.372  0.0905 -0.0233  0.2325
 9133W        W25980  10.798   1.614  14.180  0.1080 -0.1431 -0.1689
 9134W        W25981  13.335   3.460   4.860  0.2926  0.2304  0.1362
 9135W        W25982  17.510   3.646  16.708 -0.0654  0.0644 -0.1144
 9136W        W25983  17.113   7.269   6.010 -0.0544 -0.1415  0.0187
 9137W        W25984  13.351  13.434   5.130 -0.1461  0.2401  0.0347
 9138W        W25985  11.551   4.087   2.395 -0.1080  0.0261 -0.0291
 9139W        W25986  13.887  16.106  16.488  0.1059 -0.0457  0.0825
 9140W        W25987  15.963  11.751  16.544  0.2520 -0.1718  0.3410
 9141W        W25988   3.082   9.655   0.159  0.0481  0.2239 -0.1344
 9142W        W25989  10.166   2.296  11.665  0.3394 -0.1995 -0.3291
 9143W        W25990   7.056   2.025  16.745  0.0528  0.2466  0.1385
 9144W        W25991  12.268  17.200   2.643  0.1273 -0.2533 -0.1006
 9145W        W25992  14.663  16.979  12.369  0.0923 -0.0346 -0.0046
 9146W        W25993   2.910   4.022   0.295 -0.1314  0.0963 -0.1815
 9147W        W25994   9.934   3.776   1.189  0.1316 -0.0439  0.1668
 9148W        W25995   7.354   6.983  14.879 -0.0031  0.0854  0.0181
 9149W        W25996   2.291   1.878   5.515 -0.0493 -0.2653 -0.2218
 9150W        W25997   9.042   0.004   5.733  0.3523  0.2681 -0.3414
 9151W        W25998   9.730   8.051   0.652  0.1561  0.2584 -0.4030
 9152W        W25999   1.510  11.137  13.684  0.4872  0.0922 -0.3044
 9153W        W26000   8.760   5.928  11.993  0.3538  0.0467  0.1062
 9154W        W26001   0.940   6.829   1.249 -0.0209  0.1902 -0.2236
 9155W        W26002  10.712  14.289   2.763  0.1783 -0.3065 -0.2140
 9156W        W26003  17.592  13.391   1.637  0.3332  0.0054 -0.0003
 9157W        W26004   4.628  16.201   4.000  0.2866  0.2396 -0.2874
 9158W        W26005   8.882   9.714  13.856  0.2525 -0.1339 -0.0692
 9159W        W26006  16.705   8.573   1.907 -0.1133 -0.1862 -0.2934
 9160W        W26007   3.596   4.134  14.463 -0.0483 -0.0722 -0.3063
 9161W        W26008  16.859   8.539   2.972  0.2250  0.2118 -0.1158
 9162W        W26009   1.763  13.334  12.743  0.0043 -0.3976 -0.2919
 9163W        W26010   7.501   0.786   2.737 -0.0053 -0.0634  0.0112
 9164W        W26011   6.480  12.012   3.019 -0.1950  0.0314  0.1473
 9165W        W26012   4.990  11.405   2.203  0.1235  0.3547 -0.2966
 9166W        W26013  16.979   0.728   1.913 -0.1478 -0.0175 -0.0231
 9167W        W26014  12.376   9.767  14.014  0.1326 -0.0255 -0.3407
 9168W        W26015   8.967   7.142   0.519  0.1792 -0.0226  0.0924
 9169W        W26016  11.386  11.294   0.097  0.1642  0.4823  0.1010
 9170W        W26017  10.460   5.295  11.860  0.1561  0.0631 -0.1905
 9171W        W26018   4.907   9.470  16.232  0.0653  0.0728 -0.1299
 9172W        W26019   7.931   9.461  12.182  0.1985  0.0909  0.1829
 9173W        W26020  10.253  12.859   6.229 -0.0187  0.2878 -0.1656
 9174W        W26021   3.138   0.613  12.719 -0.1253  0.2378  0.1205
 9175W        W26022   5.084  12.433   1.269  0.0541 -0.2738 -0.0991
 9176W        W26023  12.447  12.175   5.491  0.2082  0.1013  0.4519
 9177W        W26024  13.708   6.463   4.057 -0.2268 -0.1829  0.0780
 9178W        W26025   1.711   1.974   3.239  0.0089  0.0511  0.4307
 9179W        W26026   7.464  10.670  13.040  0.2702 -0.0941  0.1177
 9180W        W26027   4.242   8.849   5.295 -0.1125 -0.1180  0.2086
 9181W        W26028  11.418  15.106   1.302 -0.1041 -0.0129 -0.0546
 9182W        W26029   2.965   0.418   4.451 -0.0015  0.0107 -0.1139
 9183W        W26030   5.007   1.263   3.698  0.1967 -0.1032 -0.1228
 9184W        W26031   2.115  17.756   4.296  0.1456  0.1794 -0.2829
 9185W        W26032  12.279   2.451  16.691  0.3349  0.3145  0.1936
 9186W        W26033  15.043  11.214   4.697  0.0668  0.1265 -0.0229
 9187W        W26034  13.972   4.134  15.729 -0.1221 -0.2875 -0.1083
 9188W        W26035  11.699  17.031  15.156 -0.5307 -0.2756  0.0976
 9189W        W26036  11.508   0.377  12.288  0.0545 -0.1620  0.0071
 9190W        W26037   4.041   9.346   5.187 -0.3315  0.0796  0.1792
 9191W        W26038   7.135  11.614   3.039  0.2915 -0.3381 -0.3506
 9192W        W26039   0.140  17.166  15.763 -0.0827  0.1671  0.0559
 9193W        W26040  11.377   8.854   5.049 -0.1959  0.0754  0.2665
 9194W        W26041   5.053  15.247  16.286 -0.3369  0.0696 -0.1442
 9195W        W26042   0.312  16.222  14.399  0.0232  0.1828 -0.2996
 9196W        W26043   0.359  11.987   3.676  0.2819 -0.0702 -0.1344
 9197W        W26044   9.996   1.793   3.321  0.1297 -0.1395 -0.1285
 9198W        W26045  11.692  11.786  16.135 -0.0262 -0.3734  0.0113
 9199W        W26046  15.747  12.421  11.740 -0.1101  0.0254  0.4081
 9200W        W26047  14.843   4.142   3.016  0.1738 -0.0348  0.0425
 9201W        W26048  13.080  14.719  14.899 -0.2656  0.1427  0.1063
 9202W        W26049   8.798  14.963  11.763  0.1923  0.1238 -0.1079
 9203W        W26050  15.688   3.359   2.875 -0.0133 -0.1051  0.2670
 9204W        W26051  14.367   4.490  11.873  0.2083 -0.0273  0.2913
 9205W        W26052   6.078  11.513   0.371 -0.2254  0.0646 -0.0772
 9206W        W26053   5.127  16.524  12.163 -0.1217 -0.2641 -0.1107
 9207W        W26054   0.208  11.818   4.102  0.0134  0.2660 -0.3134
 9208W        W26055  10.131  13.194  12.716 -0.2141  0.2137 -0.0992
 9209W        W26056  13.774  11.798  12.836  0.4037 -0.1743  0.1410
 9210W        W26057  13.886  11.238   1.842 -0.2529 -0.1551  0.1658
 9211W        W26058   0.064   4.808   1.291 -0.1712 -0.0696 -0.4242
 9212W        W26059  10.077  15.590   3.190  0.1330  0.2884 -0.2518
 9213W        W26060  17.455  16.964   2.555 -0.0005 -0.0335 -0.0988
 9214W        W26061  13.104   7.025   4.764  0.2679  0.1091  0.2856
 9215W        W26062   6.519  12.937  13.345 -0.0035  0.1816  0.0792
 9216W        W26063   2.153   7.144   0.603  0.0072 -0.3079  0.1157
 9217W        W26064   4.256   8.281  16.685  0.2602 -0.1966 -0.0640
 9218W        W26065  10.537  16.095  13.447  0.2932  0.1350 -0.2627
 9219W        W26066   1.373   4.681   4.701  0.0557  0.0045  0.1766
 9220W        W26067   8.103  11.332   6.222  0.0833  0.1562  0.1128
 9221W        W26068   4.091  14.780   4.115  0.0128 -0.1840  0.1159
 9222W        W26069  10.491   9.030  16.592  0.2122 -0.0921 -0.1560
 9223W        W26070   4.367   4.557  14.010  0.1210 -0.1537  0.0668
 9224W        W26071   6.905   5.300   5.529  0.0243 -0.2382 -0.0717
 9225W        W26072   2.938   2.276  11.524  0.2081  0.1754  0.2285
 9226W        W26073   0.721  14.783   4.070  0.2912  0.1746  0.1473
 9227W        W26074   3.031   9.757  15.327 -0.0922  0.1275 -0.2662
 9228W        W26075   1.521  16.515   4.322 -0.0785  0.1640 -0.1015
 9229W        W26076   7.754   1.003   3.445  0.1236 -0.4006 -0.1670
 9230W        W26077   6.728  14.584   4.382  0.4156 -0.1723 -0.0137
 9231W        W26078   9.387   2.857   5.259 -0.1428 -0.2600 -0.2087
 9232W        W26079  11.755   4.992  12.540  0.0850 -0.3010  0.3137
 9233W        W26080  17.784   1.803   0.359 -0.0711 -0.2437 -0.1545
 9234W        W26081  16.110   8.740  14.283  0.1375  0.3780  0.0815
 9235W        W26082   5.270   6.940   0.389  0.0495 -0.0791 -0.2005
 9236W        W26083   2.694   9.529   1.536  0.3629  0.1528 -0.0869
 9237W        W26084   1.680  17.431   4.314  0.1629  0.2762  0.0403
 9238W        W26085   9.580   9.370  12.057  0.3198 -0.0331  0.2402
 9239W        W26086  15.594   5.123   2.196 -0.4271  0.1019 -0.1825
 9240W        W26087   1.623   4.811  11.762  0.0188 -0.0002  0.0285
 9241W        W26088  17.417   3.630  14.380 -0.1043 -0.1683  0.0015
 9242W        W26089   7.816  12.872  14.941 -0.4140  0.4674  0.0187
 9243W        W26090  12.749  13.797   4.315  0.4268  0.2099  0.2381
 9244W        W26091  16.613  10.765  15.103  0.1694  0.0693 -0.0663
 9245W        W26092  12.671   0.599   4.570 -0.0386 -0.0479  0.0278
 9246W        W26093   5.456  10.697   0.458 -0.1408  0.2149 -0.1443
 9247W        W26094   0.033  10.832  14.861  0.0065  0.1128 -0.0604
 9248W        W26095   1.407   1.871  13.545  0.0154 -0.2639  0.0026
 9249W        W26096  16.693   1.111   6.287 -0.2056  0.0229 -0.2189
 9250W        W26097  15.721   2.326  15.324 -0.0337  0.2036 -0.0808
 9251W        W26098   4.484  14.560   3.836  0.1312 -0.0141 -0.0353
 9252W        W26099   1.006  10.689  15.699 -0.1388  0.3179  0.1696
 9253W        W26100   1.692  16.601   5.710 -0.1810 -0.2308  0.1579
 9254W        W26101   8.589  12.241  14.055  0.1548 -0.0842  0.3831
 9255W        W26102   4.381   5.096  15.689  0.0847  0.0225 -0.2858
 9256W        W26103   7.334  14.653   1.673 -0.1424  0.0490 -0.1798
 9257W        W26104  12.517   2.717   2.935 -0.2959 -0.0273 -0.0016
 9258W        W26105   2.720   3.247   0.441 -0.1690 -0.0823  0.0693
 9259W        W26106  10.618  13.993   5.265 -0.4093  0.1339 -0.0988
 9260W        W26107  16.199   8.381   4.238 -0.0533 -0.0663  0.3683
 9261W        W26108   4.202  16.302   1.651  0.1516 -0.2210  0.2157
 9262W        W26109   5.669   7.814  14.940 -0.1288 -0.0639  0.2581
 9263W        W26110   5.348   1.735   0.034 -0.1053  0.1697 -0.0324
 9264W        W26111   8.339  13.916  12.401  0.0632 -0.0424 -0.0129
 9265W        W26112  16.366   9.383   4.246  0.0441  0.2347 -0.2466
 9266W        W26113  15.550  15.902  12.671  0.0315 -0.0366  0.2307
 9267W        W26114  13.704   1.186  14.556 -0.3670  0.1022 -0.1473
 9268W        W26115   3.700  11.122   4.968 -0.0390  0.3873 -0.1225
 9269W        W26116   2.637   7.612   1.283 -0.2705 -0.0533  0.0121
 9270W        W26117  13.070   5.376  11.804  0.0968  0.2034  0.0286
 9271W        W26118   8.543  14.767   0.235  0.0805  0.0305  0.1571
 9272W        W26119  15.406   7.441   1.961  0.2218 -0.1313 -0.1449
 9273W        W26120  11.315   3.238   1.178  0.1833  0.3520  0.1332
 9274W        W26121   5.246   3.061  14.903 -0.2606  0.0469  0.0680
 9275W        W26122  16.295  12.556  14.477 -0.2244  0.2389 -0.4300
 9276W        W26123  10.979  12.662  12.354 -0.0790 -0.1812 -0.0834
 9277W        W26124  13.410  12.976   5.431  0.1182  0.0190 -0.2635
 9278W        W26125  15.050   8.938   1.708 -0.1182 -0.2349  0.0335
 9279W        W26126   7.034   3.105   4.169  0.0313 -0.0257  0.1874
 9280W        W26127   5.914   3.233  15.071  0.0597 -0.2046 -0.3730
 9281W        W26128   1.525  10.100  11.315 -0.1019  0.0009  0.1030
 9282W        W26129  10.638   7.794  12.751  0.1103 -0.0797 -0.2524
 9283W        W26130  10.445   8.823   2.185 -0.0460 -0.0615 -0.0238
 9284W        W26131  11.147   9.839  16.311 -0.1905 -0.0211 -0.4288
 9285W        W26132   1.651  15.624  12.594  0.1914 -0.0489 -0.3186
 9286W        W26133  14.516   6.156   2.647 -0.1067  0.3209  0.2600
 9287W        W26134   5.988   7.561   3.904  0.0729  0.2858 -0.1518
 9288W        W26135   5.858  11.397   2.241 -0.0970 -0.2848  0.1983
 9289W        W26136   3.088   4.981   2.029  0.1426  0.0555 -0.1370
 9290W        W26137   4.592  15.380   5.309  0.0455 -0.0587  0.1653
 9291W        W26138   1.990   3.601   4.224 -0.0439  0.1474 -0.2872
 9292W        W26139   3.716  11.615   5.219 -0.0044  0.2427  0.0112
 9293W        W26140   7.455  10.736   2.039 -0.1101 -0.1351 -0.1506
 9294W        W26141   1.843   1.412  15.325 -0.0669 -0.0986 -0.1043
 9295W        W26142   3.957  16.790   3.347  0.2252  0.0037 -0.3424
 9296W        W26143  11.118   9.797   4.670  0.0699  0.0671  0.2797
 9297W        W26144  14.073   8.878   5.013  0.2118 -0.1898  0.0742
 9298W        W26145   7.946  15.294   1.942  0.0604 -0.0478 -0.0726
 9299W        W26146   5.932   5.807   3.202  0.0756  0.0227 -0.1469
 9300W        W26147  16.917  14.080   4.732  0.0712  0.0961  0.2466
 9301W        W26148   0.912  17.811   2.206  0.0671  0.3612 -0.2246
 9302W        W26149   4.076   1.267   5.154 -0.3434 -0.2877 -0.2120
 9303W        W26150   5.755   4.415   5.887  0.1462 -0.0397  0.1738
 9304W        W26151   4.726   2.207   1.505  0.0974 -0.0367  0.1004
 9305W        W26152  10.363  15.148   3.252 -0.0057  0.2307 -0.0383
 9306W        W26153  13.865  10.915  16.493 -0.0895 -0.2120 -0.1913
 9307W        W26154  17.928   0.202   1.154 -0.1550  0.1840  0.2967
 9308W        W26155   3.785  16.582   1.496  0.2206  0.0887 -0.0934
 9309W        W26156   4.379   9.239   5.674  0.0778 -0.2807 -0.1811
 9310W        W26157   5.805  17.486   3.613 -0.0171 -0.0288  0.0320
 9311W        W26158   7.335   2.495   5.778  0.0724 -0.1439  0.1164
 9312W        W26159   2.412  11.824   5.090  0.0650  0.1524 -0.2586
 9313W        W26160  12.810   4.684  16.287  0.1948  0.0633  0.1409
 9314W        W26161  11.572  13.691   5.646  0.1324 -0.1837 -0.1315
 9315W        W26162   1.274  11.786  11.867 -0.2480 -0.1477 -0.1232
 9316W        W26163   3.880   2.912  15.809  0.0515 -0.0581  0.0121
 9317W        W26164   2.221   2.037   3.262  0.3061 -0.1460  0.0265
 9318W        W26165   2.753   1.923   1.589 -0.1078  0.0201 -0.0874
 9319W        W26166  16.426   7.978   5.048  0.0756 -0.0449  0.0869
 9320W        W26167   0.306   4.170  16.019  0.1825 -0.0328 -0.1396
 9321W        W26168   1.465  15.474   6.058 -0.0208 -0.0503  0.0057
 9322W        W26169   4.996  16.735  14.704  0.2576 -0.0699  0.1001
 9323W        W26170   0.405   8.616   1.462 -0.2464 -0.1815  0.1658
 9324W        W26171  14.061   5.788   0.460  0.2801  0.2263 -0.2534
 9325W        W26172  17.288  15.816  15.562  0.0811 -0.1475 -0.0940
 9326W        W26173   0.776   4.391   4.050  0.0878  0.0704 -0.0158
 9327W        W26174  13.967   8.195  14.713 -0.1395 -0.2410 -0.1215
 9328W        W26175   7.129  13.863   3.553  0.1683  0.0946 -0.0948
 9329W        W26176   9.539  11.539  16.498 -0.1601 -0.1138  0.1145
 9330W        W26177  13.085  14.035  13.011 -0.1913  0.0021 -0.0368
 9331W        W26178  12.121   5.494   1.648  0.2113 -0.2325  0.0276
 9332W        W26179   3.955  13.271   5.406 -0.2376 -0.0966  0.0166
 9333W        W26180  12.538  11.284  12.953  0.0524  0.5305 -0.1526
 9334W        W26181  10.727   5.411  15.781 -0.0593 -0.0222 -0.0893
 9335W        W26182   7.775  11.085  13.178  0.1758  0.0031  0.1436
 9336W        W26183   5.086   7.304  14.343  0.3383 -0.4420 -0.0739
 9337W        W26184  17.605   5.014  14.384  0.0619  0.1417 -0.1992
 9338W        W26185   9.752   8.876   5.424 -0.0900  0.0064  0.0616
 9339W        W26186   8.607   3.775  16.523 -0.1087  0.1485 -0.1482
 9340W        W26187  12.657   5.985   2.337 -0.0847  0.0321  0.0854
 9341W        W26188   3.864   7.700   1.905 -0.0137  0.2809 -0.0162
 9342W        W26189  11.385   6.912   1.683 -0.1157 -0.1454  0.1596
 9343W        W26190   2.297  14.441   2.561  0.1655 -0.1179 -0.0438
 9344W        W26191   0.853  10.602  12.556  0.0075 -0.0120  0.6405
 9345W        W26192   9.264   5.500   1.539  0.1031  0.0337  0.1069
 9346W        W26193   3.053   7.019  14.344 -0.1712 -0.1729  0.0939
 9347W        W26194   0.169  14.381  15.264 -0.1399  0.2218 -0.1982
 9348W        W26195  16.906   7.878  16.516  0.1924  0.1657  0.1319
 9349W        W26196  12.137   6.870  14.793 -0.2735 -0.1945 -0.0732
 9350W        W26197   6.970   2.568  11.557 -0.2265 -0.0755  0.0953
 9351W        W26198  17.654  12.206  12.197 -0.1830  0.0134 -0.2764
 9352W        W26199  17.307   0.506  15.009 -0.3281 -0.4803 -0.0963
 9353W        W26200  10.915   3.665  13.562  0.0304 -0.1025  0.5110
 9354W        W26201   9.066   4.193   5.396 -0.2971  0.2389 -0.0814
 9355W        W26202  16.837   8.084  16.008 -0.0335 -0.1253 -0.0095
 9356W        W26203  15.212  11.185  15.066  0.0260  0.0434  0.2540
 9357W        W26204   1.354   2.208  14.357 -0.1504 -0.0196 -0.0921
 9358W        W26205  15.197   9.263   3.423  0.2754 -0.0099 -0.0637
 9359W        W26206   2.699   2.474   5.904 -0.2703  0.2023  0.0057
 9360W        W26207   1.003   6.201  13.427 -0.1717 -0.1589  0.0370
 9361W        W26208  12.205  11.888   4.628  0.1810 -0.0750 -0.1035
 9362W        W26209  10.792  14.723  14.222  0.0869 -0.0461 -0.0749
 9363W        W26210  16.512   5.542   4.546  0.0396  0.0563 -0.2418
 9364W        W26211   9.184   8.739   0.421 -0.0702 -0.1045 -0.1752
 9365W        W26212  13.098   4.293   0.836 -0.2768  0.0516  0.2230
 9366W        W26213  17.615  15.519  12.930  0.1615 -0.1738  0.1857
 9367W        W26214   0.107  12.460  12.348 -0.0747  0.0794  0.1620
 9368W        W26215   5.692  12.427   4.289  0.3725  0.0009  0.2411
 9369W        W26216  17.467   8.398  12.632  0.3228  0.1133 -0.1277
 9370W        W26217   2.173  13.826  13.724 -0.1911  0.2438  0.4152
 9371W        W26218   3.013  12.748  15.746 -0.0214 -0.2711 -0.2286
 9372W        W26219   2.296  16.914  16.062  0.0373  0.1113  0.1249
 9373W        W26220   7.674   8.452  13.061 -0.1010  0.1320  0.0401
 9374W        W26221   8.111   4.187   1.085  0.0776  0.2289 -0.2285
 9375W        W26222  13.353   1.467  16.206 -0.0344 -0.0674 -0.0594
 9376W        W26223  15.479  15.877  13.531 -0.1062 -0.0365  0.0297
 9377W        W26224  10.824  15.719   0.078 -0.0497 -0.1408  0.1317
 9378W        W26225   3.624  11.765  15.932 -0.2142 -0.1303  0.0182
 9379W        W26226   2.990  17.179   2.873 -0.2141 -0.1564  0.3310
 9380W        W26227   7.406   0.030  12.809  0.1342 -0.1184  0.1519
 9381W        W26228   0.288  15.555   3.551 -0.0500  0.1031  0.0904
 9382W        W26229   2.082  17.787   0.884  0.0481  0.0177 -0.0794
 9383W        W26230  15.610  17.499   1.538  0.1710 -0.0303 -0.4372
 9384W        W26231  12.868   6.989   3.731 -0.0932 -0.3984  0.0355
 9385W        W26232   5.191   0.195   2.774 -0.2176  0.3462 -0.0093
 9386W        W26233   0.361  16.616  15.393  0.0657 -0.2146  0.0273
 9387W        W26234  13.885  12.342  14.638  0.0875 -0.2863 -0.0897
 9388W        W26235   1.688  15.756   1.920  0.1694  0.0749 -0.1249
 9389W        W26236   6.179   8.233   1.406  0.1024  0.1219  0.1719
 9390W        W26237  10.753  17.589   5.544 -0.1627  0.0711  0.0558
 9391W        W26238   8.298  17.841  16.580  0.0376 -0.4846  0.0286
 9392W        W26239   8.751   3.594   0.756  0.0261  0.1237  0.1045
 9393W        W26240  12.644   0.520   3.876 -0.1720 -0.3984 -0.0551
 9394W        W26241  12.153  16.390  16.795 -0.1973 -0.1522 -0.0814
 9395W        W26242  14.399  13.244   3.555  0.1850 -0.2897  0.0453
 9396W        W26243   3.680  11.230  16.023  0.0041 -0.2960 -0.0333
 9397W        W26244   9.789  15.807  11.973  0.0072 -0.3074  0.0723
 9398W        W26245  15.342   6.358  12.209 -0.0254  0.1507  0.2409
 9399W        W26246   0.773   1.241  15.174  0.1395  0.2464  0.4281
 9400W        W26247   9.079  15.718  11.615  0.0559 -0.2466 -0.0778
 9401W        W26248  16.198   5.852  15.563 -0.0929  0.3606 -0.0018
 9402W        W26249   2.436   3.005  16.178  0.3029 -0.2409 -0.0113
 9403W        W26250  15.525   0.336   1.115 -0.2613  0.3086 -0.1647
 9404W        W26251   1.531  12.048  15.128  0.1151 -0.0109  0.1672
 9405W        W26252  13.045   4.953  16.655  0.0024 -0.0584  0.0162
 9406W        W26253   8.176   4.915  14.929  0.1186  0.1297 -0.1615
 9407W        W26254   9.162  10.468  14.236 -0.0996  0.0158  0.1916
 9408W        W26255   0.634   9.547   1.715  0.1587  0.1097 -0.2834
 9409W        W26256   7.229  17.624  11.917  0.1467 -0.0880 -0.1029
 9410W        W26257  13.027  15.089  10.675 -0.2636  0.1174  0.1196
 9411W        W26258   8.639  14.223  12.817  0.0604  0.0496  0.0351
 9412W        W26259  12.483   9.885   3.108  0.0905 -0.2220  0.0775
 9413W        W26260   2.895  13.520   3.999 -0.1772 -0.0777  0.0109
 9414W        W26261  17.521   3.731  10.982 -0.2740  0.1087  0.0192
 9415W        W26262   5.497   0.243   4.671  0.0845 -0.0465 -0.0848
 9416W        W26263   4.996   8.942   1.304 -0.1347 -0.1029 -0.0007
 9417W        W26264  16.777  10.703  14.543 -0.0290  0.0298  0.3961
 9418W        W26265  12.635  11.480   2.628  0.0082  0.3076  0.0130
 9419W        W26266  14.229   7.583  12.548  0.1912  0.1180  0.0569
 9420W        W26267  14.824   9.714  15.555  0.1424  0.3802  0.1778
 9421W        W26268   0.627   1.664   4.481 -0.2039 -0.2000  0.1716
 9422W        W26269   8.376   4.670  13.068  0.0929  0.0288 -0.0722
 9423W        W26270  12.319   1.899   3.058 -0.3529  0.1133 -0.0934
 9424W        W26271  16.958   3.472   5.258  0.1735  0.2288  0.2696
 9425W        W26272   2.984  10.810  16.566 -0.0970  0.0383 -0.3538
 9426W        W26273  10.881   7.683  15.189 -0.1296 -0.0111 -0.1755
 9427W        W26274  17.851  13.142  15.243 -0.1400  0.1138 -0.2763
 9428W        W26275   4.924  12.377  12.508  0.1216  0.1071 -0.0300
 9429W        W26276   2.034   6.764   5.736  0.2754 -0.0722  0.0980
 9430W        W26277  15.178  14.815  15.542  0.3189 -0.0909 -0.0696
 9431W        W26278  16.076   1.719   1.760 -0.1993 -0.0005 -0.1201
 9432W        W26279  17.581  11.815   3.205 -0.0537 -0.1445 -0.1457
 9433W        W26280   1.202   1.376  11.624  0.0289  0.1040  0.1909
 9434W        W26281   4.033  14.259   4.029  0.0116 -0.1074 -0.0513
 9435W        W26282  15.072   2.000  12.197 -0.0550 -0.1915  0.2496
 9436W        W26283   2.326   6.941   3.520  0.1951  0.0683 -0.5520
 9437W        W26284  13.071  13.161   2.239  0.0273  0.0536 -0.0201
 9438W        W26285   5.324  10.670  13.306 -0.0818  0.0124 -0.0117
 9439W        W26286  14.226   1.476   1.932  0.1190  0.0123  0.1281
 9440W        W26287  13.986  11.066   3.901 -0.0328 -0.2562  0.0988
 9441W        W26288   8.862   0.734   5.274  0.0855  0.1418 -0.4829
 9442W        W26289  17.217   8.885  16.739  0.2045  0.0777  0.3474
 9443W        W26290   6.916   8.428   1.895 -0.2114  0.3446 -0.0158
 9444W        W26291  13.074   3.210  11.539  0.0759  0.0218 -0.0179
 9445W        W26292   5.207   3.942  13.869  0.3111 -0.0558  0.0287
 9446W        W26293   6.073  10.360  12.636 -0.2060  0.0842 -0.0074
 9447W        W26294   4.342  15.204  12.135 -0.0763 -0.1881 -0.1071
 9448W        W26295  11.344   7.649  12.235 -0.1188 -0.0188 -0.0027
 9449W        W26296   6.999   4.440  13.431  0.4235  0.0199 -0.0293
 9450W        W26297  12.497  12.304   4.587 -0.0324  0.1272  0.2263
 9451W        W26298  14.004  17.770  16.448 -0.1706  0.2049  0.0191
 9452W        W26299   0.502  15.334   1.351  0.2005  0.0341  0.1198
 9453W        W26300   3.404  13.865   2.037 -0.3027  0.0575 -0.2638
 9454W        W26301  15.861   5.798   3.955  0.0447 -0.0076 -0.0486
 9455W        W26302   3.437   6.012   0.562  0.1355  0.0311 -0.1438
 9456W        W26303   9.335  11.049   1.896  0.2393 -0.2226 -0.2617
 9457W        W26304   6.940   8.935   4.989 -0.0494  0.2720  0.0402
 9458W        W26305   5.756  15.688   4.229 -0.0584  0.0382  0.2212
 9459W        W26306  13.813   4.763  16.245  0.0952  0.0049 -0.1131
 9460W        W26307  16.636  14.213   2.868  0.1314  0.0630  0.1124
 9461W        W26308  15.565   1.413  11.246 -0.2787  0.3010  0.1690
 9462W        W26309   7.920   7.077  14.812  0.0683  0.1340  0.0728
 9463W        W26310  16.589   7.730  15.660 -0.3955 -0.1339  0.0158
 9464W        W26311  10.902   5.553  12.629 -0.0139  0.0735 -0.0345
 9465W        W26312  17.582   0.279  13.176 -0.0174  0.2163 -0.0903
 9466W        W26313   9.710  16.888   2.581  0.2252  0.0366  0.1240
 9467W        W26314  12.861   0.912   3.691  0.2287  0.0265  0.1147
 9468W        W26315  12.190   1.494  12.110  0.2001  0.0548 -0.1284
 9469W        W26316   1.123   8.836  15.691 -0.0179  0.0151  0.2434
 9470W        W26317   2.153   6.683   2.046 -0.1290  0.1207  0.0470
 9471W        W26318  17.806   6.129  12.706  0.2677 -0.0296 -0.3024
 9472W        W26319  13.090   0.094  12.987  0.2298  0.3288 -0.2266
 9473W        W26320   0.985   6.490   0.842  0.1720 -0.1882 -0.3822
 9474W        W26321   5.148   2.861  14.001 -0.3651 -0.0587  0.0383
 9475W        W26322  17.302   9.352  16.279  0.2701  0.0622  0.1320
 9476W        W26323  15.141  15.900  15.760 -0.0234  0.0832 -0.1090
 9477W        W26324  15.789  10.879  13.479  0.1623  0.1350  0.2344
 9478W        W26325   6.571   6.597  12.163  0.4532 -0.3234  0.0826
 9479W        W26326   6.106  11.027   4.964  0.0418 -0.5487 -0.0844
 9480W        W26327   4.156  16.740   4.267 -0.0925  0.0956 -0.0549
 9481W        W26328   7.560  15.547   5.709  0.0870 -0.0258  0.0145
 9482W        W26329  12.531  15.373   2.683  0.0031 -0.1512  0.1794
 9483W        W26330  12.440  12.506  16.679  0.0579 -0.2781  0.1367
 9484W        W26331  11.927  13.755   1.783 -0.3457 -0.1547 -0.1108
 9485W        W26332  10.846   2.574  14.395  0.2427  0.2837  0.3011
 9486W        W26333   3.535   9.499  16.760  0.2287  0.2159 -0.1635
 9487W        W26334   6.757  11.020   1.626 -0.2145  0.2102  0.0671
 9488W        W26335  15.657   9.734   5.414  0.0595  0.0669  0.2778
 9489W        W26336  16.118  16.282   0.288 -0.0312 -0.0106  0.0890
 9490W        W26337   1.422  14.081   2.526  0.0971 -0.0107 -0.0888
 9491W        W26338   9.589  15.550   3.155  0.1868 -0.0443 -0.0813
 9492W        W26339   9.822   0.048  12.999 -0.1232  0.1587 -0.0871
 9493W        W26340   0.293   4.582  11.697 -0.1702 -0.0019 -0.1499
 9494W        W26341  12.197   8.730   0.986 -0.3006 -0.1738  0.0602
 9495W        W26342   0.481   6.195   5.001 -0.3626  0.0047 -0.1722
 9496W        W26343  16.663  12.344  16.341 -0.3489  0.2736  0.0362
 9497W        W26344  15.214   3.249   2.166 -0.1847  0.1135 -0.0339
 9498W        W26345  11.197   7.912   3.714  0.0637  0.2195 -0.2757
 9499W        W26346  12.338  12.634   0.851 -0.0765 -0.1680 -0.0132
 9500W        W26347  17.271  10.484  11.655 -0.1973  0.2035  0.2252
 9501W        W26348  13.108  17.616  16.755  0.0685  0.0754 -0.0547
 9502W        W26349   4.810  10.735   0.971  0.1235 -0.1775  0.3038
 9503W        W26350  11.944   9.280   4.166  0.2438 -0.0100  0.0063
 9504W        W26351  15.227  17.373  12.093  0.2517 -0.0073 -0.1886
 9505W        W26352  13.228  12.668   3.891  0.0720 -0.1024 -0.1348
 9506W        W26353  12.636  10.949   2.370 -0.1316 -0.0130  0.3248
 9507W        W26354   2.581   3.502   5.208 -0.3186  0.1232 -0.2527
 9508W        W26355   8.411   4.169  13.263 -0.0349 -0.2749 -0.0310
 9509W        W26356   2.566  13.169  13.067 -0.1254  0.1798 -0.1251
 9510W        W26357   1.020  17.729   0.369  0.1283 -0.0357  0.1171
 9511W        W26358  13.449   8.181   1.317 -0.3384  0.1918 -0.0270
 9512W        W26359  15.800   9.477   0.048 -0.0520  0.0078 -0.2719
 9513W        W26360   4.898   8.494   0.639 -0.1152  0.1650 -0.1189
 9514W        W26361   0.253   2.012   3.068 -0.3427  0.1383  0.2685
 9515W        W26362   4.913   5.741  15.677  0.1797 -0.3064  0.0752
 9516W        W26363   9.600   8.209   1.227  0.0135 -0.0065 -0.0790
 9517W        W26364   2.491  14.146   4.889 -0.1316 -0.1059  0.1272
 9518W        W26365   1.042   9.614   0.100 -0.5157 -0.0917 -0.1197
 9519W        W26366   1.648  12.618  14.243  0.1278 -0.1917  0.1754
 9520W        W26367  10.328  13.971   0.770  0.0092  0.0498  0.0409
 9521W        W26368  15.577   6.568  12.612  0.3398  0.1837 -0.1659
 9522W        W26369   0.729  11.082   2.184  0.0953  0.2449  0.3652
 9523W        W26370   4.207  10.941  12.606  0.0695 -0.1136  0.0890
 9524W        W26371   4.079   3.405   0.678 -0.1135 -0.0860  0.1567
 9525W        W26372  16.102  14.865   1.096 -0.0266 -0.1954  0.0179
 9526W        W26373   1.378  10.413  12.483 -0.1114 -0.2261  0.1054
 9527W        W26374   4.755  15.598  16.672 -0.3341 -0.2013  0.1497
 9528W        W26375   7.199   8.694   0.644 -0.0126 -0.0377 -0.3259
 9529W        W26376   4.687  14.130  13.991  0.0254 -0.1876  0.0100
 9530W        W26377   2.036  16.198  16.561  0.3379  0.1430  0.0865
 9531W        W26378   8.508   4.741  15.663  0.3058  0.2558  0.1682
 9532W        W26379   5.346   9.994  15.726 -0.1941 -0.0017 -0.0327
 9533W        W26380  13.465  10.265  12.749 -0.1394  0.0575 -0.1753
 9534W        W26381  10.525  10.667   4.103  0.1541  0.2499 -0.0251
 9535W        W26382   1.772   3.173  14.098 -0.0176 -0.0633  0.1163
 9536W        W26383   9.434  17.788   4.524  0.0241 -0.0746  0.1965
 9537W        W26384  10.673  16.065   1.089  0.0355 -0.3418  0.1674
 9538W        W26385  16.767  14.604  14.694 -0.1258 -0.1231 -0.0163
 9539W        W26386  12.316   1.015  13.370  0.0180 -0.1021  0.0876
 9540W        W26387   6.798  10.880   4.698 -0.1334 -0.2043  0.0551
 9541W        W26388  17.820  10.887  16.751 -0.1525 -0.1282  0.1026
 9542W        W26389  10.164   2.931   6.228  0.0729  0.1583 -0.3283
 9543W        W26390  13.988  11.372   1.307  0.0119  0.1429  0.5417
 9544W        W26391   9.316   0.214   3.956  0.0886 -0.2771  0.1399
 9545W        W26392   0.985   7.237  16.524 -0.0115  0.0266 -0.1463
 9546W        W26393  10.816  16.647   1.434  0.1770 -0.1414  0.1834
 9547W        W26394   6.565   5.270  14.337  0.0731 -0.4111 -0.1119
 9548W        W26395   0.037   2.718   0.844  0.1536  0.3408 -0.0469
 9549W        W26396  12.693  17.333   3.483 -0.2596  0.0782  0.0064
 9550W        W26397  13.869   6.747   5.353 -0.0242  0.1791  0.0434
 9551W        W26398   0.836  14.254  13.674 -0.3763  0.1811 -0.2035
 9552W        W26399   0.485  10.185   0.418  0.0560  0.2282 -0.1203
 9553W        W26400  14.865   3.314  15.706  0.0700 -0.0596 -0.0276
 9554W        W26401  10.411   7.685  16.347 -0.2518 -0.1934 -0.0309
 9555W        W26402   1.540   7.388   3.198  0.1816 -0.4730 -0.1299
 9556W        W26403  14.768   0.687   4.766  0.1785 -0.1704 -0.1558
 9557W        W26404   5.639   0.442   3.493  0.1123 -0.0368 -0.0926
 9558W        W26405   2.245  14.335   3.823 -0.2939  0.0162 -0.2028
 9559W        W26406   3.896  17.349   3.336  0.2313  0.1007  0.0083
 9560W        W26407  12.052  12.251   0.146  0.0093  0.0020 -0.0850
 9561W        W26408   4.282  15.276   4.072 -0.1018  0.1582 -0.0636
 9562W        W26409  11.649   6.360  16.534  0.2836 -0.0059 -0.1617
 9563W        W26410  10.265   9.417  12.537  0.1649 -0.0263 -0.0243
 9564W        W26411  11.533  14.014   1.575  0.0044 -0.1533  0.0093
 9565W        W26412   7.482  10.443  16.285  0.1713 -0.1985  0.1682
 9566W        W26413   5.863   0.314  12.172 -0.0044 -0.1994  0.1083
 9567W        W26414   5.257   9.045  13.732  0.1895 -0.0169 -0.0488
 9568W        W26415   7.923  11.919   3.532 -0.0581 -0.3240 -0.1405
 9569W        W26416   0.887   8.260   0.131  0.2412 -0.0081  0.0371
 9570W        W26417   8.961   8.697   4.693 -0.0534 -0.1884  0.1120
 9571W        W26418   1.466  13.276   6.254 -0.5466  0.0493  0.1289
 9572W        W26419  13.281   5.575   3.698 -0.0375  0.1388  0.0750
 9573W        W26420  17.347  10.789   1.783 -0.2398  0.0380 -0.0716
 9574W        W26421   7.843   3.704   2.966  0.0734  0.2976 -0.2101
 9575W        W26422  11.934  12.989  15.526  0.2573 -0.0308 -0.2534
 9576W        W26423   8.141  15.755   3.163  0.1813 -0.0631 -0.2046
 9577W        W26424   0.587   4.433   0.387  0.0540 -0.0480  0.0998
 9578W        W26425   2.421   7.393  14.267 -0.0038 -0.1253  0.3096
 9579W        W26426  17.718  10.040  16.405  0.0400  0.2001 -0.2240
 9580W        W26427  14.580   3.791  14.388 -0.0248 -0.2818 -0.0062
 9581W        W26428  11.325  15.110   3.008  0.1477  0.3643  0.2105
 9582W        W26429  13.617   0.226   1.638 -0.1919 -0.1577  0.3888
 9583W        W26430  15.869   5.955   5.758 -0.3523 -0.0963  0.1917
 9584W        W26431   6.082  10.077   3.435 -0.0802  0.0728  0.0524
 9585W        W26432  11.542   1.908  15.352  0.2272 -0.1750 -0.0025
 9586W        W26433   4.692  11.148   0.097  0.0401 -0.2872 -0.0857
 9587W        W26434  12.515   7.324  14.065 -0.0048  0.1345 -0.0638
 9588W        W26435   2.634  15.142   4.495  0.0619 -0.1802 -0.0986
 9589W        W26436   1.525   0.666  11.510  0.2406 -0.0943 -0.0657
 9590W        W26437   9.811  14.621   3.709 -0.0948  0.0462 -0.1421
 9591W        W26438   8.708   2.561  11.234 -0.0713  0.1190  0.0110
 9592W        W26439   6.992   4.422   3.286 -0.0183  0.1941  0.1433
 9593W        W26440   7.923   7.578  13.459 -0.2095  0.0351  0.0646
 9594W        W26441  17.225   0.093  12.341 -0.1984 -0.1885  0.2537
 9595W        W26442   0.011  12.396   5.483 -0.1198 -0.0872 -0.1341
 9596W        W26443  14.287   6.800   2.431  0.1686 -0.0334 -0.0067
 9597W        W26444   5.183  12.549  14.291  0.4142  0.0930  0.1144
 9598W        W26445   4.416  11.248  13.233 -0.4290  0.4161  0.0152
 9599W        W26446   0.345  10.977   4.020  0.1927  0.1101  0.1757
 9600W        W26447  12.939   6.603  14.081  0.0849 -0.1359  0.0380
 9601W        W26448  13.420   4.414  13.068  0.1231  0.1014  0.0639
 9602W        W26449  15.280  17.594  15.924  0.0591 -0.0504  0.0490
 9603W        W26450  11.955  14.680   2.151  0.0916 -0.1948  0.0533
 9604W        W26451   3.319   3.079   2.932 -0.0269  0.0357 -0.0300
 9605W        W26452   4.235   2.544  14.231 -0.1327  0.1048 -0.0890
 9606W        W26453   7.312  11.429  15.805  0.2965 -0.2604 -0.1172
 9607W        W26454   3.928  12.876   1.103 -0.1495  0.0445  0.0339
 9608W        W26455   8.236   4.946   4.863  0.2014  0.1580  0.0540
 9609W        W26456  16.292  17.228   5.245 -0.1428  0.0186 -0.1536
 9610W        W26457   2.217  15.735   3.749  0.2714 -0.0634 -0.1255
 9611W        W26458  10.869   6.821  11.727 -0.1504 -0.3638  0.1686
 9612W        W26459  14.634  17.873   5.409 -0.3569 -0.0002 -0.0060
 9613W        W26460  10.196   6.959  11.026  0.1081 -0.1954 -0.1195
 9614W        W26461   1.422   0.660   2.841  0.2161 -0.0389  0.1260
 9615W        W26462   4.279   4.920   4.306  0.0778 -0.1323  0.3175
 9616W        W26463   2.762  14.396   1.262  0.0259  0.2243 -0.2265
 9617W        W26464  12.423   8.586   4.243  0.1980 -0.2629  0.1296
 9618W        W26465  13.191  15.508   5.476  0.0561 -0.0866 -0.2861
 9619W        W26466  16.351   2.754   5.960 -0.4148 -0.1759  0.2042
 9620W        W26467  15.331   4.769   3.408 -0.0293 -0.1931 -0.1531
 9621W        W26468  15.749  16.068   4.381 -0.1868  0.0424 -0.3017
 9622W        W26469  14.231   4.057   5.184 -0.3188 -0.0361  0.0570
 9623W        W26470  14.132  16.129   1.183 -0.0071  0.3748 -0.0185
 9624W        W26471   4.357   1.020  16.074  0.0524 -0.1238  0.1807
 9625W        W26472   1.114  10.958   1.292  0.0973 -0.2133 -0.1845
 9626W        W26473   7.721   0.363   4.589  0.1046 -0.3666 -0.1941
 9627W        W26474   8.009  10.192  15.329 -0.0136  0.1655  0.1438
 9628W        W26475   6.902   6.544  15.430  0.0342  0.2714  0.2009
 9629W        W26476  15.547   0.420   3.541 -0.0584  0.1097 -0.0624
 9630W        W26477   3.766  16.471   4.451  0.2692  0.0262 -0.2843
 9631W        W26478  10.435  17.385  13.000 -0.0027  0.0341 -0.0365
 9632W        W26479   8.391  16.104  13.907 -0.1734 -0.0713  0.0866
 9633W        W26480  14.425  16.751   2.433  0.3075 -0.0276  0.1437
 9634W        W26481   9.254  15.018   2.508  0.0140 -0.0994  0.1113
 9635W        W26482  15.680   7.046   1.124  0.1044 -0.0386  0.1068
 9636W        W26483   1.704   0.368  15.110 -0.0538  0.3096 -0.1873
 9637W        W26484   7.914   8.366   1.522  0.0002  0.0918 -0.1090
 9638W        W26485   4.573   9.522   1.533 -0.0747  0.2118  0.1837
 9639W        W26486   2.056  14.697  13.235 -0.2520  0.1520 -0.0623
 9640W        W26487  13.815  10.553  13.111  0.0695 -0.2511  0.0612
 9641W        W26488  15.073  15.337  16.084 -0.1108 -0.0969  0.2389
 9642W        W26489   1.106   6.795   4.727 -0.2235  0.0817  0.1373
 9643W        W26490   1.087   6.427   2.902 -0.0873 -0.0056  0.2804
 9644W        W26491  16.804   3.327  15.602  0.0936 -0.0278  0.0170
 9645W        W26492   1.586  11.706   2.384 -0.0122  0.1264 -0.2243
 9646W        W26493  10.135   8.936   0.633  0.1072  0.0544 -0.1583
 9647W        W26494  10.814   5.873   5.264 -0.0248 -0.1301  0.2473
 9648W        W26495  16.479   1.524   1.220  0.0422 -0.0947  0.1181
 9649W        W26496  11.136  16.362   3.242 -0.0059  0.2755 -0.0778
 9650W        W26497   6.900   4.458   4.900  0.0013  0.3819 -0.0527
 9651W        W26498  15.223  15.334  15.593  0.1927  0.0853  0.1095
 9652W        W26499   2.048  13.626   2.932 -0.2191  0.0878  0.1159
 9653W        W26500  16.756   3.665   3.948  0.1324  0.0423 -0.0405
 9654W        W26501  12.951  16.127  16.428 -0.3145  0.1930  0.2632
 9655W        W26502   0.565   2.639   5.300  0.0271 -0.2208  0.1442
 9656W        W26503   5.918  16.656  16.690  0.0207 -0.4941 -0.2273
 9657W        W26504  17.336  15.348  15.800  0.0599  0.3034  0.2538
 9658W        W26505  10.674  12.296   1.525 -0.2106 -0.1652  0.1025
 9659W        W26506  14.252   2.921  15.073 -0.1866 -0.1134  0.2874
 9660W        W26507  17.222   3.275  11.091 -0.1775  0.1617 -0.1421
 9661W        W26508  15.267   0.007  15.533 -0.2665 -0.3507  0.0815
 9662W        W26509  13.834   2.407   2.083 -0.1646 -0.1505  0.1268
 9663W        W26510   8.905   2.239  16.578 -0.1430 -0.1921  0.0498
 9664W        W26511  10.856   3.683  14.152  0.1796  0.1653 -0.1865
 9665W        W26512  13.401  15.269  13.643  0.0113 -0.1381 -0.3143
 9666W        W26513  16.644   0.765  11.133 -0.0364 -0.1539  0.2243
 9667W        W26514  15.881  10.073   4.841  0.1497 -0.4186  0.1153
 9668W        W26515   1.764  13.077  15.420 -0.2141  0.0337 -0.1286
 9669W        W26516   4.829   7.263   0.372 -0.1790  0.0943 -0.0634
 9670W        W26517   0.416  14.851   0.127 -0.2147 -0.0104 -0.0553
 9671W        W26518   7.604   3.009  14.263  0.2270  0.2044 -0.0711
 9672W        W26519   6.744  16.793  13.962  0.0526 -0.5016 -0.0018
 9673W        W26520   9.254  12.245   2.430 -0.0715  0.2971 -0.1245
 9674W        W26521   8.691  13.730  14.197 -0.1199  0.1486  0.1628
 9675W        W26522   4.875   6.962   4.432 -0.0219 -0.0038 -0.2840
 9676W        W26523   3.237   8.935   1.109 -0.1694 -0.0736  0.0223
 9677W        W26524   0.095  14.430  12.887 -0.2088  0.1184 -0.0790
 9678W        W26525   3.903  16.911   4.717 -0.0115 -0.1029  0.3241
 9679W        W26526   7.601   9.107   0.053 -0.0174 -0.1020  0.0139
 9680W        W26527  16.528  17.253  12.130  0.2334  0.2021  0.2936
 9681W        W26528  13.498   6.610   2.536 -0.0903  0.0307 -0.2345
 9682W        W26529   8.389  17.272  14.783  0.2871  0.0772 -0.0734
 9683W        W26530   2.376  16.574  16.502 -0.0155  0.1518  0.1763
 9684W        W26531   2.345  16.646   3.222 -0.4007 -0.1451 -0.1332
 9685W        W26532  10.719  14.255  14.041 -0.2527  0.1537  0.2581
 9686W        W26533  16.142  15.865  12.756 -0.0838 -0.0411  0.1233
 9687W        W26534  13.217   7.824   4.694 -0.0198  0.0246 -0.1290
 9688W        W26535   9.307   1.718  15.902 -0.0918  0.0772 -0.0479
 9689W        W26536   7.744  15.343   4.863  0.1513  0.0697 -0.0490
 9690W        W26537  14.988  11.373  14.660 -0.0157  0.1187  0.1295
 9691W        W26538   7.100   0.825   4.036  0.0712  0.2352  0.1371
 9692W        W26539  11.275  15.904   0.200  0.0185  0.1094  0.0087
 9693W        W26540  17.842   1.716  14.407 -0.0528 -0.0765  0.0581
 9694W        W26541   2.671  10.642  15.118 -0.2310  0.0735 -0.1786
 9695W        W26542   6.589   2.922  13.101  0.2175  0.0645 -0.1011
 9696W        W26543   2.738   7.717  15.627  0.0841 -0.1604  0.2227
 9697W        W26544  11.906  13.417  14.786 -0.0482  0.0627  0.4573
 9698W        W26545   6.064   4.186  16.062  0.1780 -0.1731 -0.0095
 9699W        W26546   7.683  14.782  16.654  0.0819 -0.2283  0.0010
 9700W        W26547   0.435   2.981  15.341  0.0029 -0.0081  0.0269
 9701W        W26548   4.207   1.954  12.290 -0.0678 -0.2581 -0.3428
 9702W        W26549  12.237   8.866   6.094 -0.0540 -0.1979  0.1671
 9703W        W26550   3.277   5.010   5.068  0.1626  0.1211 -0.5454
 9704W        W26551  15.209   3.903   1.300  0.4760  0.1485 -0.1394
 9705W        W26552   9.839  16.694  12.553  0.1551  0.1377  0.0139
 9706W        W26553   7.343   1.243   3.123 -0.2250 -0.0554 -0.0965
 9707W        W26554  15.250   6.247   3.596 -0.2315  0.4432 -0.0818
 9708W        W26555   6.278  12.719  11.909  0.0564  0.0686 -0.0268
 9709W        W26556   1.127   4.003  11.828 -0.2917 -0.3773  0.1873
 9710W        W26557  12.159   6.363   1.418 -0.3457  0.3639  0.3041
 9711W        W26558  16.395   4.372   0.427  0.0755  0.0357 -0.0527
 9712W        W26559  17.022  13.723   3.574  0.1812 -0.1325 -0.2525
 9713W        W26560   5.204   0.915  12.443  0.1324 -0.1508 -0.1036
 9714W        W26561  16.360   4.531   2.229  0.2080  0.0657 -0.3810
 9715W        W26562   3.886  17.121  16.261  0.2256  0.0785  0.1027
 9716W        W26563  13.763  17.478   1.154  0.0327 -0.1209  0.1521
 9717W        W26564   7.405  12.207  15.301 -0.0526  0.1245  0.2745
 9718W        W26565   9.862   2.082   0.276  0.0811  0.1186 -0.0752
 9719W        W26566   5.565   1.176  12.177  0.0716 -0.0121 -0.0999
 9720W        W26567   0.157  10.456  13.432 -0.2387  0.3298 -0.0123
 9721W        W26568  12.647   0.255   0.515  0.3029 -0.3546  0.3564
 9722W        W26569   8.963  13.442  14.526  0.0822 -0.0329 -0.1003
 9723W        W26570   3.632  14.076  11.671  0.0384 -0.0515 -0.1732
 9724W        W26571   6.634  13.819   2.672 -0.0702 -0.0913 -0.1112
 9725W        W26572   5.275   1.764   4.502  0.1190 -0.0410  0.2360
 9726W        W26573  13.494  16.283  14.960  0.0668 -0.0196 -0.0193
 9727W        W26574  15.656  15.621   1.085 -0.2995  0.2081  0.1454
 9728W        W26575   8.130  14.211  12.794  0.0101 -0.0747 -0.1061
 9729W        W26576   9.347  17.200  14.438 -0.2030 -0.1453 -0.1684
 9730W        W26577  12.918   0.765   0.449 -0.0254 -0.0643 -0.2852
 9731W        W26578   7.017   4.442   5.819 -0.2142  0.1195  0.0149
 9732W        W26579   4.188   7.184  15.640 -0.1128 -0.2737  0.1525
 9733W        W26580   8.506  12.951  13.125  0.0432  0.0661  0.4070
 9734W        W26581  11.471  16.675   5.342  0.0623  0.3023  0.1084
 9735W        W26582   7.483   8.392   3.794 -0.2366  0.1204  0.2217
 9736W        W26583  12.518   3.195   4.270  0.1032 -0.1402  0.0852
 9737W        W26584   5.629   9.685   0.919 -0.2087 -0.0204  0.0439
 9738W        W26585  11.412  15.264   1.841 -0.0250 -0.3721 -0.1441
 9739W        W26586   4.723   3.013   3.086 -0.0750  0.1115  0.0342
 9740W        W26587  11.412   0.597   2.122  0.0399 -0.0200 -0.0380
 9741W        W26588   9.192  15.050  14.646 -0.1135 -0.0799  0.2791
 9742W        W26589   6.909  16.429  16.752  0.2731  0.1516 -0.1804
 9743W        W26590   3.998   4.086  11.805  0.1279 -0.1152 -0.1005
 9744W        W26591   0.655  10.857   4.368  0.2130 -0.1126 -0.0827
 9745W        W26592  13.839   7.118  16.445  0.1479  0.1052  0.2763
 9746W        W26593  12.147  17.588   4.688  0.0500  0.3222  0.2713
 9747W        W26594  11.739   0.264   0.593 -0.2163  0.0499  0.2514
 9748W        W26595  11.240  10.863   2.698 -0.0610  0.0020 -0.2633
 9749W        W26596  17.317   7.997  14.646 -0.0364  0.1261  0.0535
 9750W        W26597   7.243   4.767  14.444 -0.3225  0.0992 -0.0129
 9751W        W26598   7.134   6.327   1.932  0.2806 -0.0372  0.0427
 9752W        W26599   9.250   2.611  16.468 -0.1580  0.1381  0.0796
 9753W        W26600   3.767   8.231  12.261 -0.0137  0.0209  0.1484
 9754W        W26601   0.692   6.320   4.555 -0.1289 -0.3899  0.0435
 9755W        W26602   3.849  13.964  14.430 -0.0842 -0.1367  0.1228
 9756W        W26603   0.513   6.386   5.498  0.1053 -0.1356  0.1657
 9757W        W26604  16.484  16.397   4.109 -0.1335 -0.5994  0.0333
 9758W        W26605  17.220   9.467   2.607  0.0002 -0.0351 -0.2054
 9759W        W26606   8.238   4.168  11.915  0.0631  0.0307 -0.2331
 9760W        W26607   5.106   6.270   2.172  0.0565  0.0616 -0.1116
 9761W        W26608  13.852   9.212  13.316  0.1051 -0.1230 -0.0514
 9762W        W26609  17.834   9.837   1.089 -0.1395 -0.0834 -0.1096
 9763W        W26610   7.516  17.428   5.545 -0.0966 -0.0979  0.2573
 9764W        W26611   0.587  15.769  13.296 -0.0525  0.0978  0.2045
 9765W        W26612   2.030   6.694  15.514  0.1489  0.1023  0.0869
 9766W        W26613  11.668  14.883   1.753  0.3202  0.1414  0.1142
 9767W        W26614   6.872   2.859   2.095  0.2220 -0.1298  0.0088
 9768W        W26615  14.856  10.937  13.205  0.1764  0.0486 -0.5595
 9769W        W26616   6.562   6.287  16.653  0.0215  0.1923  0.0350
 9770W        W26617  11.700   4.845  16.346 -0.1449  0.2339 -0.0104
 9771W        W26618   7.357   3.433  16.115 -0.2112 -0.1233  0.1486
 9772W        W26619   8.087  16.670   1.829  0.0839  0.1745  0.0507
 9773W        W26620  12.924  14.083   4.714  0.1594 -0.0781 -0.2262
 9774W        W26621  12.372   4.322  16.076 -0.1239 -0.3534 -0.1471
 9775W        W26622  12.504   0.610   5.030 -0.0891  0.0452  0.0468
 9776W        W26623   0.635  13.730   4.248  0.1561  0.0808 -0.1393
 9777W        W26624   7.715  11.039  14.151  0.1681  0.0018 -0.1722
 9778W        W26625   4.285   9.965  16.603 -0.1417 -0.1215  0.1127
 9779W        W26626   4.927   4.760   3.755 -0.1950 -0.0362  0.2045
 9780W        W26627  16.880  13.284  15.561 -0.0391 -0.4762  0.2367
 9781W        W26628   5.129   1.115   6.121 -0.1252 -0.0412 -0.1081
 9782W        W26629   0.589   0.078  14.210 -0.2932  0.0151  0.1745
 9783W        W26630   8.043  17.693  16.149  0.0006  0.1266 -0.0331
 9784W        W26631   4.843  14.506   6.246 -0.3956  0.1136 -0.3373
 9785W        W26632   4.613   4.456  12.186  0.2351 -0.0705 -0.1200
 9786W        W26633  17.111   2.635   2.996  0.0850  0.2443 -0.0781
 9787W        W26634   6.474  17.578  14.950  0.1442 -0.1543 -0.0001
 9788W        W26635  13.138   9.600  12.316  0.0185  0.0039  0.0815
 9789W        W26636   8.292  14.953   4.284 -0.0182 -0.0684 -0.0160
 9790W        W26637  16.291  17.917  16.348 -0.2934 -0.0781 -0.0979
 9791W        W26638   5.786   4.022   2.068  0.1101  0.4562  0.1946
 9792W        W26639  10.651   2.086  16.326 -0.1722  0.1543 -0.0674
 9793W        W26640  16.839   3.998  14.567  0.0666 -0.0639  0.2510
 9794W        W26641  17.841   8.413  13.039  0.1313  0.0369 -0.4510
 9795W        W26642  15.447   0.753  14.859 -0.3753  0.0750  0.0882
 9796W        W26643   8.385  11.900  13.062 -0.0191  0.0355 -0.1836
 9797W        W26644  15.882   8.199  12.205  0.1908  0.1849 -0.1014
 9798W        W26645  14.320  15.976  16.036  0.1840 -0.4031  0.0364
 9799W        W26646   1.879  16.146   5.558 -0.0487 -0.1013  0.0068
 9800W        W26647  16.589  13.933   3.438  0.1376 -0.0031  0.3745
 9801W        W26648   0.384  11.083  13.122  0.1943  0.0275  0.1444
 9802W        W26649  10.955  17.676  12.788  0.2511  0.1956 -0.0613
 9803W        W26650   7.436   8.197  15.579 -0.1406 -0.1446  0.0969
 9804W        W26651   8.440   4.253  16.651  0.0142 -0.3771  0.0907
 9805W        W26652  12.852   3.280  15.633  0.2187  0.1982  0.0556
 9806W        W26653   6.361   4.612  14.739  0.1443 -0.3613  0.2908
 9807W        W26654   3.709   7.810  13.569 -0.0510 -0.4070 -0.1816
 9808W        W26655   5.372  13.961   0.911 -0.1632  0.1538  0.1291
 9809W        W26656  16.685  13.993  16.690  0.1587  0.1591 -0.0426
 9810W        W26657   8.558  12.388  13.085 -0.3065  0.0479  0.0495
 9811W        W26658   1.900   4.349   0.164  0.0876  0.3078  0.0558
 9812W        W26659   1.228   0.353   5.100  0.1079 -0.1875 -0.1203
 9813W        W26660  17.547  12.446   0.413  0.2830 -0.2693 -0.2751
 9814W        W26661   0.369  12.623   5.785  0.0753  0.0045  0.1022
 9815W        W26662  11.825   5.050  13.579 -0.3054 -0.3463 -0.1219
 9816W        W26663   7.211  17.205  15.066  0.2288  0.0378  0.1803
 9817W        W26664  16.098   0.645  13.333 -0.1295  0.1767  0.0669
 9818W        W26665   4.420  17.014  11.064 -0.0237 -0.1434 -0.2739
 9819W        W26666   8.187  16.901   0.835 -0.0903  0.4032  0.1091
 9820W        W26667   3.788  17.084   1.363  0.1482 -0.0579  0.3053
 9821W        W26668   7.764  17.842   2.809  0.3071  0.1685  0.0614
 9822W        W26669   0.965   8.730   2.676  0.0977  0.1846 -0.1018
 9823W        W26670   1.347   1.998   4.403  0.0291 -0.0695 -0.4673
 9824W        W26671   4.193   1.756   5.195 -0.0772  0.1498 -0.2977
 9825W        W26672   2.944   8.632   1.828  0.0193  0.0781 -0.1621
 9826W        W26673   8.091   6.913   1.181  0.0103 -0.3708  0.3498
 9827W        W26674  14.572  16.428  12.741 -0.1177 -0.2037  0.4230
 9828W        W26675  16.799   1.135   1.226  0.1575  0.2106  0.0351
 9829W        W26676   0.959  17.470  14.633  0.0129 -0.2381 -0.0102
 9830W        W26677   5.138  11.557   6.030  0.3220 -0.0034  0.1425
 9831W        W26678   8.846   1.964   1.180  0.2900 -0.0122  0.2742
 9832W        W26679  10.361  16.966   1.263 -0.2215 -0.2297  0.1198
 9833W        W26680   9.457  15.926   2.553 -0.0652 -0.0305  0.1255
 9834W        W26681   0.321   9.246   2.039 -0.2428  0.1557  0.2325
 9835W        W26682  17.026   9.364  16.785 -0.0523 -0.3624  0.1558
 9836W        W26683   6.316  16.316   1.934  0.2079  0.1133  0.0599
 9837W        W26684   6.326  14.443   0.758 -0.1779  0.0935 -0.1860
 9838W        W26685  10.175  15.034   0.295 -0.0401 -0.1429  0.0594
 9839W        W26686  14.969  15.704   1.583 -0.0427  0.1946  0.1243
 9840W        W26687   5.000  13.005  11.663 -0.2677 -0.3435 -0.2554
 9841W        W26688   9.739   3.587  14.812  0.0855 -0.3161  0.0203
 9842W        W26689   4.272   4.058  13.749 -0.1749 -0.1827 -0.0450
 9843W        W26690  16.667   5.237   0.655  0.0880 -0.0180 -0.1614
 9844W        W26691  13.367  14.333   2.950 -0.2999  0.0976 -0.0424
 9845W        W26692  10.482   9.839  11.800 -0.2321 -0.0817 -0.0563
 9846W        W26693   9.289   2.458  12.353 -0.0538  0.0941  0.0667
 9847W        W26694  11.886   0.459  14.044  0.0350  0.1315 -0.1022
 9848W        W26695   2.641  12.105  14.580 -0.0802 -0.0914 -0.1782
 9849W        W26696   8.659  14.721   5.675  0.0446 -0.1469 -0.4634
 9850W        W26697   5.323   8.459   4.489  0.0177 -0.1967  0.1255
 9851W        W26698   4.168   2.730   5.041  0.0041 -0.1587 -0.1745
 9852W        W26699  12.926   5.574   5.059  0.0537  0.3440  0.0205
 9853W        W26700   0.276   9.080   0.337 -0.0236 -0.0688 -0.2967
 9854W        W26701  15.073   0.372   3.728  0.2490  0.1339 -0.0702
 9855W        W26702  16.549   2.595   4.824  0.0895 -0.1733 -0.2294
 9856W        W26703   8.781  12.885  13.607 -0.1133 -0.2919 -0.0568
 9857W        W26704  12.874   4.918  11.774 -0.2169  0.0741 -0.2164
 9858W        W26705   5.623   1.093  11.249 -0.5278  0.1383 -0.2020
 9859W        W26706   8.403   7.653  12.470 -0.4010 -0.2114  0.0737
 9860W        W26707   3.993   4.613   4.663  0.1132 -0.1760  0.1281
 9861W        W26708   7.150   2.684  13.250  0.0396  0.2820 -0.0189
 9862W        W26709   5.219   5.048   5.118 -0.1218  0.3258  0.0616
 9863W        W26710  10.910  10.590   3.263 -0.0728  0.2636  0.1778
 9864W        W26711  16.022   7.444   1.240 -0.0690  0.0228 -0.0276
 9865W        W26712   5.402   8.582  13.691 -0.1036 -0.3901 -0.1325
 9866W        W26713   0.228   3.641  16.087  0.1012 -0.0464 -0.0852
 9867W        W26714   9.588  15.252  12.698 -0.0077  0.1001  0.0727
 9868W        W26715   1.415   7.952  14.792 -0.0409  0.2279  0.3291
 9869W        W26716   7.328   5.124   0.225 -0.1941  0.1206 -0.0051
 9870W        W26717  10.387   9.777   1.751  0.2459  0.1257  0.2480
 9871W        W26718   6.834   6.964  15.690 -0.3875  0.2755  0.0548
 9872W        W26719   8.410   5.273   5.465 -0.1674  0.0882 -0.0092
 9873W        W26720   5.386  16.287   0.232  0.0197  0.0215  0.0292
 9874W        W26721   5.099  17.228   2.959  0.1366  0.0627 -0.2399
 9875W        W26722   2.477  12.240  14.064 -0.1034 -0.1808  0.2565
 9876W        W26723   6.411   6.559  12.982  0.0092  0.0204 -0.2956
 9877W        W26724   8.358   7.995   0.605  0.1012  0.0717  0.0780
 9878W        W26725   6.718   7.668   2.549 -0.0479  0.0573  0.0520
 9879W        W26726   7.583   7.859  14.651 -0.2058  0.3276  0.0123
 9880W        W26727   5.157   8.268   0.321  0.2083 -0.0830  0.0266
 9881W        W26728  16.180   2.425   0.506  0.1598  0.2965 -0.3235
 9882W        W26729  12.767  13.568  11.700 -0.0446 -0.0499  0.1599
 9883W        W26730  14.530   0.499   0.630  0.2772  0.3301  0.0479
 9884W        W26731   0.198   4.733  13.430  0.1587  0.0835  0.0988
 9885W        W26732  15.840   7.636  13.605 -0.0830 -0.0252  0.2513
 9886W        W26733   0.609  16.278   3.680  0.1146  0.1170 -0.0591
 9887W        W26734  15.915   3.256   5.235  0.1933 -0.0603  0.1775
 9888W        W26735   2.139   3.416  13.661 -0.2833  0.1413  0.2027
 9889W        W26736  17.640   6.412  14.144  0.3341  0.1589 -0.0426
 9890W        W26737   6.149   1.097   5.751  0.1566  0.0417  0.0201
 9891W        W26738  10.350   1.319  14.562  0.1054 -0.0606 -0.1200
 9892W        W26739   8.443   8.805   3.484 -0.2599  0.1476 -0.2547
 9893W        W26740  13.873   1.835   1.218 -0.4668 -0.0546  0.2193
 9894W        W26741   2.058   8.024  12.274  0.1170  0.0825  0.1509
 9895W        W26742  10.099  14.221  15.016 -0.0715  0.1992 -0.0033
 9896W        W26743  16.778   4.113  12.875 -0.0958 -0.0745  0.1491
 9897W        W26744   7.900   3.030   2.069  0.2957 -0.0487 -0.1383
 9898W        W26745   1.633  10.260  16.300 -0.1676 -0.0293 -0.0156
 9899W        W26746   4.904  16.789   3.181 -0.2105  0.0577 -0.0313
 9900W        W26747   4.061   9.091   6.120  0.2102  0.0094  0.0078
 9901W        W26748   7.730   7.551   5.552  0.0177  0.1437 -0.4317
 9902W        W26749  11.221   0.444   1.655 -0.0314  0.0586 -0.0507
 9903W        W26750   3.398   2.769  14.251 -0.0119 -0.1228 -0.2599
 9904W        W26751  17.482  10.982  12.786  0.2230 -0.0166  0.0705
 9905W        W26752   2.553   0.118  15.514 -0.0746  0.0581  0.0232
 9906W        W26753   1.049  13.559  15.887 -0.0617  0.1310  0.2967
 9907W        W26754   7.360  14.977  14.773  0.0622 -0.3530  0.1313
 9908W        W26755   5.463  14.466  15.189  0.0223  0.1526 -0.1232
 9909W        W26756  17.803   4.378  11.502 -0.2594  0.0756 -0.0390
 9910W        W26757  16.127   1.069   3.183  0.0150 -0.3379 -0.0058
 9911W        W26758   4.113   5.678   0.997 -0.2945  0.1552 -0.1101
 9912W        W26759   0.807   2.201   4.455  0.0357  0.1060  0.1283
 9913W        W26760   6.713   5.738   4.452 -0.0063 -0.1081  0.1586
 9914W        W26761   4.814   0.826   5.434  0.1535  0.0279  0.2810
 9915W        W26762   9.284  13.910  14.494 -0.3071 -0.0142  0.2480
 9916W        W26763   6.558   4.631  12.238  0.0816  0.0448 -0.0622
 9917W        W26764   7.840  16.016   3.443 -0.0196  0.1937 -0.1173
 9918W        W26765   4.328   4.904  11.516 -0.0982 -0.0596 -0.1120
 9919W        W26766  15.935   5.848  16.644 -0.2655 -0.1427  0.0085
 9920W        W26767  16.694   0.038   2.166  0.1162  0.2549 -0.1831
 9921W        W26768  14.720   4.854  12.988 -0.1835  0.3998  0.1474
 9922W        W26769  15.913   4.127  16.317  0.2421 -0.0588 -0.0437
 9923W        W26770  15.711  13.438   1.938  0.2789  0.0321  0.1097
 9924W        W26771   9.958  16.446  16.415  0.2396 -0.2163 -0.2541
 9925W        W26772   1.414  10.432   2.049  0.5282 -0.2229 -0.1289
 9926W        W26773  14.643  14.540   3.108  0.0931 -0.2715 -0.1551
 9927W        W26774   2.245   7.641   0.919  0.0180  0.0188  0.1928
 9928W        W26775   0.977   1.003  15.742 -0.0798 -0.0640  0.1657
 9929W        W26776  11.458   2.582  11.620  0.0159  0.0052 -0.4331
 9930W        W26777  13.668   7.708  14.170  0.1101  0.0240  0.1178
 9931W        W26778   9.181  13.121  12.398  0.3683  0.1343  0.3077
 9932W        W26779  15.912  14.279  14.234 -0.0435 -0.1320  0.1928
 9933W        W26780  10.272  16.551  14.991 -0.3122 -0.3917  0.0505
 9934W        W26781  11.431  10.169  12.241  0.1840  0.1485 -0.0449
 9935W        W26782   4.539  17.655  11.648  0.0203 -0.1645 -0.1030
 9936W        W26783   6.445   0.045   0.531  0.2299 -0.0918 -0.0650
 9937W        W26784  10.086   2.544   0.181  0.1419  0.1576  0.2342
 9938W        W26785   6.386   1.443   3.273 -0.2155 -0.1442 -0.1438
 9939W        W26786  13.465   3.879  14.649 -0.0060 -0.0717 -0.0989
 9940W        W26787   8.158  11.688  11.586 -0.2001  0.2485 -0.0011
 9941W        W26788  13.501   2.418   3.718  0.1671  0.0846 -0.1108
 9942W        W26789   5.549   2.005  15.317  0.1259  0.1613  0.0273
 9943W        W26790   7.554  13.437   0.767 -0.2524 -0.0797  0.0650
 9944W        W26791   7.260  14.412  13.942 -0.0465  0.3116 -0.1358
 9945W        W26792  17.310   7.638   1.107 -0.1273  0.2210  0.1149
 9946W        W26793   4.788   4.523  12.639 -0.2626  0.1112  0.2318
 9947W        W26794   3.629  17.799   3.845  0.0394 -0.1989  0.0150
 9948W        W26795   1.010   6.611  13.785  0.0050 -0.3541  0.0870
 9949W        W26796   8.291  16.074  12.284 -0.0094 -0.2923 -0.2447
 9950W        W26797   8.362   3.633   5.763  0.0553 -0.0828 -0.2166
 9951W        W26798  15.896   2.595   3.582 -0.1481 -0.0046  0.1236
 9952W        W26799   4.235  16.576   2.776  0.0039 -0.2218  0.1866
 9953W        W26800   9.046  13.440   4.573  0.2851 -0.2468 -0.1325
 9954W        W26801   8.509  11.641   1.110 -0.1989  0.0343 -0.2152
 9955W        W26802   7.212   2.135   4.550  0.0500 -0.2371  0.0403
 9956W        W26803  13.655  13.427   4.317 -0.0661 -0.0900 -0.0031
 9957W        W26804   3.296   7.779  16.364 -0.1716 -0.0578 -0.1952
 9958W        W26805  16.123   4.926  15.653  0.0330 -0.1884  0.0542
 9959W        W26806   3.904   8.448  15.320 -0.1141 -0.1519 -0.4189
 9960W        W26807  10.208  15.777   4.034 -0.2337 -0.1486 -0.0880
 9961W        W26808   6.961   5.294  16.381  0.2098  0.1679 -0.1362
 9962W        W26809   9.626  11.239   2.728 -0.0464 -0.0022  0.0157
 9963W        W26810   8.115   8.005   0.121 -0.0215 -0.1206 -0.0300
 9964W        W26811   9.271   6.983   2.928 -0.0261 -0.0905 -0.1596
 9965W        W26812  17.208   7.993  12.542  0.0188  0.1762  0.0483
 9966W        W26813   0.465  16.776   4.046 -0.0349  0.2504 -0.1312
 9967W        W26814  16.069   8.930   1.868 -0.2259 -0.0254  0.1345
 9968W        W26815  14.217  11.764   0.997 -0.2762  0.4191  0.0427
 9969W        W26816   3.973  14.529  16.328 -0.2153  0.1283 -0.2302
 9970W        W26817   7.704   7.841   1.450 -0.2148  0.1153  0.0384
 9971W        W26818   7.845  13.333  14.016 -0.1904  0.2658  0.0993
 9972W        W26819  10.779  17.667  14.249  0.0178 -0.1671 -0.1743
 9973W        W26820   1.050   6.596   3.329  0.2949 -0.3686  0.2536
 9974W        W26821   3.967   6.845  14.109 -0.1821  0.2610  0.2923
 9975W        W26822  13.844   0.624   1.344 -0.2926  0.0126  0.3085
 9976W        W26823   2.300   2.250   0.487 -0.4334  0.2818  0.1057
 9977W        W26824  12.663   6.439  16.381  0.1060  0.0966 -0.1038
 9978W        W26825   3.534   1.488  12.097 -0.5305 -0.2957 -0.2475
 9979W        W26826   7.513  17.384   2.648 -0.0124  0.0632  0.1811
 9980W        W26827  13.197   3.269  16.005 -0.0653  0.1972  0.0636
 9981W        W26828  15.403   5.787   6.055  0.3187 -0.1231 -0.2173
 9982W        W26829   9.575   4.807  16.529  0.1175  0.0720  0.1629
 9983W        W26830   1.429  16.354   3.837 -0.2306 -0.1902 -0.0431
 9984W        W26831   3.456   1.516   3.011  0.2838 -0.0511 -0.1266
 9985W        W26832  11.289  13.188  14.027 -0.0339 -0.1421  0.0159
 9986W        W26833   8.287   7.750   3.462  0.3827 -0.0712 -0.0930
 9987W        W26834  16.000  11.052   3.771 -0.0346  0.1812 -0.0368
 9988W        W26835   8.843  11.767   2.481  0.2016 -0.1069  0.1119
 9989W        W26836   7.562  13.303   5.262  0.0074  0.2718  0.0083
 9990W        W26837   5.607   1.144  12.740  0.0035  0.0167  0.1351
 9991W        W26838  13.578   7.420  13.082 -0.1165  0.0560 -0.2789
 9992W        W26839   2.998  17.510  12.883  0.3027  0.0606  0.2369
 9993W        W26840   4.962  17.387  12.649  0.3639 -0.0079  0.0008
 9994W        W26841  16.412   1.998  14.440  0.0172 -0.4136 -0.0039
 9995W        W26842   7.040   3.175   1.724 -0.1400 -0.0098 -0.0219
 9996W        W26843  15.508   2.494   1.658 -0.2770 -0.0706 -0.1889
 9997W        W26844  17.308  17.446   4.687 -0.0768  0.2009  0.1495
 9998W        W26845   9.405   6.650   3.372  0.2485 -0.0964 -0.3462
 9999W        W26846   3.072  11.405  14.201  0.1170 -0.0401  0.0663
10000W        W26847   6.226   0.392  11.571  0.1272 -0.3281 -0.1373
10001W        W26848  15.186  12.238   0.313  0.1228  0.3610 -0.0842
10002W        W26849   9.001   1.822   0.093  0.1827  0.0720  0.1010
10003W        W26850   5.453   9.873   4.969 -0.0007 -0.1284  0.2458
10004W        W26851  14.996   0.435   5.122  0.1684  0.2017 -0.3470
10005W        W26852  15.405   4.057  14.688  0.0866 -0.0894 -0.1922
10006W        W26853  11.462  17.746  13.412 -0.0095  0.2788 -0.0853
10007W        W26854  14.330   2.390  13.472  0.0235 -0.0639  0.2411
10008W        W26855   1.677  13.182  14.205  0.0668  0.0570 -0.0173
10009W        W26856  15.858  10.951  12.228  0.0052  0.2602  0.2057
10010W        W26857  12.817  14.951  14.423 -0.0911  0.0343 -0.2122
10011W        W26858  10.691  12.703   5.148  0.1955 -0.0366  0.5249
10012W        W26859  14.960   6.671   4.403 -0.0647 -0.2123 -0.0895
10013W        W26860   5.950   5.736  13.135 -0.0448 -0.2273 -0.2207
10014W        W26861   5.076   8.404   1.197  0.1207  0.0783 -0.0683
10015W        W26862  10.923   8.676   0.955 -0.0657  0.2812  0.0528
10016W        W26863  14.086   5.405  15.454  0.0026  0.0195  0.0461
10017W        W26864  17.821   4.917   4.513  0.0067  0.0171  0.2156
10018W        W26865  17.299   3.556  12.353 -0.1795 -0.0882 -0.0504
10019W        W26866   2.073  10.801   2.615 -0.2736  0.0656 -0.0881
10020W        W26867  16.357   3.998  11.632  0.1152 -0.0413 -0.2203
10021W        W26868  14.343   3.852  13.823  0.0162 -0.1419  0.0571
10022W        W26869   0.805  17.793  12.858  0.0584 -0.1323 -0.2403
10023W        W26870  13.730   6.291   5.089  0.1170 -0.0297  0.0235
10024W        W26871   4.937   0.489  12.309 -0.3310 -0.1590  0.1040
10025W        W26872   6.792  11.970  13.957 -0.0495 -0.0324 -0.3187
10026W        W26873   5.560  16.692  13.711  0.1123 -0.0355 -0.0288
10027W        W26874  16.985   1.842   2.448  0.1015 -0.0498 -0.2332
10028W        W26875   3.375  10.919   0.313  0.2416  0.2251 -0.0634
10029W        W26876  12.356   9.609   5.096 -0.0249 -0.1540  0.0116
10030W        W26877   3.832   6.143   2.154 -0.2137 -0.0911  0.1264
10031W        W26878   3.210  12.840  15.010 -0.0482  0.0907 -0.0701
10032W        W26879   5.179   0.558  15.399  0.1931  0.0423 -0.2168
10033W        W26880  13.473   0.638   2.626 -0.5303  0.5402 -0.0300
10034W        W26881  12.976   1.446   5.078 -0.0870  0.0620 -0.0738
10035W        W26882  11.451  12.307   4.241  0.3826 -0.2634 -0.2027
10036W        W26883  10.448   5.417  12.732  0.1977  0.2600  0.1982
10037W        W26884  12.653  11.173   4.519 -0.1803 -0.2319  0.0360
10038W        W26885  17.810   7.143  15.609  0.1278 -0.3561 -0.1976
10039W        W26886   5.950   6.175   2.789 -0.2986  0.0436  0.0641
10040W        W26887   5.620   4.026   1.527 -0.0810  0.0984 -0.0622
10041W        W26888   7.062  11.048  14.125 -0.1947 -0.0230  0.1582
10042W        W26889  10.823  10.677  15.249 -0.2927 -0.1859  0.0889
10043W        W26890   6.526   5.657  14.009  0.2066 -0.1170  0.2867
10044W        W26891   4.420  14.596  14.902 -0.1489 -0.1580 -0.0034
10045W        W26892   2.351   8.970  16.430 -0.2044  0.1078 -0.0075
10046W        W26893  15.496  14.531   5.474 -0.3045  0.0266 -0.1008
10047W        W26894  15.789   0.038  16.087  0.1439  0.0622 -0.0181
10048W        W26895   2.178   0.424  16.269  0.1244 -0.0659 -0.1047
10049W        W26896   2.422   0.350  16.781  0.1456  0.1510  0.0968
10050W        W26897   4.996   7.996   5.148  0.0005  0.0689  0.2487
10051W        W26898  10.256   7.390   1.331 -0.0938  0.1337 -0.1519
10052W        W26899  16.144   6.025   4.311 -0.0545  0.1250  0.1928
10053W        W26900   5.875   8.051  12.206 -0.2283 -0.1025  0.1185
10054W        W26901  17.822  15.841   3.571 -0.0661  0.1131 -0.0001
10055W        W26902  16.860  12.173   4.231  0.1088 -0.2661  0.2378
10056W        W26903  17.211  13.089  15.951 -0.1241 -0.1049  0.2123
10057W        W26904   1.787   1.134   1.543 -0.2382  0.0760 -0.1473
10058W        W26905   2.554   0.462   0.517  0.2289  0.4850 -0.3254
10059W        W26906   5.201  16.898  12.480  0.3730 -0.1719  0.0367
10060W        W26907   8.126   0.725   3.241 -0.1275 -0.1962 -0.0821
10061W        W26908   6.226  10.926   1.547 -0.0373  0.0059  0.0697
10062W        W26909  15.306   6.805   3.478 -0.2293  0.1103  0.1754
10063W        W26910   2.478   2.107  11.255  0.0134 -0.0198  0.0101
10064W        W26911   2.963   2.698  13.937  0.0285 -0.1803 -0.1843
10065W        W26912   5.685   8.053   5.797  0.2737  0.1753 -0.1618
10066W        W26913   3.303   9.508   1.060 -0.1920  0.4540 -0.0461
10067W        W26914   0.274   9.396  13.233 -0.2441 -0.0488 -0.1694
10068W        W26915  13.676  14.907  14.531  0.2603 -0.0719 -0.0077
10069W        W26916   3.580   1.203   1.969 -0.0998 -0.3201  0.1483
10070W        W26917  11.031  15.667  15.672  0.1223  0.2281  0.4241
10071W        W26918  15.326  11.101   0.316 -0.0659  0.0514 -0.2864
10072W        W26919   7.411   3.419   1.475 -0.2280  0.2153  0.3671
10073W        W26920   8.109  14.575  14.489  0.1650  0.1491  0.3312
10074W        W26921   1.775   8.716   5.169  0.0859  0.0008 -0.2119
10075W        W26922  12.369   6.182  12.324  0.1261  0.0078  0.1823
10076W        W26923   3.679  16.278  14.235 -0.1751 -0.2031 -0.0054
10077W        W26924  16.698  11.615   2.113  0.3086 -0.2984  0.2219
10078W        W26925  10.602  13.295   3.510  0.1292  0.1329 -0.0261
10079W        W26926   5.478  14.721   4.696  0.0891 -0.1393  0.0343
10080W        W26927   5.292   2.429  14.931 -0.1957 -0.0007 -0.0646
10081W        W26928   8.859   1.500   1.483  0.0987  0.1135 -0.2238
10082W        W26929  12.689   1.344   1.739 -0.4331 -0.0573  0.0432
10083W        W26930   6.362   2.199   2.029  0.0171 -0.0202  0.0713
10084W        W26931  15.430   0.903   5.129  0.2949 -0.0961 -0.0714
10085W        W26932  11.277  13.784   2.929  0.3173 -0.0151 -0.1436
10086W        W26933  16.061   5.966   2.132 -0.3015 -0.0922 -0.0022
10087W        W26934   3.242   8.762  16.374  0.2157  0.2534 -0.0657
10088W        W26935   1.895   8.748  16.300 -0.0191  0.0286 -0.1423
10089W        W26936   4.089  12.233  15.612 -0.1212  0.4693 -0.2209
10090W        W26937  14.183   8.668  15.599 -0.0789 -0.1537  0.1806
10091W        W26938  11.400   3.263   6.160 -0.3273  0.1954  0.2236
10092W        W26939   2.169  12.466   2.340 -0.0618 -0.1629 -0.0027
10093W        W26940   3.472  10.449   3.084  0.7616 -0.0751  0.1411
10094W        W26941  12.364  15.922   2.760 -0.0984 -0.0459 -0.1417
10095W        W26942   2.895  13.544  13.345  0.0405  0.0660  0.0623
10096W        W26943   6.348   8.313  14.463 -0.0762  0.1404 -0.4363
10097W        W26944  12.754  14.774  16.343 -0.0614  0.0395 -0.1498
10098W        W26945  16.840   7.341   2.919 -0.1773 -0.1258  0.3318
10099W        W26946   1.661   3.793   3.468 -0.4164  0.0743  0.2275
10100W        W26947  12.960  12.508   3.050  0.0077  0.0790 -0.0077
10101W        W26948  11.875   3.485   1.205 -0.1629  0.3382  0.0826
10102W        W26949  10.074  10.632  16.692  0.0171  0.1827  0.2049
10103W        W26950   2.812  13.860   3.422  0.1411  0.2971 -0.0587
10104W        W26951  17.745   5.920   4.027 -0.0948  0.2159  0.1227
10105W        W26952  16.994  17.028  15.914 -0.2617  0.0207  0.3494
10106W        W26953   9.572  16.891   3.496 -0.2812  0.0214 -0.2669
10107W        W26954  16.251  13.047  12.112 -0.0189  0.2726  0.0385
10108W        W26955  12.338   3.633   2.544  0.4057 -0.1484 -0.1761
10109W        W26956  13.254  12.863  12.045  0.0865  0.0483 -0.3032
10110W        W26957  17.345  13.707  12.905  0.2151  0.0424 -0.2312
10111W        W26958   5.974   8.233   4.905  0.2346 -0.0956  0.0247
10112W        W26959   2.035  13.462   5.512 -0.0775 -0.0907 -0.0525
10113W        W26960  17.762  13.071   6.447 -0.0588  0.2070  0.1554
10114W        W26961  12.753  13.451   0.139  0.0002  0.2479 -0.3832
10115W        W26962   4.168   5.256   0.751  0.1750  0.0720 -0.2731
10116W        W26963  13.669  13.184  13.336 -0.2763 -0.1359 -0.1493
10117W        W26964   3.993  17.644  14.529  0.0659  0.1644  0.2300
10118W        W26965  10.290   1.603   0.691  0.1004 -0.2404 -0.0734
10119W        W26966   4.456   8.759   2.621 -0.2193 -0.1203 -0.0875
10120W        W26967  13.482   2.051   1.965 -0.1556  0.0197 -0.0766
10121W        W26968   1.362   4.565   1.017 -0.1002 -0.1601 -0.0929
10122W        W26969   3.391   4.742   0.075 -0.1741 -0.1167 -0.0342
10123W        W26970  13.611  10.618   4.003 -0.2851  0.1761 -0.1071
10124W        W26971  17.418  12.150   4.155  0.0708 -0.2142  0.0679
10125W        W26972   3.232  14.136  11.955  0.0425  0.1055 -0.2084
10126W        W26973  10.793  11.163  12.349  0.0513 -0.1459 -0.0993
10127W        W26974   5.278   3.751   3.263 -0.2722 -0.0323  0.1158
10128W        W26975   8.927   3.116  13.769  0.0347 -0.2352 -0.1566
10129W        W26976  15.610   7.381  16.626  0.1009  0.0730  0.0767
10130W        W26977   5.792  17.937   5.026 -0.0649 -0.3541  0.1848
10131W        W26978   8.949   4.424   0.514 -0.1945  0.4320  0.0556
10132W        W26979   6.556   1.417   5.405  0.2046  0.1605 -0.2456
10133W        W26980   4.917   6.216  13.004 -0.0330 -0.1672 -0.1077
10134W        W26981  13.580  11.302  16.792 -0.6237  0.1112  0.1542
10135W        W26982   3.003   3.739  12.134  0.0452  0.2013  0.1177
10136W        W26983   8.052  13.686  15.446 -0.1655 -0.2657  0.0034
10137W        W26984  16.467  10.950  14.189 -0.0056  0.4232 -0.0282
10138W        W26985   1.609   0.800   1.985 -0.0777  0.0104  0.0919
10139W        W26986  16.378   3.640   0.040  0.2346 -0.1408 -0.0385
10140W        W26987   2.963  16.676   1.714  0.0332 -0.1896 -0.1775
10141W        W26988  13.320  16.560   1.479  0.1116 -0.2212 -0.1481
10142W        W26989   0.774   8.012  16.450  0.1531  0.1150 -0.1568
10143W        W26990   4.551  16.241   5.019 -0.4128 -0.2483  0.4728
10144W        W26991  15.582   6.959   1.991 -0.1721 -0.1838 -0.2128
10145W        W26992   1.977  10.625   5.755  0.0498  0.5167 -0.2674
10146W        W26993   1.864  12.870   2.359 -0.1516 -0.1469  0.4231
10147W        W26994   8.820   3.007   3.254 -0.0527  0.1862 -0.0116
10148W        W26995   2.668  17.097   3.278  0.1669  0.0969 -0.2235
10149W        W26996  12.660  16.000   6.174  0.0625  0.0501  0.0048
10150W        W26997   0.933  12.708   3.718 -0.0634 -0.1671  0.1896
10151W        W26998  11.005   4.293  16.488  0.0013  0.0690 -0.0434
10152W        W26999  15.688  17.733  14.700 -0.2307 -0.0937 -0.1266
10153W        W27000   0.431   2.471  15.472  0.1304  0.0659  0.1279
10154W        W27001  14.904  15.196   3.917  0.0831 -0.1101 -0.1177
10155W        W27002  11.780   7.061   2.089  0.0939  0.1403 -0.1952
10156W        W27003   6.376   7.118  13.756  0.1907  0.0761 -0.3042
10157W        W27004  10.852   6.289   5.590 -0.0618  0.1470 -0.1882
10158W        W27005   6.876  17.575   4.888 -0.0292 -0.0237  0.1732
10159W        W27006  17.270   4.122  11.451 -0.0659 -0.3160 -0.2244
10160W        W27007  14.410  15.580  15.402 -0.1400 -0.0379  0.0558
10161W        W27008  11.047  12.934  13.305  0.5075 -0.0296  0.0849
10162W        W27009  12.289   0.057   1.214 -0.1098 -0.1447 -0.3316
10163W        W27010  14.617  13.150  14.729 -0.4589  0.0991  0.1873
10164W        W27011   5.958   3.155   0.659  0.1921 -0.0610 -0.0475
10165W        W27012   7.953   7.484  12.514 -0.1993  0.1567 -0.2121
10166W        W27013  11.624  13.255   2.821  0.3800  0.0796 -0.0574
10167W        W27014   6.139  14.174   1.923 -0.0395  0.1703 -0.0233
10168W        W27015  10.201   1.468   2.431  0.0511 -0.0683  0.2079
10169W        W27016   1.907  17.952   2.412  0.4493  0.1666  0.1750
10170W        W27017  10.208  13.979   4.100 -0.1250 -0.0128 -0.2265
10171W        W27018  11.437  15.719   4.231 -0.1590  0.1849 -0.2040
10172W        W27019   9.775   8.049  11.947 -0.0834 -0.0725  0.0071
10173W        W27020  14.046   5.893   2.770 -0.2830  0.0440  0.1024
10174W        W27021  11.284   9.081   1.522 -0.1773  0.0742  0.2104
10175W        W27022   7.910  13.726  13.088  0.2386  0.0485  0.0523
10176W        W27023   8.377   1.189   4.691  0.0329  0.2995  0.0482
10177W        W27024   4.498  10.248   1.541 -0.0571  0.1941 -0.0206
10178W        W27025  16.326   2.822  16.497  0.2462 -0.3012 -0.1651
10179W        W27026  14.555   0.264   3.720 -0.1153 -0.0890 -0.4846
10180W        W27027  12.694   1.420   3.855 -0.0618  0.0200 -0.1729
10181W        W27028  10.980  16.955   2.438 -0.1873 -0.4652  0.0358
10182W        W27029   4.127   6.381  13.782 -0.0504 -0.1346  0.0016
10183W        W27030   2.158  15.442   0.211  0.0540  0.0991  0.0652
10184W        W27031  10.607   6.395   3.998 -0.1901  0.0272  0.4012
10185W        W27032   5.206  16.352   1.264 -0.0036  0.2491 -0.0245
10186W        W27033  15.310   3.636   2.450  0.1205  0.0566  0.2977
10187W        W27034  16.161   0.143  12.530  0.3335 -0.2304 -0.1543
10188W        W27035   4.098   8.076   3.646  0.3158 -0.0499 -0.1528
10189W        W27036  12.495   6.820  16.746 -0.1095  0.0965  0.1662
10190W        W27037   6.831  15.900  16.593 -0.2666 -0.1456 -0.1643
10191W        W27038  17.620   9.482   3.115  0.0218 -0.0480 -0.1448
10192W        W27039   4.503   0.191   0.877 -0.2746 -0.2400  0.2767
10193W        W27040   4.501   4.411  14.521  0.2908 -0.1030  0.1000
10194W        W27041  15.317  12.320   2.323 -0.0692 -0.1449 -0.0359
10195W        W27042  17.434  16.498  15.127  0.3140 -0.0998 -0.5389
10196W        W27043   0.465  14.090  11.283 -0.1429 -0.1955 -0.3089
10197W        W27044   6.491  15.623   0.845 -0.4727 -0.0645  0.0987
10198W        W27045  11.405  17.925   0.227  0.3244  0.0106  0.1183
10199W        W27046  10.689   7.371  11.901 -0.0348  0.0870  0.1184
10200W        W27047  13.262   5.192  13.850  0.0151  0.1101 -0.1454
10201W        W27048  10.221   6.051   6.108  0.1031 -0.2110 -0.1873
10202W        W27049   3.440   2.865  12.149 -0.1447  0.0550 -0.0755
10203W        W27050   8.007   3.676  11.442  0.1014  0.2352  0.0717
10204W        W27051  17.691  15.070   1.095  0.1842  0.0573  0.1129
10205W        W27052   0.264  10.792   1.460  0.0585  0.3883 -0.0240
10206W        W27053   9.624   9.871  15.593 -0.0175 -0.1165 -0.2913
10207W        W27054   3.570   9.703  12.982  0.0510  0.1029  0.1782
10208W        W27055   4.967  16.175   1.685  0.0017  0.1544  0.0546
10209W        W27056  17.835   2.782   4.296 -0.2343  0.2784  0.0917
10210W        W27057  12.792  16.419  14.133 -0.1259 -0.1426  0.0845
10211W        W27058  11.775   4.495  16.031  0.0692 -0.1277 -0.0125
10212W        W27059  14.885  14.022   4.842  0.3582 -0.2728  0.1107
10213W        W27060   0.052  15.479   2.206  0.1106  0.1647  0.0391
10214W        W27061   3.254   5.628   3.635 -0.0851 -0.1634  0.1373
10215W        W27062  10.538   0.744  12.494  0.2008  0.1673 -0.4261
10216W        W27063   5.390  11.335  11.986 -0.2239  0.0605  0.0441
10217W        W27064   1.532  14.212   3.033  0.0921  0.2095  0.0937
10218W        W27065  15.660   0.903   3.048  0.0679  0.1364  0.1383
10219W        W27066   8.472   2.301   3.295  0.1031 -0.1361 -0.1034
10220W        W27067  12.073   8.942   1.475  0.0732  0.0512 -0.4457
10221W        W27068  13.847  11.690  16.669  0.0335  0.2379  0.1346
10222W        W27069  17.689   2.370   4.126 -0.1296  0.2210 -0.1571
10223W        W27070   7.743   3.442  14.554  0.0873 -0.1668 -0.1705
10224W        W27071   1.864   8.593  15.786  0.1502 -0.1705  0.1825
10225W        W27072   1.562  14.141  13.225 -0.0534 -0.2701  0.3067
10226W        W27073   1.461   9.978   1.793 -0.0428 -0.3371  0.1179
10227W        W27074  13.251  15.637   4.956 -0.1986 -0.0896  0.0786
10228W        W27075   0.429   6.787   2.550  0.0438  0.0286 -0.0752
10229W        W27076   7.429   0.414  15.710  0.3496  0.5175  0.1376
10230W        W27077   9.905   0.496   5.050 -0.1146 -0.1030 -0.1066
10231W        W27078  14.894  17.759   3.526 -0.1624  0.1245 -0.5241
10232W        W27079   5.878   2.352  11.009 -0.0832  0.1444  0.0335
10233W        W27080   2.156   8.954  14.886 -0.1365  0.2303 -0.1739
10234W        W27081  12.411   2.778   3.511 -0.1293 -0.0873 -0.0182
10235W        W27082   0.683   6.839  16.460 -0.0657  0.2028  0.1610
10236W        W27083  12.937   0.167   3.720 -0.2295  0.2866  0.1227
10237W        W27084  15.466  17.765   1.072  0.0819  0.0417 -0.0282
10238W        W27085   7.094   9.550  16.461  0.2894 -0.2177  0.1186
10239W        W27086   4.435   8.175  15.150  0.0566  0.0276  0.1150
10240W        W27087   2.423  15.328   4.105  0.2723  0.0688  0.1112
10241W        W27088   7.621   6.865  16.150  0.0519 -0.1418 -0.1439
10242W        W27089  10.359   3.446   2.236 -0.2834  0.2088  0.0270
10243W        W27090   0.369   0.661   2.660 -0.3352  0.0648 -0.1876
10244W        W27091  12.309  13.534   0.535  0.0003 -0.0815 -0.2112
10245W        W27092  16.415   6.186   3.804 -0.0385  0.0904  0.0628
10246W        W27093   9.368   5.171  16.789  0.0307  0.0162  0.0061
10247W        W27094   4.612  10.840   1.476 -0.1775 -0.3173 -0.1830
10248W        W27095   3.791   3.385  12.848  0.1210  0.1943 -0.1357
10249W        W27096   5.838   0.739   4.467  0.1647 -0.1449  0.3297
10250W        W27097   1.192   4.173   3.268  0.3668  0.0282 -0.1332
10251W        W27098  11.552  14.745   0.393 -0.0140  0.2366 -0.1287
10252W        W27099   1.426  12.167   1.085  0.1262  0.1335 -0.1880
10253W        W27100   9.924   3.391  14.333  0.0461 -0.2303  0.1823
10254W        W27101   0.941   1.532   2.951 -0.4317 -0.1279 -0.2232
10255W        W27102   5.896  11.924  15.324 -0.0557  0.4127  0.3695
10256W        W27103   7.390   0.748   5.414 -0.1245 -0.1624 -0.2310
10257W        W27104   6.525  17.811   3.204 -0.0405  0.0381  0.0088
10258W        W27105  15.958   8.557  15.180 -0.0245  0.4092  0.0568
10259W        W27106   5.539   8.650  16.228  0.2020 -0.0071  0.2871
10260W        W27107   7.406   3.796  12.015  0.3534  0.1348  0.0826
10261W        W27108  16.556   1.097   0.746 -0.1764  0.5227 -0.0488
10262W        W27109  12.212   3.163  13.608  0.0213 -0.0119  0.2565
10263W        W27110  16.758  11.698  14.145 -0.0664  0.0484  0.0063
10264W        W27111   5.314   9.334  16.431 -0.1095 -0.1334  0.0880
10265W        W27112   4.105   6.350   0.961 -0.0070 -0.1060  0.0762
10266W        W27113   7.380   6.751  12.979  0.3274 -0.1263  0.3868
10267W        W27114   2.049   0.826  11.235  0.1322 -0.3743 -0.0435
10268W        W27115  12.223  16.067   1.400 -0.0371  0.2012 -0.0439
10269W        W27116  13.637   5.477  13.703 -0.1556  0.0269 -0.1818
10270W        W27117  12.625   0.102  14.278  0.0021 -0.1884  0.0526
10271W        W27118   8.269  10.611  12.453 -0.1569  0.2208  0.1338
10272W        W27119  16.659   6.041   4.266  0.1281  0.0914  0.2959
10273W        W27120   8.318  16.838   0.079 -0.3611  0.0770 -0.0775
10274W        W27121   2.320  13.938   3.445 -0.0346 -0.1571  0.0784
10275W        W27122  14.281   5.064  13.075 -0.0336  0.0669  0.3937
10276W        W27123   6.982  12.104   0.292 -0.0604 -0.0605 -0.1742
10277W        W27124   4.499   6.253   4.383 -0.2777 -0.1915 -0.2216
10278W        W27125   3.840   0.823  15.029 -0.0222  0.1424  0.0798
10279W        W27126  15.773   6.156  12.372  0.3198  0.1802  0.2766
10280W        W27127  11.879  16.038   2.953 -0.2388 -0.0747 -0.0277
10281W        W27128   2.344   6.306   4.682  0.3059  0.0050 -0.0172
10282W        W27129  10.480   2.400  15.830  0.0816  0.0134 -0.0192
10283W        W27130   8.790   4.517   4.480 -0.0792  0.3250 -0.1069
10284W        W27131  16.859  14.095  15.245 -0.1822 -0.1861  0.2330
10285W        W27132   2.283  10.219  13.628  0.1892  0.2445  0.0103
10286W        W27133   2.806   3.716   0.665 -0.0554 -0.1701 -0.0874
10287W        W27134   2.452  11.243   3.382 -0.2963  0.0991 -0.1175
10288W        W27135  12.927  11.928   3.842 -0.1271  0.2382  0.3915
10289W        W27136   2.698   3.450  13.220  0.2626  0.1855  0.3959
10290W        W27137  14.403  13.413   2.383 -0.4865 -0.2567 -0.1192
10291W        W27138  17.356   7.624  13.859 -0.1740  0.1221 -0.0018
10292W        W27139  15.079  14.831  16.043 -0.0213  0.1807  0.0130
10293W        W27140  11.192   4.389  14.614 -0.0212 -0.0659  0.1781
10294W        W27141   8.068  10.380  11.987 -0.1947 -0.2875 -0.2467
10295W        W27142  11.774  10.196   1.012  0.1587 -0.0655 -0.0232
10296W        W27143  16.629   7.657   3.323  0.1054 -0.1643 -0.1937
10297W        W27144   0.764  12.177   2.513  0.2800 -0.0094 -0.0998
10298W        W27145   4.178   8.136  13.341  0.0210  0.1361 -0.0237
10299W        W27146  14.540  15.910  12.731 -0.1475 -0.4329 -0.1047
10300W        W27147   8.502   7.704   4.397  0.1311  0.0083 -0.2369
10301W        W27148  15.907   5.199  12.388 -0.1722 -0.2064 -0.1032
10302W        W27149  15.830   3.890   1.847  0.0691 -0.0117  0.0735
10303W        W27150  11.337  11.926  15.254  0.1601 -0.2196  0.2781
10304W        W27151   2.058   6.398   0.647 -0.0539 -0.0154 -0.0223
10305W        W27152  15.646  16.398   6.371  0.0399 -0.0340  0.1052
10306W        W27153   3.231   5.893  14.521  0.0065  0.1460 -0.0854
10307W        W27154  15.603  14.276   1.409  0.0587 -0.4169  0.0714
10308W        W27155   5.534   0.657   1.427 -0.3147 -0.1091 -0.4065
10309W        W27156  14.041  10.418   6.204  0.1280  0.0173  0.1571
10310W        W27157   4.486  12.241   6.037 -0.0216  0.0926 -0.2610
10311W        W27158   0.729   6.888  13.506  0.2292  0.2995  0.1442
10312W        W27159  11.382   3.802   3.470 -0.1073  0.1026  0.2488
10313W        W27160  13.671   9.961  16.273  0.0152 -0.2497 -0.0599
10314W        W27161   6.757   1.539  15.337 -0.0206 -0.0349 -0.0231
10315W        W27162  14.478   8.204  12.711 -0.1081  0.0644  0.0613
10316W        W27163   6.502   2.891   4.929  0.0192 -0.1511 -0.0083
10317W        W27164  17.007  16.346   4.497  0.0244 -0.3090 -0.1041
10318W        W27165  15.617   7.357  13.968 -0.0675 -0.0423  0.0414
10319W        W27166  15.385   9.082  13.857  0.1111  0.1529  0.1743
10320W        W27167   5.855   2.345   3.117  0.1111  0.1913  0.0531
10321W        W27168  17.614   5.121  10.659 -0.0503  0.0822  0.0357
10322W        W27169   9.576  16.614   0.066  0.1251 -0.1225  0.0115
10323W        W27170  10.855   9.398   0.010  0.1430  0.0537  0.0593
10324W        W27171  13.399  12.758   2.747  0.1756 -0.3407 -0.3318
10325W        W27172   9.206  11.841   2.119  0.1237  0.2383 -0.2650
10326W        W27173  11.074   0.130  12.089 -0.0643  0.1174  0.1119
10327W        W27174   4.969   4.461  15.304 -0.0817 -0.3581  0.2075
10328W        W27175   0.598   8.844   0.014  0.0477 -0.0235  0.1180
10329W        W27176  17.767   9.128  13.362  0.3193 -0.0088 -0.1403
10330W        W27177   6.209  10.706   1.073  0.0588  0.0512  0.2912
10331W        W27178  14.189   5.909   2.223  0.3385 -0.1060 -0.1021
10332W        W27179   6.130   2.655   4.541  0.1545 -0.0634 -0.5181
10333W        W27180   0.975   0.960  13.327 -0.2985 -0.2316  0.1196
10334W        W27181   0.153  12.437  15.062  0.1169  0.1050  0.2433
10335W        W27182  15.474   5.445   3.860  0.2752  0.0610 -0.1688
10336W        W27183   3.841  15.672  13.735 -0.0859 -0.4223  0.0868
10337W        W27184   3.508  14.969   2.834 -0.1185  0.2706 -0.2729
10338W        W27185  10.804   9.549   5.387 -0.0479 -0.0198 -0.2046
10339W        W27186   1.272   6.062   0.632  0.4361  0.0972  0.1510
10340W        W27187  16.248   0.686   4.845  0.2760  0.2515 -0.0364
10341W        W27188   7.834   2.308   5.585  0.1723 -0.0955  0.0610
10342W        W27189   7.689  11.815   3.027  0.2222 -0.1671  0.4522
10343W        W27190  10.171   8.051   0.429  0.0264 -0.3020 -0.2895
10344W        W27191   0.608  12.764   6.276  0.1938  0.1413  0.0426
10345W        W27192   2.558   2.007  15.431 -0.3358  0.0358 -0.0201
10346W        W27193  15.890   7.757   5.358 -0.0302 -0.3242  0.2468
10347W        W27194   1.415  16.789  13.584 -0.0107 -0.0023  0.0897
10348W        W27195   7.310  16.385  14.675  0.3025 -0.3178 -0.0128
10349W        W27196   2.750  11.078  12.649 -0.1587 -0.0181 -0.0661
10350W        W27197  11.671   8.721  16.539  0.1326 -0.0121 -0.0999
10351W        W27198  11.807   5.027  15.018 -0.1338  0.0395  0.5212
10352W        W27199   9.968  11.601   3.456  0.2505  0.0469  0.1578
10353W        W27200   6.400  11.415   2.379 -0.1491 -0.1004  0.0184
10354W        W27201   7.220  10.343   4.736 -0.0316 -0.1692 -0.2179
10355W        W27202  17.081  12.780   4.853 -0.2512  0.0126 -0.0409
10356W        W27203   9.371   5.349   4.803  0.2060 -0.1511  0.0629
10357W        W27204   8.670   3.407   2.908 -0.0717 -0.2061 -0.0793
10358W        W27205   6.752  12.871   2.172  0.1749 -0.2846 -0.0557
10359W        W27206  12.072  13.336   1.522 -0.0205  0.0937 -0.2103
10360W        W27207  15.836   1.813   5.286  0.1287 -0.2195  0.0009
10361W        W27208   4.004  15.780   1.731  0.1805  0.1035  0.6117
10362W        W27209   4.949  16.828  11.803  0.0294  0.1641  0.1495
10363W        W27210   7.110  13.600  15.061  0.2990  0.1410  0.2437
10364W        W27211   2.300  16.699   4.660  0.1221  0.0730 -0.2361
10365W        W27212  11.265   5.279   4.541 -0.1673 -0.0481 -0.0825
10366W        W27213  14.248  13.679   0.943  0.1603  0.0126  0.2183
10367W        W27214   8.966   9.671   1.164 -0.1722  0.0661  0.0169
10368W        W27215   2.219   5.778   2.753  0.1653  0.2333 -0.0396
10369W        W27216  12.619   9.621   3.493  0.0689 -0.2093  0.0051
10370W        W27217  12.611   5.917   4.902 -0.1291 -0.0113 -0.0155
10371W        W27218  13.445   2.967  13.442 -0.1976  0.0511  0.0605
10372W        W27219  15.721   6.231  15.018 -0.1847 -0.3725  0.2267
10373W        W27220  10.311  13.823   1.259  0.3546 -0.1344  0.0116
10374W        W27221   9.905   9.054   4.661 -0.4035  0.1108 -0.0984
10375W        W27222   7.172   5.612  11.632 -0.0474 -0.0287  0.1811
10376W        W27223   5.576   5.936   4.107 -0.2574 -0.0467 -0.0295
10377W        W27224  17.250   9.645   5.148 -0.1465 -0.3423  0.0133
10378W        W27225   8.079  12.709  13.195  0.2872  0.1020  0.0009
10379W        W27226   4.025  10.603  16.441  0.0638  0.0514 -0.0539
10380W        W27227   1.814  14.724  13.649 -0.0085  0.1076  0.1235
10381W        W27228   2.731   8.015   3.937 -0.1052  0.0887 -0.0419
10382W        W27229   9.695   3.123  11.790 -0.3070  0.0947  0.1774
10383W        W27230   8.014   6.201  14.521  0.1678  0.1816  0.2625
10384W        W27231  16.054  11.497  11.913  0.0458  0.0075 -0.1119
10385W        W27232  13.489  13.326  12.050  0.1806 -0.0855  0.1826
10386W        W27233  17.539  10.323  13.256 -0.3022 -0.2897  0.1034
10387W        W27234   7.537  13.595   4.847 -0.1919 -0.0122 -0.0295
10388W        W27235  13.437   3.286   1.675  0.0881 -0.2238 -0.0437
10389W        W27236  12.094  12.001  16.444 -0.0221 -0.0037  0.0061
10390W        W27237   8.068   2.716  13.524 -0.0198 -0.1959 -0.0326
10391W        W27238  12.080  13.345  16.052  0.2201 -0.4877  0.0434
10392W        W27239  15.594   0.580  14.376 -0.2021 -0.0000  0.0574
10393W        W27240  10.038  12.131   0.336  0.1145 -0.0917 -0.2273
10394W        W27241   6.133   1.591  13.514  0.2946 -0.0177 -0.0811
10395W        W27242   0.773  13.907  10.957  0.1111  0.0901  0.1775
10396W        W27243   7.354   0.226   2.712  0.1007  0.0392 -0.0616
10397W        W27244   0.030   7.752   1.656  0.0336 -0.0032 -0.3149
10398W        W27245   9.043  13.547   0.356  0.0474 -0.0801 -0.0328
10399W        W27246   5.292   7.566   4.741 -0.1598  0.2069  0.1775
10400W        W27247   8.818  13.955  14.643  0.1733 -0.2745 -0.1963
10401W        W27248   5.583  12.983  11.831  0.2104 -0.0648  0.1360
10402W        W27249   0.043  17.431  13.670  0.0946 -0.1619 -0.1172
10403W        W27250   5.797   0.211   4.224 -0.1412 -0.0355 -0.1890
10404W        W27251  10.785   5.592  11.540  0.1948  0.1418  0.2718
10405W        W27252  15.659  14.496  15.736 -0.1158 -0.0008 -0.1634
10406W        W27253   6.961  17.910   1.886 -0.1678 -0.2167  0.0435
10407W        W27254  15.040   7.820   0.415  0.1495 -0.2856  0.0671
10408W        W27255  10.331   7.133  11.662 -0.1338 -0.1864  0.1017
10409W        W27256   0.560  14.337   3.833 -0.0697 -0.0447 -0.1742
10410W        W27257  15.053   3.316  14.653  0.2356 -0.2906  0.2249
10411W        W27258   9.880   3.031   3.582  0.2079 -0.1431 -0.1301
10412W        W27259  14.129   2.425   5.107  0.1621 -0.0022 -0.1038
10413W        W27260   8.098  15.692   1.198 -0.0350  0.3163 -0.0525
10414W        W27261  15.437   0.957   5.649  0.0088 -0.0890  0.0034
10415W        W27262  17.602  17.129   4.080 -0.0300 -0.0541 -0.1338
10416W        W27263   2.235   6.549   2.565  0.1103  0.1319  0.2428
10417W        W27264  16.277   3.754   5.624 -0.0668  0.2541  0.1002
10418W        W27265   0.899  11.404   3.431 -0.0161 -0.0611 -0.0408
10419W        W27266   1.597  10.838   3.377  0.3382  0.3805  0.1160
10420W        W27267   0.183   5.053   3.269  0.2843  0.0259 -0.1557
10421W        W27268   9.719   7.117  12.311 -0.0084  0.0115 -0.0841
10422W        W27269   0.941  17.759  11.896 -0.3183 -0.0517  0.2715
10423W        W27270   4.623   4.824  15.314 -0.1499  0.1108 -0.2480
10424W        W27271  12.833   7.052   1.741 -0.1468 -0.2044 -0.0648
10425W        W27272  12.320   1.636  15.284 -0.1299  0.0100  0.0811
10426W        W27273   3.416   0.906   2.369 -0.0693  0.0777  0.0121
10427W        W27274  17.619   9.990   2.973 -0.1220 -0.0919  0.0799
10428W        W27275  11.343   8.696  14.442 -0.1165  0.0767 -0.0491
10429W        W27276   1.630   1.805  16.100 -0.1287  0.1493  0.0055
10430W        W27277   2.734   8.800  12.622 -0.1199  0.0325 -0.0204
10431W        W27278   4.765  16.195  12.263 -0.0815  0.0356  0.0161
10432W        W27279   0.284  13.444  12.889 -0.1913  0.2318 -0.0203
10433W        W27280   5.203   4.945  15.099 -0.0501  0.2204  0.0151
10434W        W27281   5.758  16.255  14.833 -0.2800  0.3008 -0.3238
10435W        W27282   9.737   4.762  12.610 -0.0129  0.1374  0.1217
10436W        W27283   1.824  12.652  16.449  0.1238  0.2089  0.1232
10437W        W27284   8.355   0.222   2.979  0.4806 -0.3755  0.1373
10438W        W27285   1.925  17.571   3.906 -0.0938 -0.2004  0.0979
10439W        W27286  10.811  11.973  15.265 -0.1965 -0.1602  0.1024
10440W        W27287   6.591  16.252  16.382 -0.0721  0.1853  0.1314
10441W        W27288  14.020  12.361   1.502 -0.1935  0.0737 -0.1969
10442W        W27289  13.891  10.109  15.040  0.0540  0.2115 -0.0464
10443W        W27290   4.803   2.728   0.622 -0.0778  0.1322 -0.3817
10444W        W27291   9.811  11.400   5.175  0.2599  0.1034  0.1158
10445W        W27292   7.475   1.403   3.640 -0.2074 -0.3968  0.0665
10446W        W27293   9.293   0.262  16.671  0.1363  0.0712 -0.1612
10447W        W27294   4.872  15.617   3.627 -0.2286 -0.1285 -0.1320
10448W        W27295   3.920   9.731   0.122  0.2190  0.0617  0.2798
10449W        W27296  13.267   2.083  13.485  0.0710 -0.0529 -0.0085
10450W        W27297   6.842  10.246   1.472  0.1535 -0.0274  0.0419
10451W        W27298   0.789  17.454  16.790 -0.1714 -0.0936  0.1744
10452W        W27299   3.257  12.009   4.482  0.2705  0.0746 -0.0879
10453W        W27300   1.118   8.109  14.441  0.0691  0.0102 -0.2037
10454W        W27301   5.952   9.042   1.220  0.0145 -0.0456  0.1287
10455W        W27302   4.012  11.119  15.620  0.0731  0.1995 -0.0828
10456W        W27303   3.874  13.118   3.495  0.2710 -0.3356 -0.0530
10457W        W27304  12.999   1.498   2.561  0.0457  0.1934  0.2726
10458W        W27305  17.682  16.412   5.749 -0.2090 -0.2062 -0.5418
10459W        W27306   3.313   7.173  16.474  0.5010 -0.0463 -0.1358
10460W        W27307   5.777  15.726  14.635  0.0196  0.1287 -0.0114
10461W        W27308  13.185  14.225   1.445 -0.1000 -0.0035  0.3290
10462W        W27309   0.393  13.120   0.488 -0.0650 -0.0433 -0.0516
10463W        W27310  11.707  12.465   3.257 -0.1080 -0.2706  0.1330
10464W        W27311   2.681   7.097  13.271  0.1456  0.0241  0.1691
10465W        W27312   4.753   5.940  15.114 -0.4033  0.2652  0.2709
10466W        W27313  16.877  15.810   0.381  0.0773  0.0322  0.1155
10467W        W27314   2.024   0.495   3.201 -0.0824  0.0450 -0.2018
10468W        W27315   7.339   0.376   1.525  0.0367  0.0470 -0.0194
10469W        W27316  11.208   8.407  16.703 -0.0184 -0.0932  0.0088
10470W        W27317   1.908  14.407  12.870  0.2689  0.1875 -0.0480
10471W        W27318  10.197   0.898  14.754  0.3854  0.1182  0.2073
10472W        W27319   8.303  12.002  15.126 -0.2272  0.0372 -0.3081
10473W        W27320   5.673   8.275  13.982  0.5484 -0.0215  0.0879
10474W        W27321   7.546  10.709   1.264  0.0759 -0.2904 -0.0343
10475W        W27322   9.415   3.718  13.174 -0.1999 -0.1247  0.0622
10476W        W27323   6.105   6.926   5.968  0.0932 -0.1623 -0.1523
10477W        W27324   4.983   5.303   0.750  0.3701  0.1686 -0.0778
10478W        W27325  11.366   6.927   5.022 -0.0258 -0.1303 -0.1754
10479W        W27326  11.583  13.838   0.380  0.3107  0.1778 -0.0381
10480W        W27327   4.121  10.712  14.351 -0.2863 -0.0694  0.2233
10481W        W27328  13.994   5.605  14.071 -0.0729 -0.2555  0.2150
10482W        W27329   4.490  14.017  11.841 -0.2120  0.0223  0.2573
10483W        W27330   6.217   1.788   1.561 -0.0770  0.0844  0.2274
10484W        W27331   5.761  11.882   1.326 -0.3915 -0.2103  0.1978
10485W        W27332  11.069  17.265  13.522  0.0762  0.1863 -0.0336
10486W        W27333   8.803  12.160   0.528  0.3296  0.1553  0.1732
10487W        W27334  10.785  14.809   5.571 -0.3412 -0.3266 -0.0840
10488W        W27335  10.352  14.067  12.280 -0.0587  0.0105  0.4061
10489W        W27336   9.525   6.642  12.498  0.1151 -0.3884  0.1503
10490W        W27337  16.988   7.466  13.512  0.0236  0.0348 -0.0699
10491W        W27338  12.361   6.907  13.384 -0.3629 -0.1075 -0.1078
10492W        W27339   5.985  17.287  13.087 -0.0389  0.2808  0.2854
10493W        W27340   5.107   5.577  15.201 -0.0557  0.2114 -0.2096
10494W        W27341   9.284  16.333   1.913 -0.2964  0.1504 -0.2607
10495W        W27342   4.368   3.781   3.275 -0.0928  0.1456 -0.3172
10496W        W27343  11.690   3.651  13.566  0.0699  0.1516  0.0220
10497W        W27344   9.458  11.726   6.593  0.5495 -0.2748 -0.0863
10498W        W27345  13.492   4.367   5.266  0.1885 -0.2766  0.1803
10499W        W27346   4.011   3.859  12.351  0.0750 -0.0114  0.2825
10500W        W27347  13.938  15.869   6.031 -0.0853  0.1317  0.1113
10501W        W27348   2.918  13.514  15.652  0.4019  0.0858 -0.2605
10502W        W27349  15.022   0.449   2.366 -0.1119 -0.1680 -0.1144
10503W        W27350   5.996  17.826  13.057  0.2035  0.0612 -0.2963
10504W        W27351  14.551   6.618  12.487  0.3770  0.1045  0.3151
10505W        W27352  17.001  14.851  11.935 -0.0070  0.3204  0.0593
10506W        W27353   6.376  16.319  14.745  0.2931  0.0629 -0.0661
10507W        W27354   9.196   4.771   0.178 -0.0894 -0.1235 -0.1641
10508W        W27355   7.523   8.634   2.935  0.0311 -0.1537  0.0810
10509W        W27356   1.559  14.931   5.187  0.0646 -0.1741 -0.1270
10510W        W27357   8.582   0.381  13.033  0.1008 -0.0633  0.0670
10511W        W27358  10.394   6.185  16.195  0.2359  0.1438 -0.0606
10512W        W27359  10.338  16.467  15.680  0.0584 -0.0423  0.0881
10513W        W27360   1.647   9.468  13.392 -0.1299  0.2312  0.2983
10514W        W27361  10.022  17.178  13.276 -0.0579 -0.1259  0.1473
10515W        W27362   8.176   1.944   0.964  0.0571  0.1375 -0.1926
10516W        W27363   4.831   4.403   1.046  0.1578  0.1955  0.2072
10517W        W27364  16.141  11.513   4.730  0.2448 -0.1885 -0.0655
10518W        W27365  17.012  17.746   4.953 -0.0566  0.1410 -0.0834
10519W        W27366  17.640  17.137  12.291  0.2999 -0.1700 -0.1092
10520W        W27367  14.998  17.847  13.644  0.0053 -0.1886  0.0151
10521W        W27368  11.367   4.140   0.959 -0.0014  0.2363  0.1012
10522W        W27369  10.923   0.618  16.673 -0.2406  0.1059  0.1556
10523W        W27370   2.421   1.809   4.982  0.0981 -0.1878 -0.3527
10524W        W27371  10.748   6.270   3.414  0.0415  0.1663 -0.2099
10525W        W27372   3.360   9.631   2.312 -0.0346 -0.1598  0.0571
10526W        W27373  12.770  11.257  14.536  0.3297 -0.0304  0.2417
10527W        W27374   1.966   2.241  12.578  0.0949 -0.2003 -0.1254
10528W        W27375   7.367   0.997  12.088 -0.0925 -0.1704  0.1851
10529W        W27376   5.650   2.301   0.889  0.2336 -0.2492  0.0900
10530W        W27377  17.512   0.416   1.257  0.2520  0.2887  0.1031
10531W        W27378   4.005   1.102  14.499 -0.1915  0.2231 -0.0741
10532W        W27379   3.611  16.085   1.598  0.3462 -0.1673 -0.0131
10533W        W27380  13.010   4.062  11.690 -0.0595 -0.0597  0.0555
10534W        W27381  13.255   8.350   0.584  0.0268 -0.3121  0.0692
10535W        W27382   2.456   4.305   3.113  0.3354 -0.0095  0.1013
10536W        W27383   2.140   1.593  14.441 -0.2321 -0.0558 -0.2976
10537W        W27384  13.145   4.984   6.346  0.2019 -0.1136  0.0606
10538W        W27385  13.559  15.411  15.939 -0.0125  0.2939 -0.0750
10539W        W27386   6.667   9.954  15.510  0.0943 -0.0744  0.2604
10540W        W27387   4.437   5.708  14.811 -0.3037  0.1837  0.0628
10541W        W27388  16.545  15.009   1.981  0.0541 -0.0696  0.0913
10542W        W27389   9.539   8.998   0.796  0.0815  0.2220 -0.2405
10543W        W27390  11.712   6.613  15.508 -0.0805 -0.2258 -0.2483
10544W        W27391   0.198  16.067   3.314 -0.0501 -0.0668 -0.1978
10545W        W27392  17.049   8.882   5.960 -0.0860 -0.3943  0.3330
10546W        W27393   5.637  11.010  12.393 -0.3288 -0.2484  0.1319
10547W        W27394   1.905   3.835  15.364 -0.1018 -0.4491  0.0227
10548W        W27395   9.395   0.814   1.896  0.1852 -0.2218 -0.3986
10549W        W27396   1.359   7.225   4.645 -0.0511  0.0327  0.3574
10550W        W27397  12.064   3.782   1.631  0.1295  0.2886 -0.0525
10551W        W27398   5.813   6.016  16.163  0.2336 -0.0369  0.0877
10552W        W27399   4.813   6.742   6.296 -0.3744 -0.0624  0.2405
10553W        W27400  11.074  13.117   1.512  0.3609 -0.0657  0.0697
10554W        W27401   0.470   1.198  15.577 -0.0144  0.0811  0.0356
10555W        W27402  14.438  16.878   3.341 -0.1904  0.0041 -0.1655
10556W        W27403   7.790   1.966  13.157 -0.0074  0.1935  0.0510
10557W        W27404   9.810  17.552   5.515  0.1012 -0.2602 -0.2043
10558W        W27405  12.067   2.612   3.157  0.1861  0.1755  0.1400
10559W        W27406   4.467   3.738   4.678  0.2523 -0.2047  0.0520
10560W        W27407  16.871  13.032  13.784 -0.0701  0.0440  0.2918
10561W        W27408   2.212  17.924   3.082  0.1710 -0.2214  0.1268
10562W        W27409  14.976   4.434  14.848 -0.3238 -0.2533  0.1417
10563W        W27410   5.088   3.137   3.399  0.2367  0.0635  0.2499
10564W        W27411   6.720   3.005  11.968 -0.1563 -0.0958  0.0850
10565W        W27412  14.288   6.928  16.334 -0.5529  0.0501 -0.0845
10566W        W27413  15.555   6.491   2.731  0.1672  0.2612 -0.3154
10567W        W27414  12.837   3.849   3.633 -0.2303 -0.1284  0.4312
10568W        W27415   9.266   8.064  15.897 -0.1980 -0.1916  0.0465
10569W        W27416   6.742   7.372  15.305  0.1555  0.0790  0.1954
10570W        W27417   7.344  11.024   5.132  0.0287 -0.0396 -0.1568
10571W        W27418   0.630  16.259   5.271 -0.0556  0.0442 -0.0938
10572W        W27419   0.534   2.020   1.408  0.0251 -0.0939  0.2980
10573W        W27420  15.355  13.031   5.742  0.0474  0.1096  0.1345
10574W        W27421   9.042  15.598  14.236 -0.1395 -0.0742 -0.0536
10575W        W27422   3.762  11.811   2.750 -0.0132 -0.2673 -0.0753
10576W        W27423   1.100   2.963  15.851 -0.1533 -0.2676 -0.1384
10577W        W27424   4.681  15.860  15.740  0.0928 -0.2265  0.1390
10578W        W27425   3.779   7.036  16.260  0.2657  0.2213 -0.0995
10579W        W27426  17.033  14.607  15.127  0.1416 -0.4103 -0.0993
10580W        W27427   4.475  13.499  12.290 -0.0442  0.0110 -0.2089
10581W        W27428  13.736   6.622   1.997  0.1165  0.0348  0.0393
10582W        W27429  10.792  13.279  13.679 -0.0351  0.1610 -0.0107
10583W        W27430   5.670  10.397  12.984 -0.2600  0.3286 -0.2821
10584W        W27431  14.039   9.520   0.156 -0.0237  0.1105  0.1208
10585W        W27432   2.575   4.138  13.167  0.1695  0.0294  0.1544
10586W        W27433   9.903   1.389  11.900  0.1410 -0.0172 -0.1927
10587W        W27434  17.293   8.825   3.826  0.1799  0.3499  0.0626
10588W        W27435  11.645   8.597   4.741 -0.0458  0.2490  0.0029
10589W        W27436   9.937   4.092   0.666 -0.3633 -0.0248  0.1344
10590W        W27437   9.554  10.148  14.420  0.1726  0.0985  0.2667
10591W        W27438  11.091  14.410   2.147  0.0582 -0.1893  0.1971
10592W        W27439  11.396   1.561   4.041  0.0426 -0.0200 -0.1413
10593W        W27440  14.455  16.979   0.121  0.1623  0.1779 -0.0455
10594W        W27441   1.917   2.476   2.360 -0.0673  0.0899 -0.1677
10595W        W27442  11.345   4.198   1.478 -0.1703 -0.0609  0.2519
10596W        W27443   1.775   4.303  12.860 -0.1097  0.3199  0.0871
10597W        W27444   4.334   4.491   2.690 -0.1682 -0.1044 -0.0358
10598W        W27445  12.397  15.824   5.227  0.2502 -0.1256  0.2443
10599W        W27446  17.558   0.066   0.746 -0.1860 -0.0153  0.0948
10600W        W27447  16.643  16.978  14.892  0.2994 -0.1449 -0.1080
10601W        W27448   1.929   8.129   3.248  0.0161  0.1911  0.0450
10602W        W27449  11.220  12.211  11.777  0.0122 -0.0870  0.0643
10603W        W27450   9.809   5.839   4.909 -0.3464  0.0998 -0.3200
10604W        W27451  15.218   8.370   1.204  0.0623  0.5467  0.1511
10605W        W27452   8.843  16.094   1.783  0.1347  0.1640  0.1124
10606W        W27453   1.317   7.515   0.647  0.1933  0.3198 -0.1101
10607W        W27454  12.934   2.577   3.123 -0.2501  0.1434  0.1489
10608W        W27455  17.771  15.349   3.451 -0.3415  0.0796  0.2271
10609W        W27456   0.005  12.809  16.036 -0.0873  0.0144  0.0927
10610W        W27457   9.937   4.444  16.487 -0.2596  0.1188 -0.0169
10611W        W27458   0.136   5.076   3.772 -0.0986 -0.3461 -0.0131
10612W        W27459   2.059   5.825  11.775 -0.0484  0.1178  0.0167
10613W        W27460  11.456   9.166  14.494  0.0178 -0.4075 -0.3050
10614W        W27461  11.896  11.681  12.196  0.4614 -0.0786 -0.4522
10615W        W27462   6.215  11.724   1.101 -0.0123 -0.2702 -0.2607
10616W        W27463  17.612  16.866   0.252  0.0421 -0.0813 -0.4762
10617W        W27464   5.585  17.616   5.343  0.0645 -0.2179  0.0520
10618W        W27465  16.251   0.704  14.953 -0.0209  0.0755 -0.1214
10619W        W27466   1.682   3.424   1.515  0.1795 -0.0428  0.3349
10620W        W27467   7.247   4.040   3.094 -0.1463  0.2588 -0.0250
10621W        W27468  11.823  11.919   4.203  0.1592  0.0107 -0.1321
10622W        W27469  17.016  11.688  12.123  0.0273 -0.1614  0.0750
10623W        W27470   0.557  12.904   4.531 -0.0003  0.0037 -0.1301
10624W        W27471   9.324   4.112   1.410 -0.1263 -0.0206 -0.2882
10625W        W27472   4.802   2.641  15.665  0.2830  0.0435 -0.4360
10626W        W27473  15.987   6.641  16.059  0.2806  0.0539  0.2079
10627W        W27474  14.874  13.931  12.043 -0.1899 -0.0478 -0.2575
10628W        W27475   9.664  14.586   1.183 -0.0372  0.0171  0.0817
10629W        W27476   2.881  17.266  13.313 -0.1214  0.1189  0.0500
10630W        W27477  14.572  14.930   1.283  0.1745  0.1615  0.0710
10631W        W27478   4.998  14.722   3.860  0.0887  0.1573  0.1488
10632W        W27479   8.682   8.720  14.136 -0.1134  0.1810  0.2305
10633W        W27480   2.714   3.984   5.246  0.3683 -0.3340  0.3043
10634W        W27481   9.954   8.985   2.304 -0.3906  0.0083  0.1686
10635W        W27482  17.722   0.589   3.890 -0.0761  0.0527 -0.0560
10636W        W27483  11.649   8.510  15.625 -0.1431 -0.3777  0.0268
10637W        W27484   2.735  11.831  12.845 -0.2595  0.0660  0.1158
10638W        W27485   7.277  11.853   5.888  0.4744 -0.0612 -0.2086
10639W        W27486  13.028  11.876  15.090  0.2250  0.1154 -0.3497
10640W        W27487   9.483   9.192   1.522 -0.2992 -0.0094  0.2109
10641W        W27488   4.763   0.403   4.599 -0.3215 -0.3352 -0.2336
10642W        W27489   7.525   4.478   4.505  0.0428  0.0053 -0.1518
10643W        W27490   3.807  11.424   4.026  0.2268  0.0304  0.0649
10644W        W27491  11.310  17.273  12.649  0.1051  0.2154  0.0353
10645W        W27492  16.773   9.197   0.364  0.1206 -0.2969  0.1415
10646W        W27493   9.478  14.492   4.665  0.1783  0.2285  0.1958
10647W        W27494   4.764  13.926   2.146  0.1323  0.1463  0.0931
10648W        W27495   1.324  10.158  13.513 -0.4604 -0.1446  0.1768
10649W        W27496   4.091   5.143  12.732 -0.0664  0.1059 -0.1346
10650W        W27497   4.498   1.656   1.040 -0.3742 -0.0252 -0.1348
10651W        W27498   5.413   1.475  13.949 -0.0476  0.4369 -0.0141
10652W        W27499   2.967   5.936   0.277  0.1797  0.0315  0.2727
10653W        W27500  15.207  13.233  11.878  0.1557  0.1273 -0.0816
10654W        W27501   0.117   5.633   2.138  0.1988 -0.0612 -0.0366
10655W        W27502   3.114  13.291  14.827  0.0866  0.2491 -0.1873
10656W        W27503  15.747   9.689   2.913 -0.0322  0.2564  0.0471
10657W        W27504  16.107  13.342  13.958 -0.0066  0.2608  0.0422
10658W        W27505   3.266   7.251   4.321 -0.4913 -0.0883  0.1083
10659W        W27506   6.477   1.289  14.342  0.0721  0.2310  0.0287
10660W        W27507  15.131  11.234  12.904  0.1132 -0.0917  0.1401
10661W        W27508  16.043  10.498   1.010  0.0450  0.0271 -0.0725
10662W        W27509  14.232   0.476   2.292  0.2031  0.2338 -0.4208
10663W        W27510   0.046  12.736   0.701 -0.2655  0.0078 -0.4173
10664W        W27511  10.141   8.521   4.142  0.0729 -0.2620 -0.0885
10665W        W27512  17.303   8.353   4.769 -0.4748 -0.3784  0.0695
10666W        W27513  13.773   2.108  15.647  0.1471  0.0368 -0.0121
10667W        W27514   7.433   1.892  12.000 -0.1408 -0.1384  0.1387
10668W        W27515   9.733  13.769   1.150  0.0637  0.1619 -0.0475
10669W        W27516  11.636  12.090  16.676  0.2183  0.2215  0.1280
10670W        W27517  13.339  14.563  13.737 -0.2353  0.1478  0.1965
10671W        W27518   4.099  12.646  14.964  0.0025  0.0890  0.1554
10672W        W27519  16.728  17.155   4.565 -0.0703  0.0510  0.0054
10673W        W27520  13.458  10.416   3.541 -0.2062 -0.0541 -0.1323
10674W        W27521   8.457  13.809   5.669 -0.4280 -0.0451 -0.0163
10675W        W27522  11.573   4.483   4.586  0.2402  0.1698  0.1411
10676W        W27523   4.559  17.688   2.459 -0.2154  0.1620  0.2548
10677W        W27524  13.913   3.001   0.859  0.0052  0.0299  0.0834
10678W        W27525   2.073  11.691   6.065 -0.0767 -0.1949  0.0777
10679W        W27526  16.309   5.839   0.852  0.2682  0.1419 -0.1846
10680W        W27527   3.041   0.629   5.867 -0.2529  0.2822  0.0956
10681W        W27528   7.305  14.422   1.000 -0.0834 -0.0307  0.2498
10682W        W27529  13.206   3.438  13.300  0.0770 -0.1165  0.2697
10683W        W27530   9.847  12.487   4.022  0.1077  0.0742 -0.1666
10684W        W27531   1.113   6.060   4.466  0.3130  0.0143 -0.2084
10685W        W27532   7.029  12.422  16.484 -0.0906  0.0520 -0.0915
10686W        W27533   0.442  16.272   4.163  0.1842 -0.2451  0.1517
10687W        W27534   9.033  14.372   0.573 -0.0265  0.0653  0.0096
10688W        W27535   8.001   3.872   3.454  0.0580  0.0827  0.0631
10689W        W27536  17.067   8.917   2.115 -0.0113 -0.2767  0.4386
10690W        W27537   3.721   9.149  15.491 -0.1648  0.0666 -0.1556
10691W        W27538   4.255  13.267   4.856  0.2122 -0.0206 -0.1606
10692W        W27539   4.175  14.113  14.009  0.2239 -0.0516 -0.0827
10693W        W27540   1.495  14.650  13.197 -0.2684  0.0963 -0.0167
10694W        W27541   2.366   7.423   5.014 -0.0073 -0.2355  0.3844
10695W        W27542  13.617   2.125   3.358 -0.2033 -0.1840 -0.2423
10696W        W27543   4.441  12.567  15.787  0.4246  0.0708 -0.0743
10697W        W27544   6.871   1.444   2.370 -0.2117  0.1371  0.2400
10698W        W27545  12.375   5.570   2.504 -0.0441  0.0422  0.1401
10699W        W27546   3.091  12.844   0.880  0.1704 -0.1444  0.1891
10700W        W27547  10.525  14.515  12.181  0.2319 -0.1213  0.0260
10701W        W27548   0.739  15.180  16.415 -0.0562 -0.0751 -0.2443
10702W        W27549   8.733   9.331  11.609 -0.1039  0.2523  0.2574
10703W        W27550  16.173  17.654  14.294  0.2439  0.1139 -0.1899
10704W        W27551   0.674   8.858  15.398  0.0937  0.0001  0.1502
10705W        W27552  16.463   6.674  15.968  0.1212 -0.0669 -0.0712
10706W        W27553   5.212  11.259  14.840 -0.2496  0.2347 -0.5082
10707W        W27554  12.790   4.008  16.047 -0.2022  0.0737  0.0693
10708W        W27555  11.959   1.182   3.150 -0.1846 -0.0519 -0.2404
10709W        W27556   8.562   9.785  13.451 -0.1349 -0.1462  0.0953
10710W        W27557   9.793  11.984  15.361  0.0092  0.3064  0.1773
10711W        W27558  15.105   8.655  13.379 -0.4064 -0.3119 -0.2527
10712W        W27559   9.841   9.417  16.779  0.0318 -0.1556 -0.3334
10713W        W27560  11.738   8.315   0.513 -0.0842  0.0613  0.0208
10714W        W27561  15.515   2.809   5.133 -0.1253 -0.1696  0.1183
10715W        W27562   1.376   1.608   0.698 -0.4306  0.1671  0.3670
10716W        W27563  10.102   8.904  15.713 -0.0131 -0.1801 -0.1821
10717W        W27564   1.310  16.473  16.021 -0.1091 -0.0957 -0.2017
10718W        W27565  15.594  11.133  12.691 -0.1284  0.0045 -0.0111
10719W        W27566  11.036   8.449   5.875 -0.0168 -0.0130  0.1840
10720W        W27567   4.360   8.504  13.811  0.1223 -0.1199  0.0331
10721W        W27568   1.754   8.563  13.269 -0.3199  0.2582 -0.1695
10722W        W27569   3.734   0.816   3.374 -0.1092 -0.0278 -0.0937
10723W        W27570   9.374   3.052  15.492  0.2625 -0.2858 -0.2653
10724W        W27571  10.910   6.956  14.438 -0.2250  0.2125 -0.3677
10725W        W27572   2.160  15.610  16.476 -0.1237  0.0300  0.0738
10726W        W27573  17.834  11.279   2.607 -0.3686 -0.1636 -0.0482
10727W        W27574  13.518   1.107  13.762 -0.2072  0.0429  0.1693
10728W        W27575  14.508   4.380  12.952 -0.0228  0.0888 -0.1662
10729W        W27576   0.466   1.163  13.204 -0.0858 -0.0253  0.0488
10730W        W27577  15.104  12.838   2.303 -0.1428  0.0623  0.0051
10731W        W27578   6.627   3.857  13.085 -0.2071  0.1072  0.1011
10732W        W27579   6.339   8.410  13.387  0.2167  0.0634  0.4029
10733W        W27580  16.178  10.928  15.305 -0.0227  0.1746  0.0424
10734W        W27581  16.464   0.839   1.643  0.0279  0.0474  0.0177
10735W        W27582   9.717  12.239  14.479  0.0673 -0.2151  0.1950
10736W        W27583   0.249  16.387  12.800  0.2523  0.0664 -0.1651
10737W        W27584   6.820  14.185   4.674  0.1151  0.1419  0.0087
10738W        W27585  13.203  11.549  16.435 -0.2743 -0.1053 -0.0483
10739W        W27586   6.665  17.382   1.104 -0.0510  0.0052  0.0577
10740W        W27587   9.861   7.443  14.053  0.0345  0.1670  0.0196
10741W        W27588   4.145   8.463  11.935 -0.3181  0.1658 -0.0479
10742W        W27589   2.103  12.348   1.870 -0.2638 -0.0473 -0.1576
10743W        W27590  14.125  14.282   3.746 -0.3213  0.0471 -0.0887
10744W        W27591   0.709   4.279  11.751 -0.0129 -0.3322 -0.2376
10745W        W27592   6.141   9.194   5.447  0.0120  0.2886 -0.0266
10746W        W27593   4.451  13.393  16.493 -0.1424 -0.0627 -0.2728
10747W        W27594   0.341   9.315   4.922 -0.1815 -0.0746 -0.0100
10748W        W27595  15.260  13.252   0.225 -0.2090  0.2018  0.3739
10749W        W27596  10.558  17.495  13.467  0.4760  0.0179  0.0000
10750W        W27597  16.048  14.607   5.369 -0.0438 -0.1399 -0.1123
10751W        W27598   0.316   4.580   0.775 -0.1188 -0.0895 -0.1540
10752W        W27599   8.415   8.427  15.085 -0.1037 -0.0904 -0.2199
10753W        W27600  15.355   1.000   1.580 -0.1467  0.0300 -0.2021
10754W        W27601  10.810  14.763  16.577  0.0607  0.2478  0.0366
10755W        W27602   2.796  10.812  15.576 -0.0963  0.2038 -0.1735
10756W        W27603   0.340   0.047   5.489  0.0730  0.0829 -0.3318
10757W        W27604   4.239  12.824   5.585 -0.0431  0.0904  0.4126
10758W        W27605  14.853   8.836   5.481  0.0479 -0.0283  0.1142
10759W        W27606  12.603   2.618  11.339  0.0542  0.0265 -0.0532
10760W        W27607   5.389  11.178  13.323 -0.1079 -0.0674 -0.1309
10761W        W27608   7.396   3.799  14.646 -0.3141  0.1426  0.1180
10762W        W27609   3.696  11.967  15.430 -0.0653  0.0713  0.1390
10763W        W27610  13.645   7.454   0.603  0.1423 -0.0400 -0.1063
10764W        W27611  14.214  12.606  15.634  0.1758 -0.2961 -0.1384
10765W        W27612   1.633  16.461  15.236 -0.1940  0.3973  0.1155
10766W        W27613   5.023   2.390  16.056  0.3525 -0.0294 -0.2884
10767W        W27614   2.063   2.937   3.084 -0.1025 -0.0116 -0.1116
10768W        W27615   6.383  16.609  13.047 -0.2537  0.1595 -0.0554
10769W        W27616   8.805   3.408   4.352 -0.0441 -0.1798  0.2505
10770W        W27617  17.207  13.209  12.716 -0.0700 -0.2225  0.3482
10771W        W27618   7.680  16.005  11.594 -0.2595  0.2011  0.2928
10772W        W27619  10.569   8.686  14.226  0.3506 -0.1161  0.0779
10773W        W27620  12.484  13.222   5.550 -0.1902  0.1908 -0.0043
10774W        W27621   1.152   4.795  12.130  0.0254  0.0369 -0.0183
10775W        W27622  17.695   2.962   0.531  0.1344 -0.0150  0.1528
10776W        W27623   9.687  13.364   1.972 -0.2283 -0.1119 -0.1773
10777W        W27624  16.048  12.427   3.580  0.1880 -0.1928 -0.2475
10778W        W27625  14.663   4.089   2.026  0.0295  0.2065  0.2489
10779W        W27626  13.939   9.439   4.754  0.2543 -0.4779  0.0738
10780W        W27627   0.590  17.919   4.417  0.0200  0.3200  0.2432
10781W        W27628  10.413   2.866  13.172 -0.3305  0.1108 -0.0232
10782W        W27629   1.145  14.464  12.283  0.1219 -0.0779 -0.3457
10783W        W27630  11.493   2.276  16.460  0.2090  0.0217 -0.2577
10784W        W27631   2.238  11.368  14.806 -0.1290  0.2675  0.1160
10785W        W27632  15.940   0.089   2.764  0.0559  0.1338  0.2554
10786W        W27633   1.807   4.810  13.369  0.1559 -0.1301 -0.0110
10787W        W27634  11.810  11.042   4.087  0.0365 -0.2856 -0.2936
10788W        W27635  16.591  11.321   1.229  0.1003  0.1810  0.0954
10789W        W27636   9.787  11.294  14.434 -0.3896 -0.2527  0.2859
10790W        W27637  14.069  14.502  14.539  0.1709 -0.1082 -0.1176
10791W        W27638   7.492   2.500  16.063 -0.0660  0.1030 -0.1455
10792W        W27639   7.642  16.341  16.734 -0.0126 -0.0833  0.0131
10793W        W27640   4.537   8.761  15.798  0.0361 -0.1188 -0.1600
10794W        W27641   7.533  17.664   0.503 -0.0437 -0.1838 -0.2885
10795W        W27642  12.851   9.754   5.145  0.0138 -0.4794 -0.0175
10796W        W27643  16.638   6.389  15.576 -0.1587 -0.1443 -0.1404
10797W        W27644   9.796   0.868  11.730 -0.1818 -0.1739 -0.0583
10798W        W27645  11.022  17.378   0.944 -0.2880  0.1877  0.2878
10799W        W27646   5.866  17.774   2.391  0.1712 -0.0404  0.0930
10800W        W27647   3.098  13.025  13.367  0.0672 -0.1490  0.0332
10801W        W27648  17.134  12.822  15.527 -0.1517  0.2328  0.1292
10802W        W27649   8.443  16.935  13.231 -0.1341 -0.1071 -0.1107
10803W        W27650  14.220  12.487  16.509  0.0782  0.0832 -0.1654
10804W        W27651   4.303  11.146   4.704  0.0213 -0.5258  0.0809
10805W        W27652   9.152  12.766   2.301 -0.1882 -0.0053 -0.0295
10806W        W27653  12.194  12.070  15.487 -0.0491  0.0602  0.2355
10807W        W27654  16.145   9.825  16.635 -0.1565  0.0099 -0.3618
10808W        W27655   2.029   0.925   3.459  0.3456 -0.0301  0.0997
10809W        W27656  11.399   6.680  13.225 -0.0325  0.0239 -0.2240
10810W        W27657   9.778  17.043  16.123 -0.1020 -0.1450  0.5158
10811W        W27658   8.509  16.486   2.134  0.1553 -0.0431  0.1502
10812W        W27659  11.228  11.657   2.511 -0.0192 -0.0470  0.0914
10813W        W27660   9.441   8.140   3.115 -0.1895 -0.2645 -0.1294
10814W        W27661  11.518   4.928  14.563 -0.0128 -0.6227  0.2428
10815W        W27662  14.263   0.122   0.536 -0.1431 -0.0585  0.0911
10816W        W27663   1.464   1.246  14.529 -0.1169  0.0437 -0.0304
10817W        W27664  12.145   4.952  12.900  0.0534 -0.0305  0.4840
10818W        W27665   4.160   8.822  16.466 -0.0569 -0.1594 -0.0410
10819W        W27666   0.797   5.353   4.559 -0.3773  0.1216 -0.2718
10820W        W27667   0.992  17.382  11.533 -0.2463 -0.1507  0.0393
10821W        W27668   6.017  10.434   2.434  0.3142 -0.0731  0.0628
10822W        W27669   1.353   6.919   1.563 -0.0352 -0.0873  0.1407
10823W        W27670  12.542  14.651  14.755 -0.0866  0.0498  0.0263
10824W        W27671   0.194  12.822   4.969 -0.0082 -0.2599 -0.0918
10825W        W27672   1.694  10.356  14.974  0.1363 -0.1882  0.2933
10826W        W27673   0.038   5.300   2.787 -0.1146  0.4526  0.0787
10827W        W27674   9.369   0.384  11.237 -0.2561 -0.1291  0.1731
10828W        W27675   7.568   2.343   2.957 -0.0398  0.1967  0.2304
10829W        W27676   8.233   3.657  12.410 -0.1153 -0.0435  0.0959
10830W        W27677   5.238   8.570  15.136 -0.2792  0.0937  0.2637
10831W        W27678   8.291  10.251   4.436  0.1520 -0.2688 -0.1046
10832W        W27679  11.961   5.580   2.142 -0.1020  0.0876  0.0520
10833W        W27680   9.433  14.062  12.138  0.0507 -0.1257 -0.1642
10834W        W27681   7.187   9.451   1.372 -0.0003  0.3947 -0.2473
10835W        W27682   6.539   7.901   1.565  0.0339  0.3825 -0.0070
10836W        W27683  12.679  11.785   0.404 -0.1638 -0.1381 -0.0572
10837W        W27684  17.354  16.668  16.108  0.0097 -0.2962  0.2160
10838W        W27685   8.922  16.608  12.458 -0.0748  0.2244  0.0070
10839W        W27686  12.047   8.898   5.615 -0.1093 -0.3674  0.4521
10840W        W27687   2.736  13.710   5.736  0.1798 -0.2841  0.1413
10841W        W27688  13.115   2.462   4.914 -0.0341 -0.2860  0.0270
10842W        W27689   9.900   6.350  15.112 -0.2491 -0.1300 -0.3143
10843W        W27690   6.994  14.748   1.213  0.2426 -0.1471 -0.2136
10844W        W27691  14.293  12.472  13.382  0.0177  0.1294 -0.0390
10845W        W27692  17.306   6.884   5.731  0.1788  0.2189  0.1661
10846W        W27693   2.558   6.884   2.333  0.3866  0.0982 -0.0326
10847W        W27694   2.388   6.280  15.345  0.2881 -0.3271 -0.2669
10848W        W27695   5.784   1.440   3.182 -0.1130  0.3582  0.1302
10849W        W27696   1.700  14.696  14.516 -0.1814  0.1866 -0.3894
10850W        W27697  11.175  16.207  14.917  0.4777 -0.0098 -0.1846
10851W        W27698  14.234  15.715  14.897  0.2407 -0.1594  0.2022
10852W        W27699   4.116  11.957   4.136  0.3076 -0.3133  0.1482
10853W        W27700   8.602   9.684   5.749  0.2167 -0.1175  0.0774
10854W        W27701   9.020  12.399  11.857  0.0210 -0.1228 -0.1524
10855W        W27702  16.064   4.762   0.564  0.1307 -0.2476 -0.2158
10856W        W27703   7.595  15.737  13.987  0.0877  0.1580  0.0257
10857W        W27704  13.882   3.897  13.638 -0.2685 -0.0828 -0.0671
10858W        W27705   5.401  12.010   4.493  0.2172 -0.4245 -0.3200
10859W        W27706   0.709  17.103  14.217  0.1603  0.0904  0.0160
10860W        W27707  12.677   6.739   2.122 -0.1034  0.0849  0.1405
10861W        W27708  13.070  16.626  15.880  0.0670 -0.2233 -0.3868
10862W        W27709  15.260  12.418  15.397  0.5366  0.0586 -0.3040
10863W        W27710   7.147  17.590  11.125  0.1862  0.0203  0.2363
10864W        W27711   2.064  16.094   2.564  0.0187 -0.1352 -0.1524
10865W        W27712  16.198   6.558  13.328  0.0404  0.1220  0.1102
10866W        W27713   4.377  17.857   1.828 -0.0491  0.3662 -0.3120
10867W        W27714   7.111   4.128   0.079 -0.0369 -0.2765 -0.0785
10868W        W27715   3.282   9.971  11.947  0.2478 -0.2487  0.3909
10869W        W27716  16.128  10.503  16.746 -0.5810 -0.0496 -0.2374
10870W        W27717  15.860   2.810  14.830 -0.0719 -0.1676 -0.1842
10871W        W27718   7.050   3.126  11.495 -0.0273  0.0929 -0.1050
10872W        W27719   5.471   5.104   4.536  0.0391  0.0105  0.2187
10873W        W27720   3.912   0.363  16.637  0.1815 -0.0064  0.1159
10874W        W27721  10.744   8.575  11.589  0.3213 -0.0343 -0.0132
10875W        W27722  11.705  15.773   5.222  0.3602 -0.0832 -0.1171
10876W        W27723  13.186   6.839   5.732  0.2033  0.0272  0.1447
10877W        W27724   8.358   1.549   4.252  0.2085 -0.2528 -0.1501
10878W        W27725  17.551  10.994   4.079  0.2895 -0.1641  0.3904
10879W        W27726  15.636  15.434  14.807  0.0303 -0.5422  0.0049
10880W        W27727   2.879  14.525  14.798  0.0831  0.0892  0.4817
10881W        W27728  16.257   1.659  10.433 -0.2559 -0.2154 -0.0478
10882W        W27729  15.600   2.709   3.049  0.0414 -0.0532 -0.0379
10883W        W27730  15.846  17.681   3.779  0.0858 -0.1687  0.2365
10884W        W27731   0.946  17.479  15.825 -0.0279  0.3240  0.1295
10885W        W27732   6.089  17.776   4.110 -0.0490 -0.0382  0.0245
10886W        W27733  17.354   4.594   4.337  0.3474 -0.1965  0.1401
10887W        W27734  10.475   5.878  12.400  0.1232 -0.3833 -0.1960
10888W        W27735  13.297  11.915  14.224  0.3497 -0.3549 -0.1627
10889W        W27736   3.419   3.467  12.336 -0.2925 -0.0699 -0.0397
10890W        W27737   8.910   4.450  13.851 -0.0232  0.2517  0.0547
10891W        W27738   2.870   4.681  12.030  0.0698  0.1900  0.2970
10892W        W27739  10.375   2.483  15.365 -0.0592  0.2253 -0.0581
10893W        W27740   4.148   8.007   0.561  0.0766  0.0524  0.1752
10894W        W27741  12.408  16.943  13.464 -0.1465  0.1254 -0.2484
10895W        W27742   7.564   3.964   1.754  0.1732  0.0079  0.3200
10896W        W27743   1.931   3.399  15.570 -0.0848 -0.1404  0.3771
10897W        W27744   5.302  13.391   3.435  0.3152 -0.1442 -0.2896
10898W        W27745  14.245   3.173  12.178 -0.2420 -0.0182  0.0391
10899W        W27746   0.494   9.078  14.847 -0.1316 -0.0847  0.0380
10900W        W27747  17.307  11.087   5.672 -0.1999  0.3278 -0.0996
10901W        W27748  17.816   7.822  13.777  0.1882  0.3019  0.0382
10902W        W27749   9.358  11.230   6.488  0.1555  0.1429  0.2241
10903W        W27750   5.171   6.173   0.786 -0.0074 -0.1449  0.1046
10904W        W27751   2.317  16.142   4.058  0.1734 -0.1925  0.1152
10905W        W27752   7.690  17.910   4.895 -0.0771 -0.0956  0.1368
10906W        W27753  14.338  12.828  12.941 -0.0007 -0.5025 -0.1033
10907W        W27754   0.768   6.310  11.549 -0.2020  0.0996  0.3404
10908W        W27755   8.050  14.200  13.717 -0.0643 -0.1379 -0.0475
10909W        W27756  13.538   9.861  13.721  0.0486 -0.2502 -0.1517
10910W        W27757   0.549   0.576   4.729  0.4699  0.0267 -0.1145
10911W        W27758  17.637  13.606  14.105  0.2042 -0.0530  0.0382
10912W        W27759  15.623   4.575   3.050 -0.4033 -0.0296  0.2962
10913W        W27760  16.956   6.844  16.106 -0.2212 -0.4131  0.0729
10914W        W27761  14.291   2.931   0.546 -0.2087 -0.3083  0.0738
10915W        W27762   3.882   7.707  11.514  0.0807  0.0811 -0.1093
10916W        W27763  10.684   5.186   2.586 -0.3188  0.2217  0.1598
10917W        W27764   2.637  13.138  11.968 -0.2568 -0.0830  0.2049
10918W        W27765   3.644   7.193   4.028  0.0626 -0.0940  0.1263
10919W        W27766   8.009   3.001   4.089 -0.1275 -0.1052 -0.3526
10920W        W27767   8.982   3.642   3.216 -0.3127  0.0549  0.0835
10921W        W27768   4.025   2.087   0.315 -0.0885  0.0011  0.0433
10922W        W27769  12.107   3.164   2.859  0.1480 -0.1238  0.2012
10923W        W27770   7.743   5.459   2.883 -0.0910 -0.1732  0.0249
10924W        W27771   2.037   4.231  14.218  0.3458 -0.0549  0.2950
10925W        W27772   6.769  16.365  11.464  0.0750 -0.1275  0.0508
10926W        W27773   0.519   6.566   2.067  0.2008 -0.1042 -0.0024
10927W        W27774  17.651  12.393  16.289 -0.1093  0.0524 -0.3984
10928W        W27775   7.465   4.872   2.443  0.1683  0.4047 -0.2924
10929W        W27776   1.187  10.411  16.307  0.0384  0.1222  0.0041
10930W        W27777   9.950   3.491  13.856 -0.2489  0.0634 -0.0086
10931W        W27778  14.889   7.337  15.721 -0.2775  0.1259  0.1007
10932W        W27779   0.543  13.037   2.993  0.2799  0.3583 -0.2655
10933W        W27780  11.784  16.828  13.446 -0.0544  0.1367 -0.0724
10934W        W27781   4.331  13.173   2.834  0.1742 -0.1971 -0.0835
10935W        W27782   3.566  11.740   5.730 -0.1035 -0.0401  0.0444
10936W        W27783   3.050  13.188  12.886 -0.0846  0.0615 -0.1265
10937W        W27784   1.977  10.702  11.693  0.1077 -0.0109  0.0734
10938W        W27785  15.127   2.805  16.489  0.1153 -0.2049  0.1139
10939W        W27786  16.290  11.869   0.164  0.2147 -0.1406 -0.0351
10940W        W27787   6.432   2.013   3.882  0.2500 -0.3117  0.2956
10941W        W27788   6.076   3.207   3.675  0.1382 -0.1131 -0.3825
10942W        W27789   7.753   9.789   0.125  0.0397 -0.0405 -0.4158
10943W        W27790   6.876   8.924   2.037 -0.0122  0.0131  0.0927
10944W        W27791   5.677  17.118  15.123 -0.0410  0.0707  0.1123
10945W        W27792   0.886  16.193   1.957  0.0492 -0.2335  0.0441
10946W        W27793   6.658   6.502   5.426 -0.1926  0.1167 -0.1614
10947W        W27794   9.236  13.060   4.091 -0.1016  0.2553  0.1994
10948W        W27795   9.545  13.408   3.111  0.1471 -0.1387  0.2044
10949W        W27796   1.995   7.993  14.470  0.1148  0.2925 -0.0118
10950W        W27797   4.681  16.395   1.317  0.1213 -0.0441 -0.0748
10951W        W27798  16.913  14.468   4.336  0.0503 -0.1507  0.0267
10952W        W27799  15.080   8.736  15.270  0.2546  0.1169  0.1331
10953W        W27800  11.212   4.119   4.893  0.1567  0.2197  0.1132
10954W        W27801   2.713   8.058  13.888  0.2476  0.0249  0.1901
10955W        W27802  16.859  12.315   3.233 -0.1517  0.0195  0.1098
10956W        W27803   3.651  10.487  14.306  0.0524  0.0592 -0.4288
10957W        W27804   1.512  15.771   5.643 -0.0651 -0.0618 -0.2226
10958W        W27805   7.939   0.037  14.044  0.0161 -0.2387 -0.0434
10959W        W27806   3.634   4.479  14.875  0.0595 -0.1431  0.0358
10960W        W27807   3.456   9.837  15.078  0.2643 -0.0483  0.1176
10961W        W27808   8.516   2.647  13.356 -0.0520 -0.2031  0.2560
10962W        W27809  15.520   0.355  13.175  0.0482 -0.0023 -0.0287
10963W        W27810   5.911  13.510   3.488  0.1062  0.0892 -0.2961
10964W        W27811   3.018  17.016   1.264 -0.1173 -0.1887 -0.0505
10965W        W27812  17.413   8.427  14.335  0.1641 -0.0525  0.0779
10966W        W27813   5.536   0.260  11.617  0.0270  0.0908  0.0034
10967W        W27814   1.777   6.824  16.331 -0.2405 -0.0040  0.0032
10968W        W27815   2.408   2.648  12.157  0.3255  0.3006 -0.0663
10969W        W27816   1.119   4.159  11.320  0.2865 -0.0822  0.2134
10970W        W27817  16.716   7.583   1.922  0.0196  0.3364  0.0506
10971W        W27818   2.795   7.224  15.543 -0.3763 -0.2138  0.2981
10972W        W27819  14.658  17.556   2.474 -0.3771  0.0245  0.2051
10973W        W27820  12.707  17.557  16.273 -0.3819 -0.0366 -0.0268
10974W        W27821   7.517   1.955   3.411 -0.0715 -0.0855  0.0901
10975W        W27822   0.434   1.661  13.551  0.3009 -0.4068  0.0372
10976W        W27823  12.303  10.009  16.699  0.0112 -0.0163 -0.1202
10977W        W27824   4.007  11.560   4.758 -0.2566  0.0581 -0.2711
10978W        W27825  11.720  13.760  15.963  0.2869 -0.0034 -0.0332
10979W        W27826   9.531  14.576  14.479  0.0584 -0.1108  0.0082
10980W        W27827   2.784   7.097   5.497 -0.0319 -0.0444  0.1623
10981W        W27828  11.966  14.343   6.144  0.0422 -0.1975  0.0150
10982W        W27829   5.416   7.334  13.389 -0.1994 -0.0640  0.1356
10983W        W27830  17.592   8.626   5.098 -0.1949 -0.0385  0.1029
10984W        W27831  10.713  10.915   1.948 -0.1216 -0.1002 -0.3455
10985W        W27832  16.464  15.881  12.042 -0.3058  0.0370 -0.0470
10986W        W27833   2.001  13.809   5.018  0.1364  0.2491  0.1179
10987W        W27834  16.000   9.310   5.609 -0.3103 -0.3886  0.3324
10988W        W27835   9.381  13.637  16.729 -0.1096 -0.1970 -0.0683
10989W        W27836   4.757   8.825   5.112  0.2111 -0.1156  0.1163
10990W        W27837  14.021   3.400  14.054 -0.0988 -0.1520  0.5885
10991W        W27838   8.562  10.031   0.569 -0.0226  0.2262 -0.0202
10992W        W27839  10.779   4.241   0.137  0.1492  0.3428  0.1144
10993W        W27840   3.119   8.488  12.725 -0.0151 -0.0176  0.3815
10994W        W27841   4.933   3.888   4.844 -0.0154  0.0248 -0.1611
10995W        W27842  10.631  16.074   6.225  0.1731 -0.2281  0.0289
10996W        W27843  13.128   9.921   1.606 -0.1157  0.2966  0.1740
10997W        W27844  15.037  10.052   6.175  0.0482 -0.0374  0.1993
10998W        W27845  10.477  13.950   2.476  0.1062 -0.2394 -0.1208
10999W        W27846   5.670   8.197   1.616  0.1334  0.3105  0.0163
11000W        W27847   0.335   8.352  14.306  0.2563 -0.1843 -0.0067
11001W        W27848   6.987   2.558  12.361  0.1977  0.1274  0.2674
11002W        W27849   2.890   4.894  13.713 -0.0675  0.1635  0.2105
11003W        W27850  16.502   1.891   4.260  0.1836 -0.0124  0.0323
11004W        W27851  10.789  17.582  16.487 -0.0146  0.0620 -0.0590
11005W        W27852  13.002  17.355   1.597 -0.2182  0.3083 -0.0004
11006W        W27853  16.364  10.116  14.030 -0.1056  0.0896  0.2473
11007W        W27854  14.998  12.968  16.691 -0.2627 -0.0649  0.1890
11008W        W27855  12.403  15.580   1.274 -0.0612 -0.0586  0.0684
11009W        W27856   8.089   4.678   1.293 -0.1427 -0.0461 -0.0234
11010W        W27857   6.689   7.528   4.857  0.2964 -0.2763 -0.2769
11011W        W27858   0.931  16.134   1.435  0.0988  0.1236  0.1138
11012W        W27859   9.914   2.975  13.902  0.2375 -0.1900  0.0396
11013W        W27860  17.403  11.019   2.198 -0.0097 -0.2378 -0.0447
11014W        W27861  16.112  15.118  14.398 -0.0289  0.0568  0.1409
11015W        W27862   7.471  17.560  13.136  0.0443  0.2924 -0.1784
11016W        W27863   1.200   8.494   3.899  0.2400  0.0908  0.1980
11017W        W27864   0.433  17.556   0.508 -0.0777 -0.0073 -0.0866
11018W        W27865  10.773   8.898  13.805  0.3505 -0.1914  0.1654
11019W        W27866  11.638  17.752  15.586  0.1181 -0.1665  0.0649
11020W        W27867   6.306   2.512  13.293 -0.0119  0.1037 -0.2570
11021W        W27868  13.848   0.880   2.220  0.1966  0.2610  0.3168
11022W        W27869  11.223   8.797  13.563  0.2170  0.0602 -0.0965
11023W        W27870  14.099  14.528   1.300 -0.3277  0.2287 -0.0913
11024W        W27871   9.459   2.594  15.593 -0.2094 -0.0000  0.1409
11025W        W27872  11.701   8.167   0.062  0.3185  0.1308  0.1016
11026W        W27873   8.419   2.461  16.404 -0.2118 -0.2114  0.1470
11027W        W27874   0.344   3.209   1.349  0.3488  0.0485  0.1557
11028W        W27875  13.579   9.708   2.391 -0.0631 -0.2097  0.1792
11029W        W27876  16.183   7.398   3.496  0.0040  0.0664 -0.0532
11030W        W27877  10.963   0.314   5.065 -0.1135 -0.0664  0.0445
11031W        W27878  11.426   6.368  12.318  0.1591 -0.1288 -0.0472
11032W        W27879  17.541   2.041   2.297 -0.0129 -0.1024 -0.2086
11033W        W27880   5.725  17.742  16.479  0.1401  0.2356  0.2359
11034W        W27881   9.640   8.455   4.169 -0.1486 -0.2151  0.1609
11035W        W27882  16.462  12.114   3.596  0.1238 -0.1054  0.0968
11036W        W27883   9.268  13.571   1.247 -0.0460  0.1655  0.1468
11037W        W27884  16.598  11.858   3.043 -0.0153  0.0102 -0.2078
11038W        W27885   4.680  10.051   5.427 -0.0343  0.3736  0.1009
11039W        W27886  16.576  13.947   0.879 -0.1370 -0.1525 -0.2440
11040W        W27887  10.900   5.966  12.147 -0.0715 -0.2382  0.0010
11041W        W27888  13.657   5.258   2.224  0.0189  0.0919  0.2432
11042W        W27889   8.925  11.101   0.273  0.1690 -0.0887  0.0469
11043W        W27890   3.311  13.111  16.413  0.0753 -0.1190 -0.2074
11044W        W27891  14.261   9.149  15.728  0.1802 -0.3147 -0.4842
11045W        W27892   5.140   7.843   1.997  0.0877  0.0505  0.2866
11046W        W27893  11.411  17.347  15.422 -0.0307  0.0257 -0.0566
11047W        W27894   9.958  17.085   1.995 -0.0636  0.1461 -0.1378
11048W        W27895   0.146  17.214  12.820 -0.0436  0.1760 -0.0946
11049W        W27896  15.702   3.793  14.305 -0.2112  0.1647  0.2112
11050W        W27897  11.979   9.796   2.836  0.3562 -0.1490  0.3270
11051W        W27898  12.649   8.262   0.374 -0.1525  0.0417 -0.0640
11052W        W27899  12.932   6.448   5.461  0.0487 -0.0793 -0.0492
11053W        W27900  15.049  16.325   0.180 -0.2000  0.1450 -0.0023
11054W        W27901  12.786  10.011  14.217 -0.2202 -0.1187  0.1403
11055W        W27902   6.799   8.518   0.231 -0.2098  0.1229  0.0775
11056W        W27903   6.169  17.408   4.461  0.1624 -0.3013  0.0952
11057W        W27904   2.911  15.383  14.438 -0.3889 -0.0896  0.2119
11058W        W27905   1.945  10.091   2.040  0.2267  0.1132 -0.0298
11059W        W27906   2.680   1.895  14.988 -0.1356 -0.0770 -0.2287
11060W        W27907   4.498  12.118  12.641 -0.2503  0.0079  0.1404
11061W        W27908   5.688  10.656   4.739 -0.0828 -0.0050 -0.1731
11062W        W27909   3.091  13.458  16.665 -0.2674 -0.1888  0.1695
11063W        W27910   2.335  13.015   3.099  0.1913  0.0261 -0.2912
11064W        W27911   3.004   0.116  15.679 -0.1125 -0.1494  0.1114
11065W        W27912   0.817  11.357   5.524  0.1904  0.0240  0.1852
11066W        W27913  12.382  17.394   2.202  0.4653  0.1876  0.1118
11067W        W27914   4.636   7.546  14.373 -0.1664 -0.0157 -0.4258
11068W        W27915  17.407  15.039   0.371 -0.0188 -0.1970  0.2662
11069W        W27916  15.523   0.287   2.453  0.0701  0.4119  0.1340
11070W        W27917  13.795   8.791   5.408  0.0321 -0.1368 -0.0788
11071W        W27918   1.854   5.228   1.582  0.0408  0.0577 -0.0786
11072W        W27919  14.845  11.007  11.689 -0.3677  0.2318  0.2249
11073W        W27920   4.857  13.562  16.003  0.1340 -0.2253 -0.1243
11074W        W27921  11.983  10.536  14.749 -0.0481 -0.1603 -0.2977
11075W        W27922   1.161   1.962  12.520  0.2109  0.0721 -0.0879
11076W        W27923  17.715   9.214   0.124 -0.2793 -0.1000 -0.2361
11077W        W27924  16.040   4.174   3.934  0.0868 -0.1952  0.2618
11078W        W27925  11.149  13.445  12.768  0.1508  0.1474 -0.0466
11079W        W27926   8.461   5.655  12.728 -0.1354  0.2518  0.3964
11080W        W27927   9.357  16.594  15.234 -0.4097 -0.1356  0.1178
11081W        W27928  13.874  11.196   3.443 -0.0967  0.0575 -0.2582
11082W        W27929   5.033   4.454   5.785 -0.2408 -0.0843 -0.0651
11083W        W27930  14.014   1.084  13.616 -0.3590  0.0336 -0.0777
11084W        W27931   3.337   6.865   5.027  0.2707 -0.0531 -0.2109
11085W        W27932   6.012   4.614  13.797 -0.3699  0.1194 -0.0072
11086W        W27933   3.811  11.980   1.310  0.0660  0.1166 -0.0024
11087W        W27934  15.821   4.510   1.019 -0.2151 -0.0351  0.0324
11088W        W27935  12.661  17.393   0.875 -0.2304  0.0767  0.1023
11089W        W27936   8.863   8.892  13.657  0.2928 -0.2772  0.0216
11090W        W27937  11.854   8.801  15.228 -0.2549 -0.0175 -0.2165
11091W        W27938  12.692  17.798   0.201  0.0626  0.1948  0.3116
11092W        W27939  10.224  14.006  13.695 -0.2021 -0.2071  0.0042
11093W        W27940   0.468  15.667  15.240  0.0508  0.1295  0.0453
11094W        W27941   8.373   9.189   0.553  0.0219 -0.0419  0.0903
11095W        W27942   3.737   5.228  15.214 -0.1760  0.1537 -0.2337
11096W        W27943  12.073  16.309   3.672  0.1339 -0.1397 -0.2706
11097W        W27944   3.760  17.272  12.685  0.2639  0.0068  0.3764
11098W        W27945  15.061   3.043  12.061 -0.0381 -0.1086 -0.2166
11099W        W27946   4.295  12.042   4.609  0.1120 -0.0689  0.1411
11100W        W27947   3.015   9.366  14.514 -0.3596 -0.1301  0.2189
11101W        W27948  13.833  14.819   4.070  0.0104 -0.1339  0.2113
11102W        W27949   2.003   6.203  12.121  0.0787  0.1267  0.0232
11103W        W27950   5.543  17.300   0.480  0.0276  0.0281  0.3064
11104W        W27951   9.610   2.313   1.990  0.2345  0.2987 -0.1817
11105W        W27952   4.718  14.748   4.759 -0.0595 -0.1611 -0.1511
11106W        W27953   7.641   0.812   2.158  0.0980 -0.1932 -0.1206
11107W        W27954  12.670  10.089  11.709 -0.0785 -0.1227 -0.1846
11108W        W27955   3.787   8.291  15.797 -0.0570  0.1118  0.0813
11109W        W27956   2.363   1.917  15.865  0.0179 -0.1230 -0.0315
11110W        W27957   0.467   6.439  14.671  0.1343 -0.1286  0.0219
11111W        W27958   1.367  13.970   1.642 -0.0280  0.2918  0.0587
11112W        W27959   8.297   6.368  15.629  0.0518 -0.1414  0.0482
11113W        W27960   0.779   4.041   5.070 -0.2710  0.0620 -0.0213
11114W        W27961   4.053   5.891  11.822 -0.0830  0.2955 -0.2323
11115W        W27962  12.998  10.306  12.939 -0.2841  0.2049  0.2089
11116W        W27963  11.117  17.686  15.641  0.2249  0.0317 -0.0374
11117W        W27964   4.508   7.942   5.358 -0.1499 -0.0276 -0.2308
11118W        W27965  14.271   4.211  14.422 -0.3133  0.0620  0.0182
11119W        W27966  12.196   6.143  15.079 -0.3179 -0.0637  0.1431
11120W        W27967  13.245  15.599   3.763  0.1261 -0.0791  0.2332
11121W        W27968   7.027  14.279   3.966  0.2395 -0.1671  0.0328
11122W        W27969  12.871  12.742   2.570 -0.2251  0.3975 -0.1148
11123W        W27970  16.648   1.820   5.146  0.0338  0.0369 -0.0684
11124W        W27971   7.403  13.520  11.785  0.0140 -0.1787  0.0104
11125W        W27972   7.865  12.678  12.722 -0.0772 -0.1784  0.0585
11126W        W27973  16.703   5.098  14.702  0.2846 -0.0390 -0.1623
11127W        W27974   1.275  15.830  14.804  0.0025  0.1874  0.2366
11128W        W27975   5.456  17.698  11.469  0.0283  0.0837 -0.1641
11129W        W27976   1.856  17.646   4.751  0.1342 -0.1891 -0.0091
11130W        W27977   7.931   6.041  12.098 -0.1118  0.0334 -0.1399
11131W        W27978   0.509  13.900  14.390  0.0836 -0.3406  0.1758
11132W        W27979   2.987   0.171   2.475  0.2143 -0.1691  0.3126
11133W        W27980  11.241   0.244   4.602  0.0053 -0.0243  0.2279
11134W        W27981   6.097   2.223   0.643 -0.0711  0.1620  0.0485
11135W        W27982   2.875   4.109   2.762 -0.1133 -0.0731  0.2881
11136W        W27983   5.141  16.835   5.582  0.0974  0.0251  0.1443
11137W        W27984   9.784  10.096  14.949  0.2356 -0.1455 -0.1775
11138W        W27985  15.813   9.941   0.898 -0.0304 -0.0232  0.1778
11139W        W27986  17.795   5.778  15.332 -0.1975  0.1448  0.0502
11140W        W27987  10.251  11.114   1.739  0.1417  0.3064 -0.0813
11141W        W27988   3.520  16.903   1.773  0.0123  0.0410 -0.1079
11142W        W27989   6.335  15.719  16.407  0.1888  0.0378  0.0325
11143W        W27990   2.365   2.333  11.718  0.1281  0.0331  0.0545
11144W        W27991  13.733   7.439  11.695  0.1694  0.0013  0.0945
11145W        W27992  11.387  17.522  11.331 -0.2906  0.2010 -0.0203
11146W        W27993   7.607   3.218  15.760  0.1843 -0.1069 -0.0980
11147W        W27994  15.367   2.254  14.895 -0.2043 -0.1385  0.0698
11148W        W27995  14.315  11.285  12.136  0.1541 -0.0373  0.2231
11149W        W27996  17.508   2.749   0.997 -0.0914 -0.3329  0.0947
11150W        W27997  13.371  11.359   1.063 -0.0229  0.1266 -0.0418
11151W        W27998   6.638  10.851  16.733  0.0973 -0.2960  0.1546
11152W        W27999   1.939  16.871  16.602  0.0106  0.2671 -0.3155
11153W        W28000  12.729   4.791   3.698  0.2265  0.0124  0.0175
11154W        W28001   0.056   0.768  13.200  0.3256  0.0542 -0.2437
11155W        W28002   6.204  12.286  14.668 -0.1079 -0.0131 -0.0349
11156W        W28003  13.650  11.135   5.632  0.1760 -0.3794 -0.0971
11157W        W28004   3.703   0.746  12.713 -0.1228 -0.0916  0.0941
11158W        W28005   5.453  16.232   2.670 -0.3990  0.1397  0.2345
11159W        W28006   5.384   8.159  12.294 -0.3123  0.0154 -0.1537
11160W        W28007   3.123   2.900   4.902 -0.1361 -0.2235 -0.1122
11161W        W28008  10.528  11.043  11.855  0.1481 -0.1921 -0.0008
11162W        W28009   8.722  17.116   0.054  0.0833  0.0828 -0.1459
11163W        W28010   5.018   1.187  14.767  0.2005 -0.1366  0.1258
11164W        W28011  12.079   1.623   5.295 -0.1908 -0.2672 -0.0145
11165W        W28012   5.823  16.660   4.518  0.1763  0.0107 -0.2210
11166W        W28013   1.991  11.735  13.519 -0.0654 -0.1005  0.2518
11167W        W28014  14.787  11.962   3.202 -0.1204 -0.0186  0.1428
11168W        W28015   0.559   4.901   1.072  0.0114  0.0367  0.1974
11169W        W28016  16.837   6.406   1.670  0.0086 -0.0936 -0.1112
11170W        W28017  17.771   7.646   5.109  0.1135 -0.0201 -0.1661
11171W        W28018  11.586   4.103   4.128 -0.0984 -0.0714 -0.2158
11172W        W28019   3.608   9.189  12.829 -0.0045  0.2539 -0.0485
11173W        W28020  14.061   6.786   4.229  0.5338  0.0344 -0.0948
11174W        W28021   8.842   0.969  11.757  0.1149 -0.2084 -0.0753
11175W        W28022  14.960  12.772   2.864 -0.1457 -0.0217  0.0650
11176W        W28023  16.052   1.616  14.694 -0.2988 -0.0589  0.4163
11177W        W28024  10.181   7.209  15.298 -0.1075  0.0328 -0.1344
11178W        W28025   4.856  16.541  12.668 -0.1546 -0.0632 -0.0757
11179W        W28026   0.233   8.412   1.018 -0.0310 -0.3167  0.2104
11180W        W28027   6.272  11.707   5.575  0.4151  0.2214  0.3107
11181W        W28028   3.627   7.154  15.131 -0.1777  0.0181  0.2096
11182W        W28029  15.700  17.768  13.962 -0.0593  0.0392 -0.0728
11183W        W28030   4.502  10.851  16.346  0.3261  0.1331  0.2058
11184W        W28031   1.900  15.457   2.367  0.3308 -0.3259  0.2247
11185W        W28032  17.667  13.109  14.315  0.3432  0.0752  0.0405
11186W        W28033   6.664  17.280   3.617 -0.1378  0.1388  0.1576
11187W        W28034  17.561   9.120  14.376  0.0511 -0.1364 -0.0541
11188W        W28035   8.135  14.300  14.953  0.0682  0.1791 -0.0404
11189W        W28036  12.160   8.124  12.132 -0.1720 -0.3335  0.0825
11190W        W28037   2.045  15.906  15.474 -0.0302  0.0088  0.2972
11191W        W28038   0.294   8.036  12.240  0.0367 -0.1462  0.2909
11192W        W28039   6.185   5.730   2.787 -0.1662  0.0178  0.1410
11193W        W28040   2.844  10.234   4.285  0.0400 -0.0560 -0.0987
11194W        W28041  16.500   1.112  13.186  0.0960  0.0452 -0.0854
11195W        W28042   8.502   6.580   4.737 -0.0042  0.1057  0.0061
11196W        W28043   1.946  12.744  14.732 -0.0281 -0.0321 -0.1477
11197W        W28044  15.762   1.856  14.136 -0.1464  0.2110 -0.1005
11198W        W28045  11.106   5.902  15.592 -0.2590 -0.2954 -0.0330
11199W        W28046   4.851  14.887  10.372 -0.0414  0.0849  0.0481
11200W        W28047   6.431   4.841  11.772  0.0314 -0.2120 -0.2825
11201W        W28048   3.066  17.103  11.825  0.1608 -0.0022 -0.1108
11202W        W28049   9.947  13.641  15.015 -0.3005  0.1326  0.1500
11203W        W28050   1.008  10.242   0.705  0.1521  0.0096  0.1091
11204W        W28051  11.868   2.375   6.132 -0.0209  0.1357  0.2982
11205W        W28052   5.501  11.658  15.021  0.1788 -0.1261 -0.1731
11206W        W28053   2.362  10.091   0.731  0.3003 -0.1024  0.1360
11207W        W28054  10.054  11.860  15.822  0.2002 -0.0780  0.0267
11208W        W28055   5.747   3.436  14.135 -0.0069  0.0532 -0.3074
11209W        W28056  13.773  17.846   5.339 -0.0376 -0.1352  0.0352
11210W        W28057   8.132   0.791  15.546  0.2722 -0.0523  0.1436
11211W        W28058   2.045   9.990  15.140  0.0225  0.1681  0.1243
11212W        W28059  13.985   0.226  16.708  0.2692 -0.2774 -0.2551
11213W        W28060   0.863  10.672   2.815  0.1319  0.3234  0.0208
11214W        W28061   7.725  10.654  14.452 -0.1391  0.0291 -0.0165
11215W        W28062   0.779   3.031   2.511  0.0063  0.0658 -0.0792
11216W        W28063  12.676   4.004   1.012  0.0585 -0.1409 -0.2356
11217W        W28064  11.782  12.446   5.895  0.0403  0.0649 -0.0659
11218W        W28065  12.612   3.582   0.473 -0.1817  0.0193 -0.1300
11219W        W28066   7.505   6.231   2.259 -0.2101 -0.3524  0.0897
11220W        W28067  15.891   3.443   0.470 -0.0171  0.0545 -0.1460
11221W        W28068   5.053  14.935   4.428  0.2457  0.2320  0.1974
11222W        W28069  17.144   9.635  12.808  0.3043  0.1214  0.3006
11223W        W28070  16.384   4.085  12.465 -0.1121  0.0677 -0.0139
11224W        W28071   9.305  10.327   2.477  0.1248  0.0336  0.0828
11225W        W28072  15.121  10.046  11.947 -0.2545 -0.0767  0.1792
11226W        W28073   5.221  11.531  16.064  0.0938 -0.0035  0.0786
11227W        W28074  10.206  11.657  12.363  0.3976  0.4107  0.0630
11228W        W28075  12.551   1.885   1.639  0.0862  0.0499  0.1533
11229W        W28076  17.045  10.399   0.907 -0.1274 -0.1529 -0.0782
11230W        W28077   5.194   4.981  14.601  0.1902  0.2179 -0.3591
11231W        W28078  10.759   4.185   2.860  0.0637  0.0447 -0.0929
11232W        W28079   4.398   9.464   2.526  0.0138 -0.0505  0.0736
11233W        W28080   1.101   6.737  11.619  0.0312 -0.0337 -0.0100
11234W        W28081  10.685   6.663  14.877  0.2217  0.1017 -0.0641
11235W        W28082   2.110   3.908   0.366 -0.0044  0.0150  0.1024
11236W        W28083   6.751  15.683   2.456 -0.4167 -0.1691  0.1084
11237W        W28084  16.550   0.306  15.469 -0.0542  0.2035 -0.0114
11238W        W28085  11.948   7.209   3.703 -0.2873  0.1160  0.0693
11239W        W28086   5.241   3.771  13.003 -0.1017  0.0246  0.3074
11240W        W28087   6.880  10.178  12.944 -0.0727  0.0263  0.2437
11241W        W28088  15.450  15.361   6.630 -0.0245 -0.0669  0.2877
11242W        W28089  12.994   4.446   4.336 -0.1398 -0.3073  0.0901
11243W        W28090   1.571   9.212   2.334 -0.1155  0.2482  0.0122
11244W        W28091   5.752   7.745   3.080  0.2834 -0.0272  0.0639
11245W        W28092   7.418   1.789   2.848 -0.0763 -0.0645 -0.1846
11246W        W28093   3.635   2.542  14.678  0.3059  0.0792 -0.2754
11247W        W28094  11.998   9.823  16.308 -0.0672  0.0518 -0.1778
11248W        W28095   4.983   3.415   1.090 -0.2751 -0.0229 -0.1048
11249W        W28096  10.714   0.444  15.118 -0.0876  0.0388 -0.0427
11250W        W28097  17.561   6.251  13.657  0.0015  0.1689 -0.1052
11251W        W28098  15.813  17.451   6.486 -0.0022  0.0264 -0.3466
11252W        W28099  17.756   6.858   4.506 -0.3889 -0.2467  0.3610
11253W        W28100   8.667   7.592  15.477 -0.1561  0.3545 -0.0903
11254W        W28101   2.961  13.839   0.573  0.0351 -0.1921 -0.0067
11255W        W28102  15.683   5.611  13.406 -0.0659 -0.0586 -0.2841
11256W        W28103   3.591  13.569   2.429 -0.1578 -0.0680 -0.5289
11257W        W28104   4.328   3.307   3.384  0.0023  0.0695  0.0722
11258W        W28105  13.488   7.246  14.399  0.2128  0.0150 -0.2625
11259W        W28106   1.439   8.304   0.256 -0.0296  0.1765  0.2260
11260W        W28107   4.073  11.916  13.662 -0.0456 -0.1884 -0.2187
11261W        W28108  13.738   1.576   3.123 -0.1396  0.0026 -0.1808
11262W        W28109  13.460   2.261  15.291  0.2507  0.0424  0.0145
11263W        W28110   0.027   4.828   2.574  0.0347  0.3350  0.1754
11264W        W28111   5.792  15.947  13.642 -0.1505 -0.0636 -0.2972
11265W        W28112  10.597  15.336   1.062  0.3380  0.1096  0.1132
11266W        W28113  16.349  10.227   4.109 -0.0195  0.0653 -0.2052
11267W        W28114   1.409   4.884  14.662  0.2360  0.0288  0.4373
11268W        W28115  17.773  16.256   1.784  0.1933  0.0685 -0.1279
11269W        W28116   3.153   2.057  14.097  0.2437 -0.1836  0.0668
11270W        W28117  11.443   8.491  12.669  0.0375  0.0522 -0.1597
11271W        W28118   1.125   2.905   2.217 -0.1903 -0.1946 -0.1068
11272W        W28119  17.070  16.607  13.500  0.0260  0.2492 -0.0774
11273W        W28120   0.728   3.896   4.067  0.0237  0.0450  0.3103
11274W        W28121   5.453  14.477   2.247  0.0467  0.1219  0.0760
11275W        W28122  12.057   3.295   3.966 -0.1419 -0.1365 -0.0762
11276W        W28123  12.085   7.297  11.801  0.0227 -0.1409  0.1258
11277W        W28124  11.893  12.824  12.357 -0.1345  0.2044  0.1442
11278W        W28125   2.734   9.206  12.961 -0.2422 -0.1616 -0.0329
11279W        W28126   4.965  14.823  15.191 -0.2648 -0.5602  0.2621
11280W        W28127   0.828   4.493   4.690  0.1004 -0.2582 -0.0003
11281W        W28128   6.253  13.873  15.052 -0.1726  0.1489 -0.0628
11282W        W28129  15.426   8.608  12.995 -0.0978  0.3012  0.0161
11283W        W28130   6.490   8.738   2.718 -0.0650 -0.1457  0.1035
11284W        W28131   4.430   7.985   3.250  0.0012  0.1438 -0.0141
11285W        W28132   5.270   6.255   3.890  0.0301 -0.1862 -0.1640
11286W        W28133   7.641   5.404  13.280  0.2207 -0.0642 -0.2313
11287W        W28134  10.803  11.775   0.795  0.1581 -0.1399  0.0200
11288W        W28135   0.827  11.905  15.427  0.4305  0.1851 -0.0245
11289W        W28136   5.835   7.210  12.525  0.2622 -0.1351 -0.0147
11290W        W28137   6.450   8.345   5.068  0.0536 -0.2161 -0.1955
11291W        W28138  10.857   4.963   5.523 -0.2086 -0.0467  0.0853
11292W        W28139   4.484   2.717   4.643  0.2121  0.1754  0.0033
11293W        W28140   1.894   6.776  11.559  0.2285  0.1604  0.1761
11294W        W28141  11.623  14.877   3.678  0.1913 -0.0486 -0.3768
11295W        W28142  16.419   6.911  14.034  0.4286  0.0678 -0.0203
11296W        W28143  10.925  14.268  14.586  0.0113 -0.1230 -0.1753
11297W        W28144  14.318   5.953   1.755  0.0171 -0.0310 -0.2141
11298W        W28145   9.834   9.192  12.450  0.0238  0.0078 -0.1238
11299W        W28146   7.990  15.407  16.283  0.0200 -0.2894  0.1748
11300W        W28147   8.994   5.296  15.518 -0.2230 -0.0189 -0.1406
11301W        W28148  13.321   6.579  11.369 -0.4231 -0.1224 -0.5076
11302W        W28149   5.781  15.027  13.468 -0.3252 -0.1045 -0.1199
11303W        W28150   9.417  10.784   2.649  0.1141 -0.0739 -0.0258
11304W        W28151  10.784   5.921   1.520 -0.2206  0.1973 -0.2156
11305W        W28152  10.206  11.358  14.099  0.1645 -0.1416 -0.0291
11306W        W28153  14.712   5.388   2.206 -0.1462  0.0275 -0.0074
11307W        W28154   7.852   9.537  15.409 -0.2784  0.0343  0.3542
11308W        W28155  15.807   4.087   3.184 -0.1736 -0.4161  0.0168
11309W        W28156   1.353   8.374   4.497 -0.3555 -0.3730 -0.0915
11310W        W28157   8.945   1.905   4.267  0.1192 -0.2424  0.1493
11311W        W28158  11.365  16.463   0.048  0.0605 -0.1672 -0.1092
11312W        W28159   9.663   8.852  14.178  0.3224  0.0158 -0.2743
11313W        W28160   9.358   1.153  15.332 -0.2172 -0.0780  0.0340
11314W        W28161   9.180   2.732   2.637 -0.3288 -0.2083  0.1218
11315W        W28162   2.736   8.243   3.472  0.3315 -0.0990  0.0089
11316W        W28163  17.490   6.099   0.005  0.0720  0.0746  0.2596
11317W        W28164  15.998  17.364  13.793 -0.0716 -0.0537  0.1893
11318W        W28165   0.342  11.605   5.452  0.0125  0.1621  0.1973
11319W        W28166   7.906   6.893  12.901  0.1386 -0.2563 -0.0507
11320W        W28167   4.575  16.718   4.063 -0.2955 -0.1671  0.3346
11321W        W28168   0.532   9.211  12.754 -0.0114  0.0810  0.0018
11322W        W28169  17.794  10.050   4.951 -0.1331 -0.2674 -0.1251
11323W        W28170  12.769   3.569   4.043  0.1008 -0.0789 -0.3239
11324W        W28171   1.524   3.904  11.302 -0.1086 -0.2749  0.4002
11325W        W28172  15.592   8.866  13.400  0.1188 -0.1642 -0.0411
11326W        W28173   7.252   3.136   1.051  0.0305 -0.2208  0.0571
11327W        W28174  15.781  11.408   4.035 -0.4834 -0.0323  0.1729
11328W        W28175   2.285   5.998  14.259  0.3126  0.0222  0.1937
11329W        W28176   6.608   0.033  15.982 -0.2363  0.2279  0.0639
11330W        W28177  16.969  17.443  16.305 -0.0144 -0.0085  0.1023
11331W        W28178   4.128  15.366   1.407 -0.1424  0.1900 -0.1673
11332W        W28179  15.742   4.768  14.872  0.1142 -0.2659 -0.2408
11333W        W28180  11.827   5.763   5.377  0.2672  0.0250 -0.0238
11334W        W28181  15.909   6.919  14.107 -0.1393  0.3566  0.0707
11335W        W28182  10.812  14.804  14.735  0.3270  0.2418 -0.1770
11336W        W28183   5.933  11.106  15.555  0.0932 -0.3710  0.0959
11337W        W28184   9.906   5.541  14.910 -0.0071  0.0133  0.0929
11338W        W28185  11.016  11.433  16.557  0.2424  0.1635 -0.3030
11339W        W28186   5.958   2.333   6.389 -0.1480 -0.1700  0.0449
11340W        W28187  12.480   5.732   3.074 -0.0823 -0.3788  0.0543
11341W        W28188   5.305  10.281   3.059 -0.0967  0.0305 -0.1097
11342W        W28189  13.755   0.115   0.505  0.2230  0.0437 -0.1674
11343W        W28190  10.418  13.620  16.341  0.1147  0.1944 -0.0472
11344W        W28191  14.576   9.999   3.056  0.1304 -0.2236 -0.2432
11345W        W28192   1.654   6.019   3.433 -0.2012 -0.3263 -0.1051
11346W        W28193  11.226  10.403  11.845 -0.1909  0.0629  0.1011
11347W        W28194  14.240   1.921   2.943 -0.1355  0.1903 -0.2240
11348W        W28195  13.810  16.764  13.594 -0.3233  0.3353  0.2229
11349W        W28196   6.153  15.416  14.638 -0.0909  0.1996  0.1793
11350W        W28197  11.727  17.143   4.620 -0.2580 -0.1051 -0.0764
11351W        W28198  10.227   0.895   2.127  0.1799  0.0800  0.0945
11352W        W28199   2.113  12.919  12.769  0.1961  0.0940 -0.2149
11353W        W28200   3.059   3.548   0.183  0.0467  0.2541 -0.1403
11354W        W28201  13.248  12.000  12.770  0.0845  0.2536 -0.1404
11355W        W28202  10.124   9.443   3.143 -0.0165 -0.2723 -0.0445
11356W        W28203   5.976   2.752  12.418  0.0013  0.2589 -0.1473
11357W        W28204  15.339  12.755  11.929 -0.1404 -0.0001 -0.1136
11358W        W28205   9.341   5.955   5.074  0.2339  0.1716  0.3086
11359W        W28206  11.070   7.555  14.326 -0.1929 -0.0843  0.0628
11360W        W28207  12.758   5.500  13.411  0.0044 -0.0826  0.1927
11361W        W28208  10.633   9.047   0.272 -0.1201  0.0937  0.2430
11362W        W28209  11.971  13.699  12.739 -0.0113 -0.0489 -0.2547
11363W        W28210   2.795   5.169  14.755 -0.0494  0.2660  0.3180
11364W        W28211  14.581  15.041  16.068  0.2023 -0.0608 -0.2915
11365W        W28212   5.992   3.485  12.994 -0.0569  0.0225  0.0948
11366W        W28213   0.167   0.540   4.161  0.2812 -0.1360 -0.0030
11367W        W28214   9.562   9.580  13.806  0.1732 -0.1247  0.1521
11368W        W28215  17.584   5.329  11.533 -0.2054  0.2163 -0.0987
11369W        W28216   9.835  11.934  16.298 -0.3507 -0.1233 -0.1789
11370W        W28217   1.391   2.565  15.136  0.2951  0.1607 -0.2878
11371W        W28218   5.882  16.199  11.628 -0.0024 -0.0609 -0.1114
11372W        W28219   1.651   3.240  13.558  0.2514  0.3846 -0.0420
11373W        W28220   4.649   2.201  15.605  0.2230  0.0451  0.0068
11374W        W28221  10.575  16.079   3.372 -0.0124  0.1470  0.1992
11375W        W28222   9.680   6.184   3.543 -0.3208 -0.0086  0.0860
11376W        W28223  12.475   1.030   0.351  0.1042 -0.1315 -0.1377
11377W        W28224  10.897  13.426   4.445  0.0496  0.4608 -0.2952
11378W        W28225  15.573   9.442   5.789  0.0366  0.1927 -0.1834
11379W        W28226  11.602   0.251  13.108  0.2776 -0.3397 -0.1527
11380W        W28227  16.767   9.199   3.769 -0.4794 -0.1931 -0.3543
11381W        W28228   2.244   6.052  13.145 -0.4414  0.1202  0.1613
11382W        W28229  10.970   2.203  12.068  0.0469 -0.0759  0.1815
11383W        W28230   3.169   3.685   2.724  0.1729  0.1945 -0.1286
11384W        W28231   3.325   0.382  14.607 -0.3994 -0.2954  0.1173
11385W        W28232   4.996   2.466   2.599 -0.0111 -0.2945 -0.0096
11386W        W28233  13.098  12.986  14.520 -0.1001 -0.1127  0.4000
11387W        W28234  17.053  12.539  13.695  0.0028  0.0491  0.0874
11388W        W28235  13.901   6.104  11.789 -0.0647 -0.0424  0.0865
11389W        W28236  12.842   7.161   5.974  0.1968  0.2818 -0.0631
11390W        W28237   7.709  12.531   6.161 -0.0252 -0.0804 -0.2585
11391W        W28238   4.538   8.754  12.806  0.0889  0.1295  0.1400
11392W        W28239   9.941  16.186   1.643  0.0619 -0.1938 -0.1232
11393W        W28240   1.249   6.324  15.943 -0.0469 -0.0099 -0.0762
11394W        W28241   4.020   7.568   0.833 -0.0025 -0.0808  0.1672
11395W        W28242  10.950   4.291   3.398 -0.0076 -0.0541 -0.0356
11396W        W28243   4.034   5.328   4.506  0.1034 -0.1144 -0.1186
11397W        W28244   0.845   9.556  13.578 -0.1996  0.0720  0.1607
11398W        W28245   1.575  14.684  12.395  0.0523  0.2721  0.1003
11399W        W28246  13.554   2.011  11.715 -0.1303 -0.0504  0.0643
11400W        W28247  11.842  16.318  13.682 -0.1531  0.0046 -0.0484
11401W        W28248  16.451   6.014   2.405  0.0035  0.1536 -0.0954
11402W        W28249   4.351   5.237   3.051 -0.1556  0.2954  0.0083
11403W        W28250  13.059   4.080   3.098  0.1962 -0.1196  0.0047
11404W        W28251   5.659  11.623  13.993  0.0756 -0.0512 -0.0633
11405W        W28252   0.948  14.244  16.459  0.0955 -0.0645  0.2758
11406W        W28253  12.256  16.365  15.743  0.2668  0.0925  0.1233
11407W        W28254   2.580   4.656  11.275  0.1885 -0.1514 -0.0358
11408W        W28255   0.255  10.525  15.153 -0.2857  0.1862  0.0311
11409W        W28256  13.565   3.377  11.333  0.1071  0.2069 -0.1741
11410W        W28257   1.355   2.902   4.993 -0.2288  0.0626  0.0911
11411W        W28258   7.421   2.636   1.128  0.0091 -0.2132  0.1594
11412W        W28259   8.981  17.063  12.642  0.0836  0.2765  0.0182
11413W        W28260   7.258   4.285  12.000  0.0792  0.3294  0.0192
11414W        W28261  12.910  12.890  13.849  0.1610  0.0993  0.2642
11415W        W28262  10.837   5.562   3.291 -0.0149 -0.0795  0.0180
11416W        W28263  15.352   9.496   1.884  0.1973 -0.0850  0.0275
11417W        W28264   2.021   4.677  15.400  0.4779 -0.4993  0.0925
11418W        W28265  14.994   1.148   1.859 -0.0666 -0.0225 -0.3138
11419W        W28266  12.625  15.683   3.166  0.1965  0.0192  0.1088
11420W        W28267  10.735   5.580  13.116 -0.0211 -0.0321  0.0620
11421W        W28268  10.031  11.035   5.595  0.1835  0.1546 -0.1125
11422W        W28269  12.001   8.488  13.405  0.2259 -0.1609  0.0946
11423W        W28270  13.109  17.877  15.281 -0.2576 -0.4129  0.2648
11424W        W28271   8.707   8.327   1.674 -0.2061  0.0056  0.0777
11425W        W28272  14.221  10.523   0.241  0.2802 -0.4749  0.3200
11426W        W28273  12.727   2.915  11.781 -0.0865  0.1745 -0.3264
11427W        W28274   4.843   8.903  15.356  0.0435 -0.2849 -0.0156
11428W        W28275   9.499   7.677  11.669  0.0286 -0.0271  0.0965
11429W        W28276   7.053  17.047   3.856  0.1979  0.2617 -0.1131
11430W        W28277   0.418  14.044  14.926 -0.4668 -0.0921 -0.0347
11431W        W28278   3.587  15.932   0.104  0.1504 -0.0082  0.0001
11432W        W28279   2.285  17.251   1.581 -0.1498 -0.0767 -0.0593
11433W        W28280   2.057   2.302   3.735  0.0159  0.2892 -0.5078
11434W        W28281  17.869  11.773  13.533 -0.2459  0.0292  0.0214
11435W        W28282   9.474   9.488  16.435 -0.1116  0.0228  0.1763
11436W        W28283   0.051  11.638   2.992 -0.0505  0.2646 -0.0670
11437W        W28284   1.242   1.796  11.966 -0.1133 -0.0153  0.2112
11438W        W28285   3.999   6.494   1.444  0.2455  0.0180  0.0494
11439W        W28286   6.721  15.898   3.837  0.2446  0.0690 -0.0284
11440W        W28287   6.835  16.657   6.110  0.1317 -0.1796  0.1250
11441W        W28288   0.694   2.910  11.173 -0.0289 -0.3698  0.1009
11442W        W28289   6.214   3.061   0.200  0.2484  0.1693  0.0620
11443W        W28290   5.243  13.472  15.737 -0.0673  0.1663  0.0504
11444W        W28291  16.142   7.444   5.790 -0.1058  0.0500 -0.4371
11445W        W28292   7.438  10.910   0.224 -0.0519  0.1761 -0.2148
11446W        W28293   1.660  16.318   0.281 -0.0004 -0.0579 -0.4067
11447W        W28294   4.497  10.884  15.621 -0.4850  0.0270  0.1353
11448W        W28295   6.211   3.561  11.338  0.0071 -0.3165 -0.0989
11449W        W28296  11.239   7.244  12.545  0.1809  0.2413 -0.3626
11450W        W28297   5.616   8.189  13.418 -0.0985 -0.3109  0.1443
11451W        W28298   2.601  13.702  12.973 -0.0990 -0.0937 -0.2022
11452W        W28299   6.450   6.705   3.393  0.1390  0.3043 -0.2881
11453W        W28300   2.949  17.133   4.173  0.2962  0.2676 -0.0007
11454W        W28301   6.127   2.637   1.833 -0.3832  0.0582  0.2732
11455W        W28302   7.508  12.885  12.410 -0.0009 -0.2004  0.1863
11456W        W28303  10.590   7.318  12.558 -0.0715 -0.1179  0.1163
11457W        W28304   2.704   7.999   2.474 -0.0808  0.0114  0.1543
11458W        W28305   4.907   0.312  14.684 -0.0682  0.2764  0.1441
11459W        W28306   3.481   4.694   4.654  0.2206 -0.0287  0.1286
11460W        W28307   7.695   5.310   0.687  0.1653  0.0136 -0.1141
11461W        W28308  14.787   4.578  12.545  0.0618  0.1925 -0.0856
11462W        W28309  10.833  17.210  12.584 -0.0468  0.0174  0.0538
11463W        W28310   0.941   1.776  13.555  0.1599 -0.1317  0.2006
11464W        W28311   7.542  15.866   2.916  0.0306  0.0182  0.2045
11465W        W28312   1.177   9.159  13.444 -0.1305 -0.2599 -0.3976
11466W        W28313   6.592  15.111  11.748  0.1171  0.1710  0.3015
11467W        W28314  16.542  12.071  15.107 -0.0056 -0.0028 -0.0361
11468W        W28315   4.144  11.048   2.616 -0.0321 -0.0497 -0.2157
11469W        W28316   6.949   1.160   4.457  0.1259  0.2210  0.0624
11470W        W28317   1.196   2.655   2.748  0.0589 -0.1739  0.0318
11471W        W28318   0.189   1.669  15.814  0.2345  0.2176  0.0398
11472W        W28319  15.272   8.722   3.553  0.0184 -0.1297  0.0501
11473W        W28320   9.057  17.411   4.643  0.5559  0.1980  0.2492
11474W        W28321  14.585   9.516  14.286 -0.2694  0.0751 -0.0966
11475W        W28322   8.637  15.808   3.058 -0.0492  0.0551  0.1278
11476W        W28323   6.704   7.658  14.785 -0.2633  0.1754 -0.2334
11477W        W28324   7.689  16.509  11.610  0.0377  0.0366 -0.1426
11478W        W28325   9.556  10.339   0.666 -0.2088  0.0032  0.0264
11479W        W28326  16.243   8.154  13.394 -0.2309 -0.1511 -0.0068
11480W        W28327  16.969   4.499   1.316  0.0452  0.2473  0.0009
11481W        W28328   4.292  12.736  11.881  0.2119 -0.3117 -0.4653
11482W        W28329  12.595   6.032   1.221 -0.3883 -0.1749  0.0910
11483W        W28330  10.049  13.263  16.372  0.0105 -0.0288  0.0892
11484W        W28331  12.467  11.517  14.041 -0.1378  0.3460  0.0803
11485W        W28332   4.021   6.861   4.737  0.0858 -0.0001 -0.1109
11486W        W28333   4.727   2.018  12.388  0.0478 -0.2380 -0.0765
11487W        W28334  16.092   6.650   2.822 -0.2199  0.0527 -0.1477
11488W        W28335  13.166   4.224  16.270  0.2056  0.0830  0.1472
11489W        W28336   2.817  17.236   1.783 -0.1942  0.0930 -0.0677
11490W        W28337   7.559  13.537  15.367  0.0569  0.0746 -0.3103
11491W        W28338   5.156  10.155   3.924  0.0716  0.0099 -0.1872
11492W        W28339   6.927  15.945  11.776 -0.0236 -0.3312 -0.0748
11493W        W28340   4.853   3.547   5.610  0.0668 -0.2435  0.0185
11494W        W28341   9.495  17.058  16.537 -0.3090  0.1609 -0.0650
11495W        W28342   7.309   6.520   4.422  0.0923  0.1963 -0.0945
11496W        W28343   1.574   4.521   0.522  0.2720 -0.1702  0.0077
11497W        W28344   1.134   8.707   0.017  0.0208  0.0699 -0.0628
11498W        W28345   0.183   5.353  13.948  0.0905  0.0774  0.1168
11499W        W28346  17.485  11.361  16.194  0.0123  0.0693 -0.2040
11500W        W28347  15.436  12.668   2.934  0.4494  0.1631  0.1269
11501W        W28348   5.439   2.401  13.060 -0.5182 -0.0520 -0.0304
11502W        W28349  15.998  11.486   1.988 -0.3030 -0.1715 -0.1937
11503W        W28350  13.095   2.091  12.065 -0.1956  0.1458 -0.1796
11504W        W28351  15.476  11.838   2.423 -0.0088  0.1931 -0.1437
11505W        W28352   6.964   1.519   2.841  0.0558 -0.2206  0.0213
11506W        W28353   6.770  12.382   4.719 -0.1179 -0.1237 -0.0290
11507W        W28354   9.026   4.061  13.092 -0.1995 -0.1697 -0.1853
11508W        W28355  14.224   3.576  11.910  0.0351 -0.1614 -0.1141
11509W        W28356   1.862   2.655  14.220  0.0670 -0.2327  0.2681
11510W        W28357  13.171   6.332  14.861  0.0626 -0.0160 -0.2060
11511W        W28358  10.639   0.448  16.282 -0.1159  0.0920 -0.0297
11512W        W28359   1.727  13.154   0.323  0.0810  0.1124 -0.1954
11513W        W28360   4.180   6.489   4.122 -0.3515 -0.1596 -0.1156
11514W        W28361   5.461  11.359   1.845  0.2272 -0.0116 -0.0941
11515W        W28362  17.635  16.025   5.285 -0.0373  0.0630 -0.2794
11516W        W28363  17.513  17.551  13.068 -0.2301  0.1578 -0.0594
11517W        W28364   8.106  12.525  16.185 -0.0760  0.2710 -0.2097
11518W        W28365   6.383   6.841   0.730 -0.0563 -0.1060 -0.0631
11519W        W28366   1.829   6.157  15.765 -0.3203  0.1167  0.1636
11520W        W28367  12.601  14.923   5.902 -0.1033 -0.2945 -0.0045
11521W        W28368   2.036   6.328  11.588  0.2134  0.0026 -0.0158
11522W        W28369   1.894   0.364  13.405 -0.3125  0.2265 -0.2002
11523W        W28370   0.359   9.117   1.505  0.1665 -0.2985  0.1902
11524W        W28371   4.209   3.280   3.858  0.0133 -0.0098  0.1318
11525W        W28372   1.567   0.428   0.213  0.3582  0.1768  0.0599
11526W        W28373   3.793   0.803   0.147 -0.0050 -0.0489  0.1353
11527W        W28374   3.561  17.772   1.632 -0.0632  0.0623 -0.2125
11528W        W28375   6.664  17.185   0.189  0.1787 -0.3191 -0.0795
11529W        W28376   6.656  13.588  15.959  0.1201 -0.2474 -0.1242
11530W        W28377  10.888  10.042   0.822 -0.0140  0.0615 -0.1364
11531W        W28378  14.221   8.569  11.613 -0.0147 -0.1193 -0.0360
11532W        W28379   8.507   9.990  14.596  0.1082  0.0618  0.2159
11533W        W28380  15.557   5.453   5.251  0.6255 -0.3065 -0.1177
11534W        W28381  14.886  11.438  15.854  0.0567  0.3679  0.1258
11535W        W28382   8.723  14.202   2.370 -0.2723 -0.0950  0.5243
11536W        W28383  15.580   9.434   0.607 -0.1771  0.0907 -0.3811
11537W        W28384  15.761  17.688   2.408 -0.0128  0.0949  0.3164
11538W        W28385   7.238   3.521   2.290 -0.2303 -0.3175 -0.2584
11539W        W28386   1.310   1.804   3.631  0.5238 -0.1658  0.2697
11540W        W28387  16.273   3.455  14.269  0.1869  0.3677 -0.0114
11541W        W28388  11.061   8.173  16.173 -0.1623  0.3094  0.0196
11542W        W28389  16.831   6.113   2.798  0.0393 -0.1539 -0.1304
11543W        W28390   6.656  11.641  15.142 -0.1030  0.2768  0.1586
11544W        W28391  10.974  16.234  16.724  0.0475 -0.0718  0.0011
11545W        W28392  14.129  15.468   4.681 -0.1384  0.3777 -0.0434
11546W        W28393  16.201  11.205  13.291  0.1927  0.1779 -0.0174
11547W        W28394  15.969   3.720  12.587  0.2366  0.2527 -0.0171
11548W        W28395   1.534   0.175   3.788  0.2379 -0.0553  0.0370
11549W        W28396   8.007   8.681  13.428 -0.0352 -0.0756  0.1545
11550W        W28397  14.187  11.147   2.255 -0.3184  0.1609  0.3105
11551W        W28398   7.179   1.938  15.558 -0.2961 -0.2941  0.0917
11552W        W28399   5.772   7.663  13.398  0.0591  0.0644 -0.0789
11553W        W28400   3.427  13.998  15.991 -0.0758  0.0524 -0.0492
11554W        W28401  13.272  14.477   4.781 -0.0466 -0.2198 -0.0163
11555W        W28402   7.611   7.220   2.166 -0.1499 -0.0844 -0.2441
11556W        W28403   8.606   0.239   6.033 -0.3009 -0.2321  0.0206
11557W        W28404   6.043   6.612   3.697  0.2012  0.1089  0.0214
11558W        W28405  16.927   5.436  13.162 -0.0449  0.0409 -0.1122
11559W        W28406  10.541   5.326  15.294 -0.0581 -0.4453 -0.0139
11560W        W28407   2.611  13.252  14.230  0.1291  0.0097 -0.1213
11561W        W28408   0.892   8.515   4.292  0.1075  0.2239  0.1592
11562W        W28409   7.100   3.864  14.108 -0.0729 -0.1228  0.0593
11563W        W28410   2.419   0.965  11.509  0.1174 -0.0965  0.1724
11564W        W28411   9.026  10.489  15.241  0.1014 -0.0662  0.0917
11565W        W28412  17.726  11.709  15.797 -0.1357 -0.0014 -0.3063
11566W        W28413   3.012  17.481   0.942  0.0172 -0.0519  0.0114
11567W        W28414   1.313  13.391  13.884  0.1946  0.0358 -0.0006
11568W        W28415  14.283   8.549   2.775 -0.3109  0.1222 -0.1831
11569W        W28416   6.917  15.016   4.635 -0.1854  0.0175 -0.4870
11570W        W28417   2.232   4.176   1.069 -0.0532  0.0565 -0.2027
11571W        W28418   6.084  14.809   0.408 -0.0947 -0.0605 -0.0210
11572W        W28419   3.462   1.410   2.523 -0.1008  0.1104 -0.1080
11573W        W28420   5.000  12.306   4.690 -0.0835 -0.0206 -0.0838
11574W        W28421   1.786   2.541   4.982  0.4063 -0.2126  0.3217
11575W        W28422  10.837   7.101   5.122  0.0153 -0.1040  0.0332
11576W        W28423   0.841   2.401  15.904 -0.0057  0.1613  0.0017
11577W        W28424   8.905  11.102   4.814 -0.0182  0.3021 -0.2643
11578W        W28425  15.086   9.906  12.462 -0.3201 -0.2417  0.1300
11579W        W28426   0.677  16.763   0.201 -0.2497  0.1944 -0.1277
11580W        W28427   0.162   5.791   5.049 -0.1230 -0.0571 -0.1251
11581W        W28428   7.175   6.649  13.477  0.1594  0.0034 -0.0564
11582W        W28429  15.674   0.944  15.560 -0.3077 -0.0907  0.0443
11583W        W28430   9.985  16.196  13.768 -0.1375  0.1638 -0.1439
11584W        W28431   5.461   8.435   2.073  0.1193  0.0865  0.4373
11585W        W28432   2.089   0.562  15.413  0.2158 -0.1015  0.1876
11586W        W28433   9.670  14.329   2.812  0.1686 -0.2500 -0.2420
11587W        W28434  10.013  17.646   2.907  0.1870 -0.2110 -0.1214
11588W        W28435   9.767  13.040   3.973  0.1305  0.1461  0.1722
11589W        W28436  15.348  11.489  13.880  0.3088 -0.0968 -0.0374
11590W        W28437  17.767   7.608  16.252  0.1428  0.0535  0.0153
11591W        W28438  11.003   2.324   5.218  0.2308  0.1809 -0.1793
11592W        W28439   4.382  14.936  13.625  0.2060 -0.1730  0.0318
11593W        W28440  16.158  16.254   1.460 -0.1659  0.0753 -0.0068
11594W        W28441  10.060   9.723  14.728 -0.1539 -0.0236 -0.1721
11595W        W28442   7.645   5.795  16.740 -0.1409 -0.1951 -0.2817
11596W        W28443   8.910   1.896  14.324 -0.0177 -0.2192 -0.2345
11597W        W28444   3.966  12.615  15.974 -0.2744  0.0093  0.0875
11598W        W28445  14.884  17.347  13.795 -0.3045  0.3387 -0.0795
11599W        W28446  11.191  14.658   0.033 -0.0511  0.2711 -0.2495
11600W        W28447   9.656   1.046  12.226  0.1065 -0.0054  0.1712
11601W        W28448  17.326  17.705  15.401  0.1023 -0.2551  0.2313
11602W        W28449   8.998   0.876   1.321 -0.1075  0.1086  0.0894
11603W        W28450  17.542  11.329  13.654  0.0210 -0.2242  0.1002
11604W        W28451  13.017   4.807  12.631 -0.1656  0.0562 -0.1579
11605W        W28452   7.820   0.009   0.707 -0.2738  0.1092 -0.0113
11606W        W28453  17.291   8.852   0.994  0.0923  0.0264 -0.2738
11607W        W28454  16.932   4.020   0.763 -0.1177  0.0246  0.1103
11608W        W28455   8.520   5.522   4.286 -0.1891 -0.0342 -0.1341
11609W        W28456  13.699   4.766   4.118  0.4427  0.0302 -0.2393
11610W        W28457  14.040  11.331   4.744  0.0092  0.0406 -0.2393
11611W        W28458   3.387  13.015  14.424  0.0453 -0.1814  0.1515
11612W        W28459  16.772  13.408   4.978 -0.2592  0.2010  0.0846
11613W        W28460  15.876   6.097   0.838 -0.1882 -0.1919  0.2530
11614W        W28461   9.249  10.577   3.548  0.1753  0.1515  0.1433
11615W        W28462   1.676   9.735   5.145 -0.0564 -0.3591 -0.0677
11616W        W28463   6.603   2.798   4.403  0.0099 -0.0953 -0.3090
11617W        W28464  16.405   0.141   0.034  0.1997 -0.0689  0.0514
11618W        W28465  10.046   9.091  13.326  0.1420 -0.1787  0.0884
11619W        W28466  16.294  15.014  11.910  0.1084  0.0743 -0.0524
11620W        W28467  10.683   9.976  13.064 -0.1769 -0.0175  0.1138
11621W        W28468  12.238   1.820   0.336 -0.0966  0.0786 -0.0142
11622W        W28469  14.753   7.800  15.687  0.0935 -0.1063 -0.1064
11623W        W28470  14.739  17.301   5.174  0.1977 -0.0199  0.1045
11624W        W28471  12.658  14.092   1.415  0.1120  0.2020  0.1100
11625W        W28472  14.541  17.354   5.664 -0.1456  0.3094  0.1336
11626W        W28473   2.157   8.985  15.851 -0.1488 -0.2774  0.2453
11627W        W28474  10.100   3.192  16.266  0.4699  0.2433  0.2546
11628W        W28475  17.322   7.527  12.574  0.0072 -0.4274  0.0183
11629W        W28476  10.076   5.066   5.773  0.1333  0.0524  0.3318
11630W        W28477   1.790   6.153  14.505 -0.0134  0.0148 -0.0712
11631W        W28478   7.738  10.186  15.953  0.1026 -0.6166 -0.3011
11632W        W28479   2.020   9.042   4.248 -0.0313 -0.2930  0.3456
11633W        W28480   7.968   2.389  16.683 -0.1156  0.3999  0.0870
11634W        W28481   0.214   5.983  15.569  0.0576  0.2062  0.0986
11635W        W28482   0.670  13.872  13.362 -0.1422 -0.2120  0.1264
11636W        W28483  15.749   7.506  14.543 -0.0351 -0.0722 -0.0808
11637W        W28484   3.442  11.552  14.979  0.0198 -0.0105  0.0257
11638W        W28485   4.398   2.261   2.457 -0.2238 -0.0366  0.1403
11639W        W28486   2.801   8.049  11.882 -0.0233 -0.2807  0.1754
11640W        W28487   9.531   5.724   3.367 -0.3599  0.2253  0.1882
11641W        W28488   3.479   4.227   2.982  0.0903  0.1175  0.1542
11642W        W28489  10.896   9.854   4.048 -0.0962 -0.1340 -0.1865
11643W        W28490   3.142   2.072   4.162  0.0972  0.1954 -0.0654
11644W        W28491   3.428   7.333   3.556  0.2386 -0.1689  0.3183
11645W        W28492  13.559   6.075   1.415  0.1023 -0.1034  0.0953
11646W        W28493   4.454   0.090  12.441  0.0998  0.0930 -0.0610
11647W        W28494  14.959  12.340   5.354 -0.0156  0.0684  0.0143
11648W        W28495   9.643   6.348  11.730 -0.0789 -0.1273  0.1326
11649W        W28496  17.390   8.295  13.781  0.2543  0.2642 -0.4062
11650W        W28497  16.772  13.092   3.377 -0.3419 -0.0268 -0.0781
11651W        W28498  10.790   0.180   4.093  0.3891 -0.2724 -0.0215
11652W        W28499   4.575   4.888  16.751  0.1868  0.1343 -0.2590
11653W        W28500  12.832   8.080   1.964 -0.2098 -0.2836 -0.0352
11654W        W28501   1.815  12.033   4.084 -0.3442  0.0368 -0.2863
11655W        W28502   7.148  14.681  14.318  0.1374 -0.0207  0.0533
11656W        W28503   1.260   3.521  13.573  0.2357 -0.2717 -0.1126
11657W        W28504   8.335   6.228   1.590 -0.2651  0.0918  0.0750
11658W        W28505   5.882  16.499  12.871 -0.1046 -0.0276 -0.2936
11659W        W28506  17.559  14.276   3.391 -0.0676  0.3647  0.0136
11660W        W28507   6.479   8.405  15.870  0.0515  0.1903 -0.1746
11661W        W28508  17.457   7.898   4.896  0.0082  0.2055  0.1378
11662W        W28509  13.049   1.261   5.579 -0.1035  0.5159  0.0357
11663W        W28510   3.629   4.307   2.070  0.2959  0.1610 -0.2547
11664W        W28511  15.723  17.033  16.556 -0.3870  0.2171 -0.0830
11665W        W28512   2.985  17.557   4.509 -0.1073 -0.2608 -0.1298
11666W        W28513   9.410   4.999   1.168  0.1217  0.1982 -0.0266
11667W        W28514  10.263   6.316   3.642 -0.0648 -0.0683  0.0655
11668W        W28515  14.119   6.400  14.760  0.0490 -0.0484 -0.0869
11669W        W28516   5.985  11.272   5.521 -0.1433 -0.2524  0.0316
11670W        W28517  16.662   9.691   0.424 -0.0870 -0.0668 -0.2754
11671W        W28518   1.541   1.429   0.220  0.2291 -0.1327 -0.1605
11672W        W28519   2.616   5.138   4.342 -0.0653 -0.2215 -0.1330
11673W        W28520   7.274   2.895   0.595  0.0951  0.0417  0.1700
11674W        W28521  13.666   2.833   1.691  0.0499  0.0557 -0.3458
11675W        W28522  15.729   4.770  15.976 -0.3714 -0.2816 -0.1652
11676W        W28523   0.090  11.453  11.401  0.0460  0.0945  0.2802
11677W        W28524   8.144  17.321  15.842 -0.2823  0.2632  0.1527
11678W        W28525  15.790  15.020  13.835 -0.0988 -0.0466 -0.5705
11679W        W28526   6.969   5.376   0.050 -0.0135  0.0727  0.1028
11680W        W28527   6.774   8.733   4.190  0.3320  0.1903  0.1849
11681W        W28528   7.248   1.096  15.816  0.1677  0.0741 -0.3178
11682W        W28529   5.392  13.153   2.009 -0.2133  0.2536  0.1242
11683W        W28530  17.939  11.441  14.810  0.4164 -0.0910  0.4085
11684W        W28531   5.517   6.436   5.012 -0.1278  0.3499  0.0050
11685W        W28532  13.064   1.924   1.726  0.1973  0.0584 -0.3466
11686W        W28533  16.087   1.927   0.595 -0.2094  0.2052 -0.1476
11687W        W28534   3.089   4.496   4.345  0.0276  0.0872  0.0408
11688W        W28535  13.288  16.501   4.559 -0.1725 -0.2277 -0.0492
11689W        W28536  16.674   0.373  11.669 -0.1431  0.1050  0.1431
11690W        W28537  17.360  17.041   2.037 -0.3040 -0.0380 -0.0514
11691W        W28538  14.714   0.085   2.605  0.1588  0.1016 -0.1550
11692W        W28539   6.898   0.763   5.273  0.3472 -0.1300  0.0897
11693W        W28540   8.427  17.019  15.355 -0.0289 -0.0363  0.1287
11694W        W28541   1.107   5.276  14.504 -0.0163  0.3012  0.2219
11695W        W28542   1.705  15.812   3.777 -0.1310 -0.1548 -0.1175
11696W        W28543   0.265   5.788  13.780 -0.3108 -0.0127 -0.1235
11697W        W28544   3.011   1.143  14.795 -0.0301 -0.0677 -0.0798
11698W        W28545   9.676   5.822  15.297  0.1355 -0.0050 -0.0202
11699W        W28546  11.448  17.054   1.199  0.3259 -0.0635  0.2256
11700W        W28547  17.320   2.803   5.852 -0.0047 -0.1781  0.1747
11701W        W28548   6.543   1.391   4.579 -0.1843 -0.3183 -0.2470
11702W        W28549  14.577  12.208  11.872 -0.0291 -0.3145  0.0157
11703W        W28550  12.656   0.141   4.164 -0.1134 -0.1642 -0.0898
11704W        W28551   7.803   2.400  15.057  0.1370 -0.2117  0.0697
11705W        W28552  12.123   9.525  14.374  0.1341 -0.0175  0.0425
11706W        W28553   5.440   8.660   1.455  0.0706 -0.1444  0.0658
11707W        W28554   7.036  12.949   0.314 -0.0979  0.2583  0.1911
11708W        W28555   7.182  13.773  14.596  0.0123  0.0333  0.2206
11709W        W28556  15.374  17.845  16.305 -0.0392  0.1502  0.0576
11710W        W28557   5.748   1.530  13.120 -0.2784  0.2172  0.1189
11711W        W28558   8.145   7.468  13.005 -0.3511  0.1435  0.1786
11712W        W28559  12.793   6.656  12.191  0.0337  0.2732  0.1014
11713W        W28560   2.930   3.767   1.625  0.2650 -0.0304  0.1688
11714W        W28561   4.288   6.377   0.061  0.1326 -0.2659  0.3887
11715W        W28562   4.936   3.036  16.589 -0.0992 -0.0153 -0.2040
11716W        W28563  12.214   2.404  14.259  0.3068  0.4102  0.1796
11717W        W28564   9.143   2.515   5.563 -0.2031 -0.0604  0.0962
11718W        W28565   3.436   0.174   0.826 -0.5379  0.2440  0.2614
11719W        W28566   6.945  13.292  13.237  0.2850  0.2850  0.1737
11720W        W28567  10.682   3.569   4.014 -0.2380 -0.1383 -0.0828
11721W        W28568  16.311   3.004  13.200  0.2775 -0.2532  0.1116
11722W        W28569  17.245   3.069   2.981  0.0937 -0.0205 -0.1431
11723W        W28570   5.983   8.601  16.522  0.0996 -0.2991  0.1054
11724W        W28571  16.731   3.311  13.980  0.0142  0.1561 -0.1255
11725W        W28572   5.783   7.340   4.703 -0.1030 -0.2027 -0.1313
11726W        W28573   5.550   9.602  12.182 -0.1777  0.1102 -0.0972
11727W        W28574  13.049   5.049  14.295  0.1670 -0.1471  0.0086
11728W        W28575  17.346   9.102   1.404 -0.3237  0.0281 -0.1158
11729W        W28576  12.524  15.503  12.531  0.1925  0.2044 -0.0657
11730W        W28577  17.028  14.576  16.085  0.3846 -0.0099  0.1537
11731W        W28578   7.448   9.973   2.521 -0.0671 -0.1772  0.0723
11732W        W28579  10.629   8.538  16.628  0.1302  0.4919  0.0424
11733W        W28580   7.228   1.408  11.906  0.0324 -0.1577 -0.2685
11734W        W28581   8.775   4.673   3.046 -0.1248  0.0002  0.1372
11735W        W28582   1.265   1.252  15.233  0.0835  0.0126  0.0492
11736W        W28583  14.232  17.911   2.403 -0.2393  0.0195  0.0086
11737W        W28584   4.289   7.428   2.125  0.0491  0.1026 -0.0421
11738W        W28585   7.670   5.763  16.136  0.1899  0.1976  0.0870
11739W        W28586   8.102   9.630  14.363 -0.1171  0.0040 -0.3759
11740W        W28587   1.252   5.170  15.045  0.0277  0.2235 -0.1175
11741W        W28588   1.841  14.576  15.576  0.1424 -0.1851 -0.2597
11742W        W28589   3.751   5.731   4.467  0.0951 -0.0223 -0.0368
11743W        W28590  13.258   7.333   1.977  0.2762  0.3172  0.1250
11744W        W28591  12.479   8.027  15.618 -0.0452 -0.2711 -0.0446
11745W        W28592  17.121  15.240  16.792  0.1203 -0.0718 -0.1709
11746W        W28593   8.401   2.271   0.134  0.4017 -0.0640  0.0202
11747W        W28594  12.461  13.619  12.718  0.0448  0.2000 -0.0596
11748W        W28595  15.937   5.100  16.676  0.0931  0.2223  0.0084
11749W        W28596   5.084   0.489   5.104  0.3013  0.2347 -0.3326
11750W        W28597  13.462  15.241  12.225 -0.0363 -0.0488 -0.0499
11751W        W28598  15.526  14.382   6.562 -0.0689  0.0916 -0.0541
11752W        W28599   4.615  16.931   4.541  0.3033 -0.2391 -0.1160
11753W        W28600   5.452   5.690   4.568  0.0481  0.1810 -0.1261
11754W        W28601   6.385   0.428  12.947  0.0694 -0.2104  0.4407
11755W        W28602   3.813   6.796   4.322 -0.0197  0.4344  0.2486
11756W        W28603  17.191  13.604  14.274 -0.1875  0.1310 -0.0072
11757W        W28604  15.574   4.732   4.541 -0.0538 -0.2441  0.0594
11758W        W28605   3.001  14.055  15.002 -0.1928  0.2444  0.2779
11759W        W28606   2.502  15.765  15.687  0.0540  0.2122 -0.0859
11760W        W28607  16.661  13.619   2.684 -0.0349 -0.0775 -0.3103
11761W        W28608   9.113   8.089  12.716 -0.1114 -0.1594  0.2313
11762W        W28609   1.389  12.198   6.455 -0.0517  0.2225 -0.1690
11763W        W28610   5.430  16.746   5.999  0.2071  0.1161  0.1672
11764W        W28611   1.183   8.860   4.480 -0.3235  0.0279  0.2262
11765W        W28612   3.316   7.015   1.849  0.1857  0.2450  0.1429
11766W        W28613  16.155   3.439  13.014  0.1016  0.1757 -0.1383
11767W        W28614  12.423  15.213   5.394 -0.0670 -0.1820 -0.1361
11768W        W28615  12.568   7.632  15.977  0.0654 -0.2124  0.0429
11769W        W28616  16.705  17.922   3.093 -0.1025 -0.1760  0.0245
11770W        W28617   5.703   3.835   3.004 -0.0189  0.2736  0.1995
11771W        W28618   2.588   3.520   3.511  0.0660  0.2112  0.0186
11772W        W28619   3.772  17.312  15.520  0.0415  0.1512  0.0323
11773W        W28620  11.594   1.299   2.620 -0.1798 -0.0761 -0.0854
11774W        W28621   1.537   3.105  16.406  0.0238  0.2157  0.1281
11775W        W28622  17.428  15.080  12.006  0.1382 -0.0938  0.3115
11776W        W28623   7.245   8.674  13.984  0.0190 -0.2349  0.0993
11777W        W28624   0.774   3.210   1.093  0.0217  0.0207 -0.1628
11778W        W28625  15.408  12.521   0.600  0.4215  0.1282 -0.0326
11779W        W28626   2.606   6.373  13.920 -0.2936 -0.0566  0.2179
11780W        W28627   7.141   9.844   4.854  0.0201 -0.2430 -0.0747
11781W        W28628   1.495   6.622  16.698  0.1223 -0.0177  0.0872
11782W        W28629   8.520   5.456   0.198 -0.2441  0.1715  0.3366
11783W        W28630  16.498   1.302  11.852 -0.0373  0.1960  0.1518
11784W        W28631  13.161   6.350   5.065  0.0570  0.1675  0.3934
11785W        W28632  15.016  16.193   1.279  0.1032 -0.1449 -0.0566
11786W        W28633  17.371  15.263  13.253  0.2247  0.2352 -0.0410
11787W        W28634  15.084  12.483  14.472  0.0007  0.3380  0.0802
11788W        W28635  10.171   0.037   1.762  0.0972 -0.0196 -0.0689
11789W        W28636   0.452  16.895   1.277 -0.1565  0.0851 -0.1858
11790W        W28637  15.868   7.994  11.737  0.2891  0.1583  0.0110
11791W        W28638  16.920   1.581  11.531 -0.1076 -0.3165 -0.1635
11792W        W28639   9.715   2.621   3.880 -0.1688  0.0939  0.1967
11793W        W28640  17.241   0.824   0.959  0.0294 -0.0782  0.1684
11794W        W28641   1.915  13.139  12.320 -0.1301 -0.1210 -0.1668
11795W        W28642  12.154   8.094   3.338  0.0556  0.1533  0.1455
11796W        W28643   0.144   5.607  14.450  0.1113 -0.0104 -0.2381
11797W        W28644   5.942  10.802  12.842  0.2738  0.1112 -0.1634
11798W        W28645  11.973   9.090  13.306 -0.2790 -0.0213  0.0853
11799W        W28646  14.937  16.867   5.087 -0.2397  0.2579  0.0718
11800W        W28647  10.069   1.941  15.706 -0.1052  0.0087 -0.1312
11801W        W28648   0.551  15.274  11.322  0.1775  0.0490  0.0454
11802W        W28649  14.185   6.335   5.510  0.1122 -0.3847 -0.1184
11803W        W28650   1.960  12.870  13.933  0.0264 -0.1457  0.0033
11804W        W28651   7.510   2.192   0.206  0.0554 -0.0474  0.0459
11805W        W28652  13.675   7.828   3.284 -0.3035 -0.0319 -0.1872
11806W        W28653  15.878   2.209   0.070 -0.0089 -0.0387 -0.1857
11807W        W28654  10.885  16.349  12.698 -0.2699 -0.4140  0.0729
11808W        W28655   4.866  12.132   0.909  0.0886 -0.0196 -0.0332
11809W        W28656   3.991   3.154   0.184 -0.2130  0.0005  0.1148
11810W        W28657  15.299  11.697  13.134 -0.1094 -0.0009  0.1795
11811W        W28658  13.192   0.025   4.167  0.0969 -0.2233 -0.0322
11812W        W28659  11.848  17.223   1.451 -0.3144 -0.4249 -0.0715
11813W        W28660  14.165  17.531   2.007 -0.0940  0.3159 -0.0574
11814W        W28661   3.274   8.551   0.832  0.0616  0.1336 -0.0682
11815W        W28662   5.886   5.868  12.643 -0.0779  0.1379  0.0680
11816W        W28663   7.728  17.445  11.640 -0.3685 -0.0286 -0.2483
11817W        W28664   6.826   4.442  14.623  0.0951  0.0349 -0.2285
11818W        W28665  12.575  10.659   5.304 -0.0310  0.0069 -0.1024
11819W        W28666  13.289   1.273   0.684  0.0226 -0.0237  0.0540
11820W        W28667   4.804   9.622   2.798 -0.2347 -0.1704  0.1762
11821W        W28668   5.540   6.776   5.901  0.0352 -0.1182 -0.1530
11822W        W28669   9.386   4.748  13.893 -0.2104 -0.0534  0.2576
11823W        W28670  14.475   6.056   0.248  0.1661 -0.1661 -0.0319
11824W        W28671   5.287  11.593   0.771 -0.1641 -0.2254  0.3160
11825W        W28672  13.245   5.417  14.633  0.2030  0.1150 -0.1102
11826W        W28673   5.616  10.892   3.856 -0.2259 -0.0347 -0.1325
11827W        W28674   9.581  13.455  13.471 -0.2955  0.3144 -0.3491
11828W        W28675   5.007   8.725   4.220 -0.1549  0.0711  0.0067
11829W        W28676   4.143   7.864  11.952  0.2843  0.2440 -0.1335
11830W        W28677   4.531   3.484   2.816 -0.0777  0.2594 -0.2695
11831W        W28678   2.711  13.831   6.165  0.1793 -0.2276 -0.4420
11832W        W28679   0.647  14.261  11.711 -0.2174  0.0078 -0.2037
11833W        W28680  14.980   3.593   3.393  0.0086  0.3023 -0.3021
11834W        W28681   6.237  17.884  14.061 -0.2600 -0.2873  0.1686
11835W        W28682  16.672  13.917   0.376 -0.4457  0.1955 -0.0503
11836W        W28683   6.576  16.092   2.718  0.1764 -0.1155 -0.0215
11837W        W28684  12.623  11.388   1.624 -0.0568  0.0073 -0.1031
11838W        W28685   4.789   4.468   4.968 -0.0125  0.0965 -0.3160
11839W        W28686   2.676   0.648   1.965  0.0855 -0.3541 -0.0154
11840W        W28687   2.389   7.232  12.249 -0.0371 -0.1325 -0.3474
11841W        W28688   7.541   4.008  11.513 -0.0789  0.1066  0.0581
11842W        W28689  14.223   2.751  12.570 -0.0512  0.0087 -0.2359
11843W        W28690   8.287   1.125  13.415 -0.1279  0.0379 -0.2616
11844W        W28691  11.654   0.116  15.942 -0.4557  0.1044 -0.1901
11845W        W28692  17.686   1.698   5.198  0.3580 -0.1485  0.1031
11846W        W28693   6.302   9.189   2.558 -0.0238  0.1284  0.0318
11847W        W28694   4.192  17.015  12.243  0.0306  0.0772 -0.1806
11848W        W28695   6.982   0.836  13.579 -0.3090  0.0643  0.0270
11849W        W28696   1.140   0.734   6.067  0.0483 -0.0079 -0.0695
11850W        W28697   9.209  10.602  12.813  0.0077 -0.3436 -0.0061
11851W        W28698   3.596  12.601   3.485 -0.1611  0.0623 -0.1250
11852W        W28699  10.679  11.971  14.308 -0.1194 -0.1525 -0.0601
11853W        W28700   4.562  10.342  15.869 -0.1169  0.0534 -0.3949
11854W        W28701   5.709  10.292  15.787  0.2032 -0.2047 -0.0094
11855W        W28702   8.886  11.976   1.002 -0.0170 -0.0453  0.1222
11856W        W28703   2.642   4.641   2.700 -0.2321 -0.3100 -0.0725
11857W        W28704  12.323  10.160   5.225  0.0181 -0.1270 -0.3368
11858W        W28705  10.114  16.738   2.366  0.1052 -0.1100 -0.4764
11859W        W28706   7.905  14.573  15.358  0.1314  0.2554  0.4075
11860W        W28707  14.457   4.708   5.986 -0.1796  0.1733  0.2310
11861W        W28708   8.119   9.822  16.145  0.1600 -0.0908 -0.1389
11862W        W28709   5.543  15.399   0.228 -0.0142 -0.1430  0.1587
11863W        W28710   6.564   5.762   0.099 -0.1554 -0.1287 -0.2311
11864W        W28711  10.954   1.103  16.362 -0.1005  0.0839  0.2463
11865W        W28712  13.527   9.243   5.387  0.1951  0.2063  0.2977
11866W        W28713  14.570  15.533  12.349 -0.0465  0.1077 -0.0107
11867W        W28714   1.212  13.544  11.625 -0.1184  0.1016  0.1359
11868W        W28715  15.255  10.120  13.255 -0.0779 -0.0020 -0.1555
11869W        W28716   5.136   9.063  14.945 -0.0537 -0.0174 -0.1656
11870W        W28717  10.851   9.010  16.273  0.0977  0.1849 -0.0233
11871W        W28718   6.481   9.259   6.430 -0.1983 -0.2415 -0.2005
11872W        W28719   9.653  16.318   1.100 -0.0594 -0.1176  0.0346
11873W        W28720  10.046   7.293  13.320  0.0857  0.1460 -0.0881
11874W        W28721   3.749  12.343  13.761 -0.0930  0.0335 -0.0855
11875W        W28722   4.392  11.468   0.972  0.0361  0.0345 -0.0962
11876W        W28723   4.906  14.972   5.282 -0.0042 -0.3165 -0.2435
11877W        W28724  11.744   2.866   4.118  0.1838 -0.2015 -0.2555
11878W        W28725   1.790  10.286  15.489  0.0665  0.1140 -0.0107
11879W        W28726  11.405  17.815   3.246 -0.0626 -0.1787 -0.2493
11880W        W28727   0.162   3.131  16.349  0.3029  0.2292  0.0594
11881W        W28728  10.394   7.238  16.141 -0.2270 -0.0513 -0.0209
11882W        W28729   5.434   4.970   2.412 -0.1233  0.2589  0.0216
11883W        W28730  11.525  14.604   1.333  0.1851  0.3863  0.0951
11884W        W28731  12.027   1.040  12.342 -0.2689 -0.0136 -0.2294
11885W        W28732   0.507   2.269   2.051  0.1869  0.0299 -0.0831
11886W        W28733   5.060  17.395   4.357 -0.1203 -0.0727  0.3488
11887W        W28734  15.784   5.064  14.450  0.1313 -0.0317 -0.4302
11888W        W28735  13.930   5.139   1.795  0.0201 -0.5070  0.1813
11889W        W28736   5.630   2.422  13.864 -0.2035 -0.2077 -0.0442
11890W        W28737  14.943  15.108  16.477  0.2112  0.0654 -0.2283
11891W        W28738  14.218  16.716   4.824 -0.2485  0.0096  0.1335
11892W        W28739  13.282   8.396  13.220  0.1062  0.1986  0.0551
11893W        W28740   2.214   9.234   3.438  0.2727  0.0773 -0.0303
11894W        W28741  17.268   9.062   3.007 -0.1148 -0.1109  0.0139
11895W        W28742   4.470   3.396   1.241  0.1022 -0.0632  0.0022
11896W        W28743  14.490  15.474   1.590 -0.0114  0.2689 -0.1611
11897W        W28744  13.752  13.965  16.035 -0.0214  0.1290  0.1488
11898W        W28745   6.457   9.321  13.961 -0.1301  0.2021 -0.1986
11899W        W28746   9.325  10.929   3.104  0.1022 -0.0677  0.1493
11900W        W28747   1.139  13.144  14.297 -0.0663  0.0525  0.0661
11901W        W28748   8.451  10.021   4.899 -0.0882  0.4038 -0.2180
11902W        W28749   1.425   6.434   1.245  0.3046  0.0574 -0.2783
11903W        W28750  10.325  15.805   1.514  0.2001  0.0340 -0.0694
11904W        W28751   1.096   4.393   0.386  0.0330 -0.0707 -0.3237
11905W        W28752  13.079   3.644  13.738 -0.1844 -0.2123 -0.1143
11906W        W28753  16.905   8.197  14.309  0.0301  0.1999 -0.0023
11907W        W28754   5.118  17.259   1.695  0.2640  0.2760 -0.1270
11908W        W28755   4.185  11.232  14.315  0.2460  0.0535  0.0072
11909W        W28756  10.913  15.812  12.629 -0.1988  0.0957  0.1388
11910W        W28757  13.795  14.533   4.548  0.0327 -0.1679  0.0021
11911W        W28758   4.925   7.806   3.292  0.3962 -0.1451 -0.3079
11912W        W28759  13.436  12.775   3.282  0.3461  0.3895  0.1386
11913W        W28760  17.945   9.279   0.725  0.0059 -0.0729  0.0390
11914W        W28761  15.526   7.242   2.421 -0.2030  0.3152 -0.1097
11915W        W28762  10.502  17.123  16.388 -0.0921  0.1598 -0.0668
11916W        W28763  11.158  10.265   3.504  0.0764  0.0534 -0.0177
11917W        W28764  17.028  15.959  14.693 -0.3291 -0.0713 -0.1360
11918W        W28765   9.368  17.505   0.444 -0.0825 -0.1574  0.3299
11919W        W28766   9.806  16.358   2.079 -0.0347  0.0422 -0.1109
11920W        W28767  11.286  16.799  13.317 -0.0137 -0.0428 -0.1919
11921W        W28768  10.764   0.529  14.219 -0.0528  0.2347  0.1825
11922W        W28769  10.679  13.041   5.524  0.3534 -0.1500  0.0218
11923W        W28770  17.790   5.658  16.650  0.2174  0.1132  0.0403
11924W        W28771   5.606   2.830  14.241 -0.2223 -0.0951 -0.0079
11925W        W28772  14.460   6.596  16.796  0.1742 -0.0721  0.1116
11926W        W28773   4.588   4.980   5.158 -0.0520  0.2133  0.0898
11927W        W28774  15.471  11.807  16.537 -0.0716 -0.0029  0.0969
11928W        W28775  13.027   3.364  12.823 -0.0542  0.2617  0.0588
11929W        W28776  14.956   5.034  12.415 -0.0119 -0.1500  0.2324
11930W        W28777  13.438  10.240  14.751  0.2318  0.1166 -0.1206
11931W        W28778  13.481  12.527  14.327  0.2209 -0.4041 -0.0715
11932W        W28779  12.693  11.363  13.532 -0.3036 -0.1682  0.2487
11933W        W28780  17.500   0.442   3.225  0.0443  0.3083 -0.0144
11934W        W28781   7.217  16.175  12.850  0.2774 -0.1830  0.0774
11935W        W28782   7.141  14.787   0.713 -0.0981 -0.0386 -0.0513
11936W        W28783   2.991   8.895  13.716 -0.0841  0.1551  0.0112
11937W        W28784   2.317   7.681  15.356  0.0921 -0.3648  0.1857
11938W        W28785  16.199   8.855   5.664 -0.2258  0.0324  0.4286
11939W        W28786  11.409   4.749   3.574  0.1770 -0.0960 -0.2176
11940W        W28787  10.507  16.793   3.711  0.1411  0.1382 -0.0077
11941W        W28788   1.424   2.557   1.535 -0.2440  0.3340 -0.0704
11942W        W28789  16.093  13.973   3.556  0.2433 -0.0586  0.1693
11943W        W28790   5.950   0.299  13.861 -0.2158  0.1688 -0.1150
11944W        W28791   6.292  11.100   2.764 -0.1179  0.2387  0.0023
11945W        W28792  16.532  14.442   3.408 -0.0725  0.1055 -0.1126
11946W        W28793  13.218   1.239  11.899  0.1762  0.2075  0.2715
11947W        W28794   4.216  12.357   3.866  0.0211 -0.1820 -0.0921
11948W        W28795   4.495  14.843  15.324  0.5109 -0.2630  0.1644
11949W        W28796  13.959   8.278   4.507  0.0669 -0.2347 -0.1132
11950W        W28797  10.648   9.872   4.477 -0.0254  0.2485 -0.0298
11951W        W28798   9.015  12.473   3.044  0.2372 -0.2390  0.0418
11952W        W28799   0.072   9.592  15.207  0.1945 -0.0964  0.2240
11953W        W28800  13.850   7.502  14.639 -0.2280 -0.2556  0.0128
11954W        W28801  16.932  13.867   5.741 -0.0853 -0.2603  0.2285
11955W        W28802  17.401   7.589   0.261 -0.0361  0.4735  0.0359
11956W        W28803   3.446   8.332   4.993  0.0721 -0.4103 -0.0310
11957W        W28804  16.798  12.621  14.098  0.0359 -0.0397  0.0055
11958W        W28805  16.512  12.158  14.194  0.1810  0.0851  0.1868
11959W        W28806  10.920  10.691  14.528  0.1558  0.0743  0.2025
11960W        W28807   3.189   2.007   0.076 -0.0060 -0.0811  0.1373
11961W        W28808  11.332  14.195  13.558  0.1989  0.1260 -0.2958
11962W        W28809   9.462   8.605   0.007  0.2436 -0.1816 -0.2271
11963W        W28810   5.501   2.202   3.545 -0.0470 -0.2566  0.4077
11964W        W28811  12.495   2.198  12.846 -0.1597 -0.1463  0.1102
11965W        W28812  16.501  17.441   0.909 -0.0197 -0.0485  0.2095
11966W        W28813   5.333  14.245   3.359 -0.2287 -0.0299 -0.1945
11967W        W28814   9.359  14.323   3.602 -0.0242  0.2453 -0.0331
11968W        W28815   1.834   4.641   1.127  0.1375  0.3298  0.0098
11969W        W28816  17.218  11.862  14.426  0.0157 -0.1571  0.0181
11970W        W28817  13.069   1.370   4.174  0.1911 -0.1708  0.1957
11971W        W28818  15.329  16.188  13.050 -0.2931  0.0485 -0.0455
11972W        W28819  16.808  10.651  16.293 -0.0137  0.0659 -0.4605
11973W        W28820   6.527   8.674   3.219 -0.1547  0.3170  0.0981
11974W        W28821  16.669   8.023   6.080 -0.0745 -0.1866  0.3292
11975W        W28822   1.102  13.927  15.524 -0.0381 -0.2696 -0.2005
11976W        W28823   3.246   2.404   5.270 -0.1642 -0.1118  0.2119
11977W        W28824   7.940   7.409   1.374  0.0451  0.1584 -0.0895
11978W        W28825  14.830  16.846  16.140  0.1701 -0.0090 -0.2040
11979W        W28826   4.736   2.687   0.112 -0.0878 -0.1798 -0.0658
11980W        W28827  17.032   9.675   3.887 -0.0112  0.0068 -0.3521
11981W        W28828  10.242  11.157   5.161 -0.1808 -0.2059 -0.2905
11982W        W28829  13.009   7.297   5.516  0.0104  0.3190 -0.0207
11983W        W28830  11.743  13.534   5.108  0.0969 -0.0865  0.0105
11984W        W28831   2.065   3.748   5.455 -0.1079 -0.0543  0.2715
11985W        W28832  17.384   1.887  13.196  0.3313  0.1089  0.1573
11986W        W28833   0.284  17.367  16.450  0.1916  0.2298 -0.0387
11987W        W28834   2.582   5.560   5.438 -0.0008 -0.1083  0.2590
11988W        W28835  12.424  15.972   0.409 -0.1637  0.2488 -0.1276
11989W        W28836   7.226  10.242   2.073  0.2795  0.4306 -0.0467
11990W        W28837  13.107  13.203  16.091 -0.1364 -0.1285 -0.1040
11991W        W28838   2.117   5.829   0.741  0.0296 -0.1110 -0.0099
11992W        W28839   7.581   8.432  13.613 -0.0941  0.0681  0.3549
11993W        W28840  15.318   2.202  13.223  0.1266 -0.0364 -0.0050
11994W        W28841   2.443   8.913   4.532  0.2121 -0.2973  0.1201
11995W        W28842  13.782   7.145   3.176 -0.1295 -0.0505 -0.0304
11996W        W28843   6.992  16.388   2.701 -0.1153 -0.1312  0.0303
11997W        W28844   3.839   2.319  13.686 -0.1060  0.3279 -0.0005
11998W        W28845  11.630   8.572  11.880 -0.2731 -0.0451 -0.1311
11999W        W28846  15.633  14.617   2.050 -0.0644  0.0023 -0.1354
12000W        W28847  11.736   4.074   4.844 -0.3194  0.0876  0.2820
12001W        W28848  17.457   3.145   4.410 -0.0983  0.1587  0.0675
12002W        W28849  15.742   7.752   1.574  0.0487 -0.2186  0.1418
12003W        W28850   9.024   6.887   5.363 -0.0369 -0.2505  0.0432
12004W        W28851   5.830   8.040   2.637 -0.4310 -0.0892 -0.0836
12005W        W28852   7.553   5.316  12.791  0.0732  0.0287 -0.1911
12006W        W28853   8.366  15.634   5.466 -0.2029  0.1775  0.0573
12007W        W28854   0.457   8.807   4.001 -0.0514  0.0580  0.0531
12008W        W28855   2.225  15.820   2.196  0.0897  0.1439 -0.2692
12009W        W28856   0.098  13.547  15.011  0.2300 -0.1972 -0.1040
12010W        W28857  16.952   9.114  11.895  0.2202  0.0147  0.1224
12011W        W28858   0.149   4.263  12.622 -0.0719  0.3192  0.1668
12012W        W28859  10.675   3.815   1.391  0.2359  0.0122 -0.1714
12013W        W28860   1.819  13.281  13.608  0.0672 -0.1606  0.0219
12014W        W28861   0.703   5.793   4.278 -0.0671  0.2754 -0.1530
12015W        W28862   3.718   6.606  15.560 -0.0272  0.1406 -0.0783
12016W        W28863   2.681   0.077  11.490  0.1631  0.1213  0.0470
12017W        W28864  15.747   0.259   2.018 -0.0389  0.0593 -0.0018
12018W        W28865  14.447   9.613  15.948  0.0399 -0.1372 -0.0414
12019W        W28866   1.330   1.460  13.776  0.2461 -0.2397  0.1318
12020W        W28867   4.312   1.564   4.755 -0.1245  0.1878  0.0373
12021W        W28868   9.839   2.395  13.345 -0.0316  0.3051 -0.0344
12022W        W28869   2.617   4.141  14.814 -0.3692 -0.0360 -0.1204
12023W        W28870   3.313   5.827   4.104  0.1777 -0.0573 -0.3434
12024W        W28871   7.296   6.597   1.527 -0.0628 -0.1182  0.3634
12025W        W28872   8.806   0.582  12.564 -0.0254 -0.3213  0.0844
12026W        W28873  14.669  17.511  11.421 -0.2118 -0.1729 -0.1343
12027W        W28874  14.343  17.693   5.076  0.0236  0.1981  0.1051
12028W        W28875   9.663  14.818  15.591 -0.2214  0.0556  0.1394
12029W        W28876  12.858  11.404  15.382 -0.1457 -0.0922  0.1280
12030W        W28877  15.949   4.482   4.332 -0.1557 -0.2578 -0.1683
12031W        W28878  16.741  11.467  12.530 -0.0124 -0.0784 -0.3176
12032W        W28879   2.808  14.397  15.474 -0.1462 -0.0426  0.3799
12033W        W28880  13.861   4.503  15.385  0.2931 -0.4089  0.1886
12034W        W28881  15.805  12.616   6.285  0.0181 -0.2094  0.2211
12035W        W28882   9.968  14.069  16.071 -0.0589 -0.0293  0.0537
12036W        W28883   9.854  17.413  13.714 -0.0079 -0.1755  0.1992
12037W        W28884   6.199   8.447  13.939 -0.0452 -0.1217 -0.3815
12038W        W28885   3.264   2.642   4.321 -0.0700 -0.0941 -0.0691
12039W        W28886   0.731  15.690  16.297  0.2715  0.0556 -0.1141
12040W        W28887  17.460  11.999   3.636  0.0252  0.0693 -0.2755
12041W        W28888  10.198  15.247  14.082 -0.0855  0.0958 -0.0810
12042W        W28889   3.733   5.374   3.593 -0.0449  0.4321  0.1867
12043W        W28890   7.204  13.125  12.745 -0.2126  0.1359  0.1486
12044W        W28891  13.826  10.656  12.619  0.2908  0.1084 -0.0889
12045W        W28892   2.682  15.662   3.861 -0.0063 -0.0158 -0.0262
12046W        W28893   5.713   4.196  16.791 -0.1406  0.3093  0.5879
12047W        W28894  16.269   7.793  13.770  0.0551 -0.1601 -0.1031
12048W        W28895  11.193   6.515   2.292 -0.0698 -0.0570  0.3691
12049W        W28896   5.279  14.521  13.743  0.0421  0.1390  0.1481
12050W        W28897   9.696  10.210   3.490 -0.1182 -0.1490 -0.5027
12051W        W28898   5.326   9.688   2.760  0.1939  0.1457  0.1141
12052W        W28899   5.017  16.388  13.136 -0.1244  0.0839  0.1355
12053W        W28900  11.738   0.396   1.792 -0.1400  0.5513 -0.2647
12054W        W28901  15.108   2.851   5.441  0.0413  0.1391 -0.1268
12055W        W28902   7.326   3.224  14.783 -0.2256 -0.1139  0.2057
12056W        W28903   6.316   8.770   4.757  0.2966 -0.1293 -0.0317
12057W        W28904   9.900   1.074  13.320  0.3183  0.2588 -0.1631
12058W        W28905   2.253   4.840  12.571 -0.0369  0.0697 -0.2138
12059W        W28906  15.675  10.196  11.762  0.2277  0.2839 -0.3648
12060W        W28907   3.266  14.654   0.408 -0.0895 -0.1071 -0.0126
12061W        W28908   7.619  11.739   1.793 -0.1488 -0.0257 -0.0728
12062W        W28909  12.184   0.416   4.708 -0.5477 -0.0416 -0.0750
12063W        W28910  14.653   4.872   4.406 -0.0611 -0.2440 -0.1380
12064W        W28911   0.966  17.826   5.756  0.0328  0.0673  0.0473
12065W        W28912   3.453  13.547  15.610  0.2595 -0.0680 -0.0043
12066W        W28913   6.150   5.767   4.944 -0.5213  0.1144 -0.0029
12067W        W28914   4.747   3.377   3.947 -0.1700  0.0626 -0.2980
12068W        W28915   2.470   1.241   4.854  0.0644 -0.0646 -0.3279
12069W        W28916   9.089   9.881  15.621  0.1245 -0.1363  0.2373
12070W        W28917   5.147  16.029  16.460 -0.1854 -0.2275  0.2364
12071W        W28918  11.050   5.445   1.702 -0.2310  0.0662  0.1365
12072W        W28919   9.677   8.083   5.950  0.1651  0.0416 -0.0230
12073W        W28920   9.958  16.443  11.700 -0.1458 -0.1322 -0.1875
12074W        W28921   3.115  11.897  15.835 -0.0626  0.0942 -0.1291
12075W        W28922  14.190   0.491   0.978 -0.3435 -0.3159  0.0090
12076W        W28923  15.841   2.262   3.238  0.0183  0.0721  0.2167
12077W        W28924  15.593   1.182  12.289 -0.0303  0.2422  0.1413
12078W        W28925   7.237   1.338  13.585 -0.2745 -0.2408  0.1042
12079W        W28926  10.646  17.417   0.511  0.1475 -0.0838 -0.1577
12080W        W28927   3.155  16.346  16.062 -0.0782 -0.0483 -0.0359
12081W        W28928  13.496   2.524  11.935 -0.3565 -0.1002 -0.2079
12082W        W28929  14.880   8.567  14.490 -0.0100 -0.0842 -0.1585
12083W        W28930  13.853   2.528  12.868 -0.0489  0.0708  0.2161
12084W        W28931  10.957   0.106  14.558 -0.1711 -0.0097 -0.2278
12085W        W28932  17.144   4.533  11.635  0.0103 -0.1604 -0.0786
12086W        W28933   5.904   9.959  12.298  0.2672 -0.0258  0.0787
12087W        W28934   2.211  16.507  11.544  0.1629  0.2166 -0.0639
12088W        W28935   4.728   2.463  11.137 -0.2227 -0.2365  0.1320
12089W        W28936   7.508   7.371  14.555  0.2098  0.0178  0.2326
12090W        W28937  16.251  14.475   4.173 -0.1351 -0.4628  0.1035
12091W        W28938  11.504  13.878  12.846 -0.2114 -0.2360  0.0179
12092W        W28939  17.945   6.616   1.836  0.0473  0.1796 -0.1860
12093W        W28940  13.221  15.364  13.205  0.0993 -0.1187 -0.0418
12094W        W28941  11.711  16.279   5.581 -0.0073 -0.0021 -0.0667
12095W        W28942   5.701   8.281  16.799  0.0968 -0.1847 -0.0886
12096W        W28943  14.648   6.938  14.206  0.0777  0.1044  0.1189
12097W        W28944   6.223   2.220   5.436 -0.2249  0.1171  0.1407
12098W        W28945   2.167   8.419   5.281  0.0039 -0.1885 -0.0814
12099W        W28946  16.712   4.563  16.733 -0.0113  0.0490  0.0946
12100W        W28947  10.059  15.530   4.522 -0.0657  0.1219  0.0508
12101W        W28948   2.095   6.530  14.718  0.2442 -0.0872 -0.1586
12102W        W28949   1.458   2.724  12.053 -0.1442 -0.1168  0.1000
12103W        W28950  13.902   4.720  13.153  0.1549  0.1221  0.0103
12104W        W28951  12.640  11.525  16.602  0.2677  0.0178  0.0467
12105W        W28952   6.578  17.086  13.157  0.1497 -0.1315  0.0036
12106W        W28953  16.832   0.423   3.351 -0.1772  0.2053 -0.0874
12107W        W28954   3.603  16.308  13.315  0.2045  0.2392  0.1519
12108W        W28955   9.872   8.311   0.073  0.1944 -0.1082  0.1781
12109W        W28956  11.419  13.544  14.412 -0.3064 -0.0785 -0.1480
12110W        W28957  16.083  17.323  12.960 -0.0059 -0.1461  0.0914
12111W        W28958   1.174   4.086   2.743  0.1874  0.1574 -0.0138
12112W        W28959   1.102  17.083  16.790  0.1439 -0.0899 -0.3325
12113W        W28960  15.899   8.445  12.688 -0.0508  0.1810  0.0009
12114W        W28961   1.536  13.601  13.152  0.0763  0.0030  0.2421
12115W        W28962  14.915   6.667  13.868 -0.0873  0.1637  0.1704
12116W        W28963   4.783   4.691   4.234  0.0707 -0.1812 -0.1752
12117W        W28964   0.920   3.620   3.588  0.0784  0.0837 -0.1167
12118W        W28965   8.124  14.625   0.487  0.1157  0.0212  0.0669
12119W        W28966  14.414  15.186   3.671 -0.1608 -0.1059  0.1255
12120W        W28967  11.266  13.829  16.085  0.1390  0.1653  0.0116
12121W        W28968  10.966   7.549  13.186 -0.0149 -0.1932  0.2205
12122W        W28969   9.672  14.146  14.241  0.1564 -0.2322 -0.0804
12123W        W28970  12.413   2.901   2.464  0.4296  0.4011 -0.0097
12124W        W28971  14.275  12.737  14.628 -0.2720 -0.0765 -0.0278
12125W        W28972  17.058   4.533  16.357  0.0634 -0.2960 -0.0461
12126W        W28973  17.678  14.665  13.162  0.0625 -0.0146  0.0037
12127W        W28974   8.953  11.204  12.684  0.1569 -0.2232  0.0610
12128W        W28975  12.621   6.425   2.822 -0.2138 -0.1515 -0.0026
12129W        W28976   5.509  11.671   0.211  0.0421 -0.1304  0.2748
12130W        W28977  16.309   2.766   1.873  0.1336  0.0399  0.1293
12131W        W28978   1.912  15.334   3.921 -0.3050  0.0476  0.1564
12132W        W28979  14.054  10.005   4.642  0.2046 -0.0938 -0.4619
12133W        W28980  14.190   1.653   3.390  0.2356  0.0488 -0.1128
12134W        W28981  10.441   1.593   1.560 -0.1040  0.1720  0.1909
12135W        W28982  13.377  12.202  15.469  0.0966 -0.1987 -0.0427
12136W        W28983   4.173   1.380   3.920  0.0841 -0.0591  0.0632
12137W        W28984   5.352   8.667   0.881 -0.0421 -0.1845 -0.1106
12138W        W28985   0.570   4.444  15.567 -0.1638 -0.0236  0.3010
12139W        W28986  15.153  16.965  12.475 -0.1536  0.1785 -0.1486
12140W        W28987  11.583  10.090  16.410  0.1749  0.0928  0.1090
12141W        W28988   0.166   8.412   3.709 -0.0115  0.1891 -0.1900
12142W        W28989  16.416  13.659  12.361  0.1000 -0.0810  0.1149
12143W        W28990  11.793  15.245   2.833  0.1003  0.2468 -0.3557
12144W        W28991  13.592   0.874   1.743 -0.2173  0.0424  0.1227
12145W        W28992   6.872  16.957  16.593 -0.0886  0.0574 -0.0070
12146W        W28993   3.134  17.452  15.864  0.0010 -0.1128  0.1747
12147W        W28994   1.082  11.577   5.149 -0.3157  0.1187 -0.0409
12148W        W28995   8.181   3.994  12.814  0.2423  0.1231  0.1649
12149W        W28996   6.154   3.022   1.340  0.1637  0.1507 -0.3833
12150W        W28997   4.328   2.194   4.944  0.0258 -0.3083  0.0727
12151W        W28998   1.697   9.068  15.538  0.1035 -0.0580  0.0708
12152W        W28999   5.727  14.129  13.664 -0.0713  0.1587 -0.1504
12153W        W29000   8.296   5.814  11.855  0.1471 -0.1411  0.0934
12154W        W29001  16.687   5.121  15.756  0.0080 -0.1500 -0.3421
12155W        W29002   6.041  12.323   3.305 -0.1973 -0.1311  0.1057
12156W        W29003   0.583   2.493   1.577  0.3274 -0.2253 -0.2858
12157W        W29004   3.527  10.281   1.473 -0.1379  0.1954  0.0550
12158W        W29005   9.288   3.255   1.743 -0.0336  0.1592 -0.1268
12159W        W29006   0.086  10.326   1.777 -0.0199  0.3302 -0.0541
12160W        W29007  10.663  15.281  15.043  0.2477  0.0415  0.0493
12161W        W29008  13.281  13.545   5.605  0.1941 -0.1816 -0.0595
12162W        W29009  15.337   6.552  14.765 -0.3959 -0.1026  0.0678
12163W        W29010  11.819   0.079  12.641 -0.1455 -0.1250 -0.2583
12164W        W29011  12.129   3.677   3.059 -0.1857  0.1182 -0.4505
12165W        W29012   2.105   1.427   0.334  0.0549  0.0736  0.1370
12166W        W29013  17.894   2.464   4.700  0.1880 -0.2212 -0.2299
12167W        W29014   5.739  16.717  14.318 -0.0211 -0.2479  0.1188
12168W        W29015   2.446   3.799  13.480 -0.1123 -0.1005  0.1623
12169W        W29016   4.693   8.549   1.638  0.0731  0.0931  0.2151
12170W        W29017  10.031   6.603   0.277 -0.1856  0.4033  0.1718
12171W        W29018  17.753   2.718  11.508  0.1611 -0.2381 -0.3846
12172W        W29019   2.731  11.750  12.044 -0.2100  0.1439 -0.2913
12173W        W29020  15.817  12.863  12.565  0.0919  0.3526  0.0561
12174W        W29021   8.444   6.694   3.726  0.2151  0.1016  0.0045
12175W        W29022  11.744  15.289  14.888 -0.2252 -0.0021 -0.4968
12176W        W29023  15.210   6.851   2.468  0.0418  0.1517 -0.2972
12177W        W29024   4.348  17.243   4.179 -0.0102  0.0039  0.0027
12178W        W29025   5.686   9.522  13.164 -0.2326 -0.2385 -0.5212
12179W        W29026   9.221  11.428   3.016 -0.1287 -0.3622 -0.2759
12180W        W29027  12.620   4.119  14.475 -0.0078  0.0234  0.1986
12181W        W29028  15.619   6.467  14.272 -0.0446  0.0344  0.0410
12182W        W29029  13.211   5.965   4.664  0.1145 -0.1929 -0.1005
12183W        W29030  12.788  16.125   2.923  0.1203 -0.1110 -0.0487
12184W        W29031  10.776   4.457   6.208 -0.0545  0.0458 -0.3049
12185W        W29032   9.309   3.456   1.313  0.0572  0.4262  0.0168
12186W        W29033   1.407  16.214   3.263 -0.0160 -0.3589 -0.2181
12187W        W29034  14.781   8.898   4.937 -0.1413 -0.0441 -0.0275
12188W        W29035  15.139   1.507   1.434 -0.0809  0.0998 -0.0584
12189W        W29036   2.685  13.186  16.291  0.1143 -0.3734 -0.2189
12190W        W29037   8.493  13.271   2.256 -0.1413 -0.0040  0.0335
12191W        W29038  16.505   9.023   2.946 -0.3084  0.1477  0.2996
12192W        W29039  17.611  12.752   4.636 -0.1399 -0.2651 -0.0837
12193W        W29040   1.892   7.719   4.871  0.0610 -0.3314 -0.2207
12194W        W29041  11.466   5.413   0.917 -0.0927  0.1479  0.1130
12195W        W29042   8.403   6.096  13.397 -0.2544  0.1855  0.0275
12196W        W29043  10.809  16.838   1.919 -0.0421  0.1500 -0.3059
12197W        W29044  12.639   2.769   0.057 -0.0597  0.3387 -0.2247
12198W        W29045   0.102   0.091  11.381  0.0978 -0.1661  0.0655
12199W        W29046   5.036   4.259  14.474  0.0130 -0.4759  0.0764
12200W        W29047  17.415   7.361   2.349  0.0706 -0.0281  0.2460
12201W        W29048   2.847  12.340   0.210  0.0299  0.1650 -0.1780
12202W        W29049   6.056   3.711  15.872  0.0816  0.2092 -0.2786
12203W        W29050  15.645   1.240  16.094  0.1797 -0.0308  0.1146
12204W        W29051   2.337  12.917  12.324  0.2893 -0.2355 -0.0808
12205W        W29052   4.740  13.624   0.210  0.0875 -0.2443 -0.1573
12206W        W29053  16.558  13.214   0.580  0.2056  0.1264 -0.1429
12207W        W29054   0.858   2.466   2.397  0.1228  0.0681 -0.1524
12208W        W29055   1.714   3.770  15.869  0.0515 -0.1359  0.0687
12209W        W29056  15.803   6.004  11.837  0.3330 -0.3113  0.2309
12210W        W29057  12.524  12.327   6.380 -0.3100  0.0858  0.0046
12211W        W29058  12.829  10.749  15.899  0.2205 -0.0862 -0.2077
12212W        W29059   0.781   6.766   0.484 -0.2931  0.3064  0.1188
12213W        W29060  11.101   3.124  16.157 -0.0460  0.0157  0.3353
12214W        W29061  14.412   8.237   4.255  0.0701  0.2938 -0.1118
12215W        W29062   4.335  16.816   4.951  0.1892  0.2343 -0.2894
12216W        W29063   9.276  12.500   0.892  0.0196 -0.0838 -0.0567
12217W        W29064  12.614   0.787  16.122 -0.0363 -0.0233 -0.1041
12218W        W29065  10.141   5.991   4.075 -0.2706  0.0264 -0.0366
12219W        W29066   9.383  16.922  12.375  0.0195 -0.0695  0.0170
12220W        W29067  13.833   4.259   4.336 -0.0697 -0.0775  0.2317
12221W        W29068  12.189  13.134   2.953  0.0113  0.1101 -0.1744
12222W        W29069   2.244  14.575  14.219  0.0484 -0.0324 -0.3910
12223W        W29070  12.301  10.252  14.071 -0.0878  0.2012  0.0178
12224W        W29071   4.711   0.478  15.169 -0.3915 -0.0030  0.0499
12225W        W29072   8.758  17.252  15.093 -0.2812  0.3505 -0.1041
12226W        W29073   4.666   6.602  14.626 -0.1000 -0.1464  0.0218
12227W        W29074  15.107   6.475   2.156  0.2740  0.0481  0.2323
12228W        W29075   8.654   4.604   0.125  0.1874 -0.0531 -0.0159
12229W        W29076  16.169   1.456   6.269  0.0251  0.2864  0.0565
12230W        W29077   0.589  12.610   2.132  0.0499 -0.0474 -0.1351
12231W        W29078   2.585   9.446  15.090  0.2037 -0.0278 -0.1378
12232W        W29079  17.616  14.310   4.150 -0.0178  0.0721  0.0304
12233W        W29080   3.322   2.410  15.462  0.1999 -0.1337 -0.2276
12234W        W29081   4.416  15.912   0.939 -0.3279  0.1040  0.5762
12235W        W29082   2.906   1.966  14.539 -0.1483  0.2350 -0.0840
12236W        W29083   9.102   0.453   0.945 -0.1330  0.2157 -0.1919
12237W        W29084  10.882  14.829  11.956 -0.0607 -0.0065 -0.1882
12238W        W29085   4.453   5.211   5.632  0.0447 -0.0562  0.0334
12239W        W29086  12.943   4.125   4.708 -0.1114 -0.2632 -0.1125
12240W        W29087   8.024  12.129  13.829 -0.1704  0.3322  0.2280
12241W        W29088   7.510   3.372  15.223 -0.0598  0.3402 -0.0495
12242W        W29089   8.552   6.965   3.314  0.0595 -0.3481 -0.0869
12243W        W29090  12.140  14.013  13.497  0.0019  0.2124 -0.1403
12244W        W29091   7.956   1.074  11.424 -0.0272 -0.0803  0.4345
12245W        W29092  15.815   2.326   5.226 -0.0507 -0.0409  0.0447
12246W        W29093  14.309  12.752   1.361 -0.1259 -0.0503  0.1050
12247W        W29094   0.500   7.622   4.707 -0.1061  0.1363  0.0024
12248W        W29095  11.433  14.018  14.635  0.0966  0.0520  0.2042
12249W        W29096   5.309   9.424  15.899 -0.1806  0.3018  0.1078
12250W        W29097  11.964   5.361   3.458  0.2809 -0.0272 -0.0546
12251W        W29098  13.972  14.505   0.583  0.1027 -0.1803 -0.2423
12252W        W29099   1.239  17.132  13.910 -0.0984  0.3851  0.0537
12253W        W29100  17.811  13.837   3.585  0.2202  0.0684  0.3828
12254W        W29101   5.800   3.707  11.637 -0.1820 -0.1750  0.1275
12255W        W29102  12.758  10.517  12.463  0.0615  0.2602  0.4379
12256W        W29103   9.947   5.584  11.738 -0.1422 -0.2311 -0.2523
12257W        W29104   6.536   5.024  15.142 -0.0902  0.2325  0.2009
12258W        W29105   9.752   1.627   0.966  0.2339  0.1033  0.0231
12259W        W29106  12.514  12.885  13.542  0.2833  0.0033 -0.2494
12260W        W29107   9.179  12.410   3.485  0.1296  0.5029 -0.1082
12261W        W29108  17.671   4.923   3.070 -0.1329 -0.1278 -0.1218
12262W        W29109  17.066  10.099   3.561  0.1277 -0.0658  0.2347
12263W        W29110   2.029  10.081   3.297 -0.0362  0.1209 -0.1717
12264W        W29111   9.566   3.896  13.849  0.0827 -0.1141  0.0142
12265W        W29112  11.330  15.763  12.170 -0.0032  0.1228 -0.0469
12266W        W29113   5.726   1.270   4.432  0.0545  0.2013 -0.1254
12267W        W29114   0.471  17.758   1.995 -0.1524  0.2144  0.0800
12268W        W29115   2.627   6.500  16.190  0.1015  0.0363 -0.2867
12269W        W29116  17.080   3.541   3.090 -0.0944  0.2105  0.1773
12270W        W29117   1.675   3.617   2.502 -0.0294  0.0432 -0.1837
12271W        W29118  16.749  10.894   5.039 -0.1826 -0.3434  0.0944
12272W        W29119  17.592  10.362   1.056  0.2684  0.2858  0.0976
12273W        W29120   2.697   2.076   0.847 -0.3967  0.1422 -0.0322
12274W        W29121  10.267   7.007   0.334  0.1475  0.3325 -0.0167
12275W        W29122  16.184   4.779  15.183 -0.1927  0.0464  0.1263
12276W        W29123   9.260  12.813  13.405  0.1202  0.0376 -0.0733
12277W        W29124  12.501   7.908   1.660  0.2665  0.0902 -0.1933
12278W        W29125   6.593   2.285   0.421  0.1313 -0.2741 -0.0510
12279W        W29126   1.925  16.593  12.493 -0.2428 -0.1103 -0.2226
12280W        W29127   3.736  14.137   2.311 -0.1898  0.0024 -0.1097
12281W        W29128   2.090   3.520   5.018 -0.0298  0.0753 -0.0811
12282W        W29129  16.084  15.378  12.226 -0.4338  0.1795 -0.1715
12283W        W29130  16.141   5.258   3.931  0.0027  0.0661  0.0688
12284W        W29131   7.221  15.012  11.953 -0.2672 -0.2182  0.2617
12285W        W29132   2.191   6.040  14.910 -0.3512  0.1171  0.0461
12286W        W29133   1.891   1.443   3.359  0.0143  0.2225 -0.1640
12287W        W29134   9.969   6.041  14.734  0.1835 -0.0496 -0.0482
12288W        W29135   2.550   9.743   5.830 -0.0669 -0.2657 -0.3687
12289W        W29136  17.943  14.691  14.183 -0.3198 -0.2275  0.3048
12290W        W29137  11.385  17.067   5.664  0.0252 -0.0971  0.0824
12291W        W29138   0.733  13.841   3.411 -0.1519 -0.1174 -0.1225
12292W        W29139  13.546  13.664  14.142  0.1841 -0.2352  0.2442
12293W        W29140  12.258  13.700   4.379  0.1424 -0.2925  0.2501
12294W        W29141  12.522   9.600   0.969 -0.1381  0.0353  0.2032
12295W        W29142   8.434   1.003  14.013 -0.1739  0.0064  0.0327
12296W        W29143   0.078  12.929  12.193 -0.1500  0.0194  0.1222
12297W        W29144  13.801   5.219  15.006  0.0975  0.1480  0.1599
12298W        W29145   3.648   8.059   3.360  0.1256  0.0228  0.0204
12299W        W29146  14.736   1.844   4.751  0.0912 -0.2516  0.0002
12300W        W29147   6.758   5.849   1.017 -0.1763 -0.2964  0.2691
12301W        W29148   8.341  15.274   5.087  0.0837 -0.1313  0.1541
12302W        W29149  17.058  10.613   3.257 -0.2605  0.1263  0.1126
12303W        W29150   7.993  14.890   4.701 -0.0136  0.1428  0.0870
12304W        W29151   3.742  16.050  12.065 -0.1016  0.0460 -0.0798
12305W        W29152   7.094  16.353   1.511  0.0692  0.2249  0.0783
12306W        W29153   7.191  15.703  15.822 -0.0784  0.3502 -0.1597
12307W        W29154   1.168   3.579   0.408  0.1725 -0.2361 -0.0024
12308W        W29155  12.667   2.355   4.709  0.1327 -0.4006  0.4559
12309W        W29156   0.693   4.369  13.387 -0.1978 -0.1258 -0.0193
12310W        W29157  16.046  16.694   1.628 -0.0723  0.0819 -0.0290
12311W        W29158  13.844  15.866   0.761 -0.0186  0.3032 -0.0472
12312W        W29159   2.159  10.982  14.355 -0.2225  0.0795 -0.3018
12313W        W29160  11.660  16.431  11.695 -0.0173  0.0382 -0.0137
12314W        W29161   1.575  12.498   2.584  0.5108  0.0464  0.1281
12315W        W29162   9.418   2.879  13.525 -0.0303 -0.2850  0.2088
12316W        W29163  11.177   9.815  14.595  0.0845 -0.4101  0.2629
12317W        W29164   0.694  15.841   4.405 -0.3215 -0.0638  0.1933
12318W        W29165   7.698   2.374  11.108  0.1408 -0.1624  0.2997
12319W        W29166   5.429  15.787   0.592 -0.4212 -0.1444  0.0669
12320W        W29167   2.646  15.559   5.119  0.1752 -0.0614 -0.1998
12321W        W29168   6.320   3.566   3.949  0.0624 -0.0816 -0.1503
12322W        W29169  16.280   9.973   0.731 -0.1225 -0.2167 -0.0724
12323W        W29170  13.710   5.806   0.066  0.0919 -0.1083  0.1657
12324W        W29171   8.043   6.485  16.131  0.1255 -0.3093  0.1166
12325W        W29172  17.048   2.317  13.024  0.2299 -0.0786 -0.0780
12326W        W29173  17.584   6.380  15.979 -0.1254  0.0282  0.2679
12327W        W29174  16.908  10.466  15.358 -0.1637 -0.0316  0.2315
12328W        W29175   7.353   4.846   0.663  0.1394 -0.1006 -0.2086
12329W        W29176   4.988  12.694   5.067  0.0633 -0.1155 -0.2727
12330W        W29177   8.174   2.271  14.551 -0.0410 -0.2811  0.2938
12331W        W29178   0.360   5.312  14.755  0.0854 -0.3801 -0.3139
12332W        W29179   3.668  12.971   2.294  0.1382 -0.1319 -0.1213
12333W        W29180   5.161   8.002  13.729  0.0785 -0.0402  0.2194
12334W        W29181  15.694  10.470  16.490 -0.1154 -0.2199  0.0925
12335W        W29182  16.239  15.926  11.344 -0.2985 -0.2900  0.0695
12336W        W29183  15.439   1.185  10.791 -0.3502 -0.3127 -0.0947
12337W        W29184  15.811   7.707  12.168  0.1769 -0.0180 -0.0417
12338W        W29185  10.783  10.508   2.327  0.3263 -0.3415  0.1989
12339W        W29186  14.568   1.711   0.557 -0.3318 -0.1568 -0.0618
12340W        W29187   0.224   4.704   5.028 -0.1015  0.0313 -0.0588
12341W        W29188   2.855  15.426  15.793  0.1268  0.0700 -0.1219
12342W        W29189  10.930   4.839   4.397  0.1118 -0.0798 -0.3465
12343W        W29190  12.546  12.392   3.815  0.2705 -0.1531 -0.1823
12344W        W29191   1.891   2.501  15.320 -0.0708 -0.3422 -0.0904
12345W        W29192  13.145  14.962   4.780 -0.2330  0.0227 -0.0744
12346W        W29193  14.629   2.764  12.911  0.2175 -0.1538 -0.0120
12347W        W29194  12.488   1.086  16.542 -0.0986  0.2156 -0.1048
12348W        W29195   5.372  10.322  15.302 -0.0789  0.0472 -0.3863
12349W        W29196   6.690  13.679   5.912 -0.2289 -0.0786  0.4824
12350W        W29197   4.269   4.766  16.067  0.0790  0.0508  0.2959
12351W        W29198   8.454  15.970   3.620  0.1194 -0.1016 -0.1611
12352W        W29199   0.094   4.294   5.931  0.0045  0.1989 -0.1438
12353W        W29200   7.567  16.898  11.399 -0.1200  0.3032  0.1930
12354W        W29201  11.576   8.217  14.631 -0.0715 -0.2842  0.0722
12355W        W29202   0.412  12.941   3.896 -0.0278 -0.1789 -0.1678
12356W        W29203  15.340  10.606   5.186 -0.0845  0.0364 -0.0971
12357W        W29204  16.118   3.157   2.087 -0.0869 -0.2880  0.0462
12358W        W29205   3.616  10.907   3.485 -0.0105  0.2381  0.0720
12359W        W29206   2.413  15.269  15.680 -0.1326  0.1479 -0.0388
12360W        W29207  17.385  12.828  14.635 -0.1165 -0.1130 -0.1088
12361W        W29208   8.974  16.011   2.639 -0.0744 -0.0001 -0.0873
12362W        W29209  11.086  17.910   2.444 -0.2689  0.1558 -0.1898
12363W        W29210   1.016  12.636   1.805 -0.2815 -0.6089 -0.2523
12364W        W29211  11.850   3.645   5.146  0.1570 -0.3021 -0.1268
12365W        W29212   3.975  11.309  12.316  0.1509 -0.0417 -0.2050
12366W        W29213   3.507  16.946  16.601 -0.3144 -0.3760  0.1013
12367W        W29214  14.151  11.320   0.739 -0.0080  0.0812 -0.2557
12368W        W29215   0.220  17.287  12.260  0.2267  0.0196  0.1773
12369W        W29216   3.118   8.926  14.794  0.2116 -0.0175 -0.0428
12370W        W29217  17.146  13.623  15.227 -0.0065  0.2084 -0.0234
12371W        W29218   2.383   4.660   0.900  0.3342 -0.1783 -0.0843
12372W        W29219   8.377   6.143   2.856 -0.3179 -0.0643  0.1004
12373W        W29220   6.678   1.408   0.891  0.0893 -0.0208 -0.1438
12374W        W29221   9.752   8.965  11.868  0.1476  0.0129 -0.0340
12375W        W29222  13.073   0.708  12.344  0.1148 -0.1056  0.0632
12376W        W29223   1.962  14.088   2.797  0.1635 -0.1622  0.0854
12377W        W29224  12.109   4.854  15.818  0.1015  0.0894  0.2887
12378W        W29225   3.922  10.992   2.162  0.0599  0.0850 -0.0700
12379W        W29226  13.666  17.390  13.191  0.1452  0.1441  0.0538
12380W        W29227  12.413   7.818  14.786 -0.0994 -0.1713  0.1246
12381W        W29228   7.383   9.774   2.080 -0.0292  0.1017  0.3725
12382W        W29229  13.485  13.557  16.169  0.1800  0.2696  0.0697
12383W        W29230   8.262   5.235   2.599 -0.1397  0.0111  0.0583
12384W        W29231   8.002   1.887   0.018  0.1609 -0.3433 -0.1770
12385W        W29232   3.189  15.078   2.463 -0.2490 -0.1084  0.1261
12386W        W29233   5.740  13.644   0.698 -0.4561  0.1014  0.1613
12387W        W29234   8.488   4.579   0.581  0.0363  0.1868 -0.0615
12388W        W29235   7.567  15.839  12.980  0.0727 -0.3685 -0.0724
12389W        W29236   0.088   9.095  12.877 -0.1373  0.0988  0.1018
12390W        W29237  15.898   1.873  15.633 -0.0817  0.2012  0.0198
12391W        W29238   4.519   4.950  12.954 -0.2118 -0.2188  0.3611
12392W        W29239  10.792   7.249   0.320  0.0799  0.3152 -0.1350
12393W        W29240   7.609   0.765  11.210 -0.0835 -0.2160 -0.0097
12394W        W29241  11.006  12.589  16.498 -0.1749  0.1923  0.3057
12395W        W29242  13.374   9.478  14.309 -0.3049 -0.0872 -0.1058
12396W        W29243   2.779   5.027  13.195 -0.1656  0.4491  0.1176
12397W        W29244  16.565  14.858   5.438  0.3122  0.0465  0.1706
12398W        W29245  14.031   7.691   0.273  0.0753 -0.0466  0.3201
12399W        W29246  15.428  14.878   1.673 -0.0782 -0.2244  0.1612
12400W        W29247  13.458  17.702  14.138  0.0680  0.2400 -0.0295
12401W        W29248   1.920  13.994   5.482  0.3784 -0.0572  0.3126
12402W        W29249   0.114  13.582   5.914 -0.0606  0.2902 -0.1270
12403W        W29250   9.122  17.404  11.494  0.0095  0.0192 -0.2790
12404W        W29251   5.591  10.183   4.277  0.1766 -0.0361  0.0670
12405W        W29252  11.279  15.616  13.288  0.2084  0.2664 -0.2015
12406W        W29253  15.128   2.617   4.425  0.1090  0.0428  0.2659
12407W        W29254  14.858   1.689   4.157  0.1842 -0.1126  0.0105
12408W        W29255   8.435   3.731  11.966 -0.1841  0.0291  0.1717
12409W        W29256   5.364  14.233  12.078 -0.3995  0.0141 -0.0610
12410W        W29257   8.780  14.979  14.908 -0.0768  0.2375 -0.0537
12411W        W29258   3.756  10.398  13.820  0.1033  0.1518 -0.1394
12412W        W29259  17.491  15.906  11.846 -0.1848 -0.1514  0.0999
12413W        W29260   0.791   8.143   3.404  0.3978 -0.0884 -0.4435
12414W        W29261   0.133   3.674  12.133  0.1064  0.0906 -0.1448
12415W        W29262   1.868  10.133   0.106  0.0122  0.0747 -0.1129
12416W        W29263   9.439  17.822   1.539  0.0826 -0.0953  0.2691
12417W        W29264   4.572   6.475  15.130 -0.0081 -0.0032  0.0235
12418W        W29265   8.051   6.535  12.378  0.1423  0.1813  0.1518
12419W        W29266   1.056   0.870   1.855  0.1155  0.2014 -0.0256
12420W        W29267   7.951   2.318   2.513 -0.1893 -0.2302  0.3179
12421W        W29268   8.142  10.211   3.183 -0.2643 -0.0372  0.0085
12422W        W29269   9.887   6.963  11.885  0.0269 -0.0397  0.1985
12423W        W29270   7.434  12.071  11.811 -0.0741  0.2874 -0.0222
12424W        W29271   0.103  10.302  14.727  0.0742 -0.1208  0.1974
12425W        W29272  12.530   1.291   2.447 -0.4281  0.0295  0.0342
12426W        W29273  13.070  11.084  16.764 -0.0682 -0.1732 -0.1649
12427W        W29274   0.406   2.965   2.903 -0.0411  0.2510 -0.2567
12428W        W29275   3.600  16.622  16.207  0.1297 -0.1019 -0.4637
12429W        W29276  14.611  15.351   0.342  0.0098  0.1263  0.1659
12430W        W29277   4.779   3.771   1.407  0.0357  0.0084 -0.1778
12431W        W29278   5.839  13.537   5.198 -0.1624  0.2983 -0.2564
12432W        W29279   9.388   8.399   4.624 -0.1868 -0.0936  0.1337
12433W        W29280   3.111   4.479  14.924  0.0048  0.0099  0.0282
12434W        W29281  10.743  11.897   2.927 -0.0852  0.2129 -0.1722
12435W        W29282  13.912   1.794   0.244 -0.0370  0.0347 -0.0401
12436W        W29283   8.376  17.412   3.670  0.1335 -0.1233  0.1114
12437W        W29284   5.243   3.424  16.357  0.0203  0.1621 -0.0679
12438W        W29285  13.454  17.495   0.398 -0.1224 -0.1064 -0.1394
12439W        W29286   9.539  10.809  14.392 -0.2331 -0.0591  0.1197
12440W        W29287  16.902  14.940   4.179  0.2550 -0.1700 -0.1094
12441W        W29288   4.620   8.922   0.059 -0.1381  0.0514  0.2183
12442W        W29289  12.347   1.633   2.055  0.1028  0.3863  0.1876
12443W        W29290   2.654   7.530   4.080  0.3621  0.0736 -0.3102
12444W        W29291  10.576   0.098   5.707  0.1085  0.3184  0.1940
12445W        W29292  15.565   3.855  11.547  0.1248 -0.1554  0.2631
12446W        W29293  11.536   0.887  14.184  0.1343  0.1779 -0.3616
12447W        W29294   2.986   7.854  14.521  0.1992 -0.0877  0.2592
12448W        W29295  15.286   3.819   4.943 -0.0697 -0.0285 -0.1317
12449W        W29296   1.935   0.820  13.242  0.0898 -0.1712  0.3141
12450W        W29297   5.665   7.973   2.042  0.2317  0.0286 -0.0434
12451W        W29298   1.384   9.899   3.610  0.3020  0.1463  0.1643
12452W        W29299  10.826   8.230   2.564  0.0760 -0.0655 -0.2343
12453W        W29300   0.225   9.714   4.667 -0.1063  0.0102  0.0499
12454W        W29301   4.551  16.884  14.435 -0.3478 -0.1989 -0.1394
12455W        W29302  17.403   4.729   5.395 -0.2454  0.1633  0.0765
12456W        W29303  14.325  11.516   1.967 -0.0162  0.0717  0.0451
12457W        W29304  17.709  15.342  13.699  0.2046  0.1639  0.0353
12458W        W29305   9.315   3.524   2.162  0.3821 -0.0139 -0.0346
12459W        W29306   3.857   4.067   3.834 -0.1706 -0.3322 -0.0158
12460W        W29307   2.114  16.597   1.675  0.1886 -0.0694  0.0086
12461W        W29308   8.398   7.488   0.014 -0.0498 -0.0219 -0.2720
12462W        W29309   1.779  11.882   4.546 -0.0380  0.0194  0.3383
12463W        W29310   0.786  10.937   5.163 -0.0237  0.0137 -0.2951
12464W        W29311   7.983   1.995  16.332  0.0412  0.1961 -0.0019
12465W        W29312  15.901  14.665   1.545  0.2686  0.0899  0.1325
12466W        W29313   8.510   3.275  14.990 -0.0735 -0.3465 -0.2047
12467W        W29314  14.996  14.479   3.639 -0.1887 -0.2530 -0.0413
12468W        W29315  13.080  11.218   1.457  0.1459 -0.1629 -0.0530
12469W        W29316   9.742  10.047   4.591  0.0953  0.4942  0.2497
12470W        W29317  17.678   3.619   4.565 -0.2213  0.2014 -0.1685
12471W        W29318   0.113  11.312  13.534  0.0930 -0.0817  0.0765
12472W        W29319   2.175  16.672   5.412 -0.0400  0.2617  0.0825
12473W        W29320  15.016  17.617   4.453 -0.0850 -0.1094  0.1953
12474W        W29321  12.798   5.922  16.250  0.1638 -0.3411  0.4541
12475W        W29322   7.305  16.722  16.577 -0.1337  0.0564  0.0064
12476W        W29323   0.064  11.122  12.694 -0.0433 -0.2694  0.1690
12477W        W29324  10.748   8.651   2.824 -0.0992 -0.2066  0.0321
12478W        W29325   1.792   4.633  16.546  0.1648  0.0711 -0.1230
12479W        W29326  15.309  15.869  14.775  0.1951 -0.1595 -0.1428
12480W        W29327   2.809  15.878   0.465 -0.1988  0.0301 -0.3759
12481W        W29328  13.265  17.001   2.921  0.4754 -0.0047 -0.1986
12482W        W29329   1.633   5.403   4.411  0.1401  0.1439 -0.0234
12483W        W29330   0.604   1.563   1.134  0.0637 -0.3161 -0.0198
12484W        W29331  14.301  11.826  16.298  0.0668 -0.0169  0.2999
12485W        W29332  12.843   5.689  12.901  0.1927 -0.1058 -0.1809
12486W        W29333  11.519   0.743  14.680 -0.1924 -0.1367 -0.1324
12487W        W29334   7.639   6.633   4.749  0.1008  0.0511 -0.0870
12488W        W29335   9.421  16.949   5.506  0.1461 -0.2700  0.3082
12489W        W29336   1.962   0.465   4.217  0.1585  0.3538  0.1903
12490W        W29337   4.521   2.500  13.123 -0.2240 -0.5867 -0.2088
12491W        W29338  17.507   7.635  12.009  0.2036 -0.0618  0.0956
12492W        W29339   2.193   1.679   6.073  0.0132 -0.0873  0.2604
12493W        W29340  13.926   6.481  15.496 -0.4325  0.0313  0.1190
12494W        W29341   1.373  17.219  13.323 -0.0099 -0.0997  0.4014
12495W        W29342  12.438   4.118   4.918 -0.0440  0.0308 -0.1005
12496W        W29343  15.335   4.232  14.214  0.1986  0.1379  0.0026
12497W        W29344   2.180  11.707   4.261  0.3711 -0.1976  0.1913
12498W        W29345   1.193   8.415  12.494  0.2572 -0.1887  0.0447
12499W        W29346   1.261   2.602  11.226 -0.0733 -0.2685  0.1173
12500W        W29347   8.303   8.204   1.892 -0.1678 -0.3814  0.0985
12501W        W29348   9.918   2.659   4.368  0.1277  0.1343  0.0746
12502W        W29349   7.658  12.858  15.852  0.1133 -0.2474 -0.2362
12503W        W29350  15.923   6.415   1.912 -0.1579  0.1119 -0.2101
12504W        W29351  13.657   1.135  11.621  0.1239 -0.0540 -0.1559
12505W        W29352   8.926  17.822  15.137  0.1092  0.0037 -0.2049
12506W        W29353  12.057  17.419   6.362 -0.0470  0.1332 -0.0913
12507W        W29354   1.095   5.673  15.783 -0.1988  0.1365  0.0803
12508W        W29355  10.156  14.686  13.173 -0.1583  0.0601  0.0718
12509W        W29356  12.678  14.545  15.609  0.1642 -0.0204  0.2468
12510W        W29357  11.522  13.301   2.322 -0.0909 -0.0371 -0.0748
12511W        W29358  15.309   4.624   2.264  0.0533  0.1849 -0.0059
12512W        W29359   9.453  16.128  15.157  0.1378 -0.2659  0.2008
12513W        W29360   3.479   8.300   1.218 -0.2220 -0.2391  0.2881
12514W        W29361   5.267   4.771  11.776  0.0343 -0.2432  0.0814
12515W        W29362  15.556  13.545  13.806 -0.1249 -0.1055 -0.1629
12516W        W29363   0.259  14.321   0.318  0.0838  0.0505  0.1200
12517W        W29364   5.978  15.110   3.477 -0.0520  0.3707 -0.0380
12518W        W29365  15.185  11.555  15.471 -0.3877 -0.1731 -0.3597
12519W        W29366   0.646   7.276   1.510 -0.4818  0.2450 -0.1391
12520W        W29367   8.740  11.317   0.743  0.0995 -0.1037  0.3210
12521W        W29368   5.050   3.619  12.561 -0.0460 -0.0108 -0.0330
12522W        W29369   9.284  16.399   3.310  0.0287  0.0539 -0.0039
12523W        W29370   0.778   5.393  16.316  0.1749  0.0910  0.1563
12524W        W29371  13.194  17.409   5.841 -0.0359  0.0174 -0.0064
12525W        W29372   6.687  14.725   3.384 -0.2218  0.0877 -0.1159
12526W        W29373   2.251   6.203   1.087  0.2406 -0.0990 -0.1160
12527W        W29374   8.863   2.634  14.284  0.0864  0.0998 -0.1362
12528W        W29375  16.453  15.903  14.713  0.1798  0.1534 -0.0537
12529W        W29376   0.493   2.478   0.669 -0.1108  0.2462  0.0035
12530W        W29377   6.648   6.139  13.867  0.2984 -0.1719 -0.0273
12531W        W29378   4.221  13.158  13.148 -0.1649 -0.3563 -0.0936
12532W        W29379   4.185   2.325  15.318 -0.1426  0.4621  0.2484
12533W        W29380  10.996   0.125  14.080 -0.1964 -0.1282  0.0063
12534W        W29381  13.460   1.237   0.224  0.2240  0.2466  0.3292
12535W        W29382   6.895   9.255  14.829  0.0967 -0.5066  0.1343
12536W        W29383   0.810   8.573  16.389 -0.1592 -0.1553 -0.1317
12537W        W29384   2.973  12.977   5.422  0.1361 -0.0024  0.2412
12538W        W29385  12.521  13.570   1.512 -0.1409  0.2475 -0.1983
12539W        W29386   7.975   9.493   4.214  0.0477 -0.0555  0.1023
12540W        W29387  14.526   4.133  15.490  0.0659 -0.0380  0.2393
12541W        W29388   4.300  14.213   5.002  0.3191 -0.1829  0.0882
12542W        W29389  15.677  14.100   1.910 -0.0380  0.0022 -0.0331
12543W        W29390   1.357   6.952   0.313 -0.1382 -0.1120  0.3564
12544W        W29391  17.797  17.212   5.398  0.0844 -0.1109 -0.1948
12545W        W29392   9.733   0.616  14.359 -0.3566 -0.1400  0.1312
12546W        W29393   9.832   7.542   4.453  0.1527  0.1755  0.1148
12547W        W29394   9.672   9.457   1.098 -0.3971  0.0213  0.1354
12548W        W29395  17.303   5.760   3.920  0.0837 -0.0422 -0.0670
12549W        W29396   3.743   1.048  12.327 -0.0464 -0.1406 -0.1300
12550W        W29397  11.224  12.078  16.292  0.0127 -0.1378 -0.0813
12551W        W29398  15.416   5.190  11.733 -0.1937  0.0576 -0.1598
12552W        W29399   1.708   6.641  14.345 -0.1767 -0.1839 -0.0425
12553W        W29400  10.626  12.538   4.199  0.3479 -0.2002 -0.3001
12554W        W29401  17.345   8.640   3.185 -0.1663  0.0542  0.1614
12555W        W29402  10.089  13.767   4.610  0.3068 -0.0805 -0.2102
12556W        W29403   0.536  12.150   6.117 -0.0003  0.3935  0.1969
12557W        W29404   4.442   7.448   3.227  0.1246 -0.0236  0.3576
12558W        W29405   4.400  17.013   3.043 -0.3433  0.1408 -0.0373
12559W        W29406   9.903   6.251  12.533 -0.2471 -0.3042 -0.1887
12560W        W29407   1.769   1.531   2.400  0.1239  0.1158  0.2262
12561W        W29408   0.717  12.196   0.298  0.3803 -0.1376 -0.1618
12562W        W29409  13.307  14.878  13.300  0.0677 -0.1843  0.2090
12563W        W29410  15.080  13.944  12.510  0.1806 -0.0906  0.1714
12564W        W29411   4.566  15.653   2.357  0.4718 -0.3544  0.0536
12565W        W29412  14.503   6.069  13.343 -0.0363 -0.0787 -0.0293
12566W        W29413   9.269   0.499  15.163 -0.1340 -0.1421 -0.2082
12567W        W29414   3.112  14.601   5.332 -0.1477  0.1555  0.2238
12568W        W29415   9.223   3.172   5.647 -0.2153 -0.1898  0.0607
12569W        W29416   8.520   5.382   3.531 -0.0505 -0.4856  0.0632
12570W        W29417  13.729   2.933  15.151  0.1260 -0.0885  0.0040
12571W        W29418   9.083  12.559  13.879  0.0553  0.0254  0.1238
12572W        W29419  15.896   0.157  13.507 -0.1315 -0.0670  0.1692
12573W        W29420  13.492  15.826  15.720  0.1482 -0.0845  0.2760
12574W        W29421  15.260   3.388   1.084 -0.2020 -0.2489 -0.0343
12575W        W29422   0.785  15.546  15.599 -0.1567  0.0861  0.0037
12576W        W29423  15.434  10.946  13.885 -0.0381  0.1672  0.2512
12577W        W29424  10.931  16.662  14.962 -0.2646 -0.0492  0.1401
12578W        W29425  15.905   6.748   1.491 -0.0719  0.2289 -0.3330
12579W        W29426   5.465   0.923   0.278  0.0272  0.4887 -0.0959
12580W        W29427  11.710  16.043   1.474 -0.1251  0.0412 -0.0699
12581W        W29428   8.627  17.642  12.167 -0.1940 -0.0807  0.0542
12582W        W29429  16.006   3.855   5.117  0.1569  0.0054  0.1693
12583W        W29430   8.133   1.879   3.450  0.0206  0.1737  0.2257
12584W        W29431   0.820  13.504   2.279  0.2112 -0.0228 -0.0171
12585W        W29432   0.398  16.383  11.925 -0.2098 -0.0091 -0.0213
12586W        W29433  12.307   0.296   2.634 -0.0093 -0.3010  0.0619
12587W        W29434   6.375  13.516   3.642 -0.3463 -0.2487  0.1504
12588W        W29435   9.721   4.363  13.734 -0.2858 -0.1150  0.1023
12589W        W29436   0.981   3.284   3.134  0.0801 -0.0327  0.0373
12590W        W29437  10.944   1.464  16.034  0.2296 -0.1861 -0.0517
12591W        W29438  15.143  10.336  12.803  0.0607 -0.2176  0.0236
12592W        W29439   5.032   1.730  14.574  0.0164  0.0136  0.0732
12593W        W29440   1.569   1.754   4.823  0.1406 -0.0681 -0.1454
12594W        W29441   2.866   4.624   0.678  0.1560 -0.0781  0.0193
12595W        W29442  14.222   5.922  16.125  0.0083  0.1995 -0.0629
12596W        W29443  12.936   6.415   1.130 -0.0066 -0.0927  0.1895
12597W        W29444  10.373   4.140  15.206  0.1571  0.2916 -0.3044
12598W        W29445   8.682  14.435   2.953  0.1509  0.0719 -0.0164
12599W        W29446   0.242   0.888  13.699 -0.0290  0.1180 -0.0227
12600W        W29447  14.650  13.706  13.307 -0.0899  0.2572 -0.0368
12601W        W29448  15.898  16.101  13.386  0.0222  0.1581  0.0454
12602W        W29449   8.418  11.797   3.491  0.2478 -0.2249 -0.2419
12603W        W29450   8.194   2.234  13.317 -0.0326 -0.1470 -0.0841
12604W        W29451   1.526  13.563  15.593 -0.2430 -0.1925 -0.0335
12605W        W29452   8.345  15.850   0.304  0.0721 -0.1509 -0.1968
12606W        W29453   0.740   3.841  11.559 -0.0633  0.0115  0.0387
12607W        W29454   4.206   8.991   0.891 -0.2919 -0.0670  0.1657
12608W        W29455   9.303   1.456   0.534  0.1795  0.2709 -0.0684
12609W        W29456  12.631   3.534   1.459  0.3183 -0.1011 -0.0266
12610W        W29457  15.560   7.816   0.585 -0.0037 -0.1343 -0.0659
12611W        W29458  17.553   8.061   0.376 -0.0311 -0.2378 -0.0318
12612W        W29459   8.473   8.364   0.262  0.0270 -0.0205 -0.0265
12613W        W29460   1.076  16.706   0.454  0.0277  0.0713 -0.0158
12614W        W29461   4.416   9.248  12.702 -0.0630 -0.0180 -0.1831
12615W        W29462  14.870  16.525  15.596  0.1091  0.0198  0.0602
12616W        W29463   0.808  14.597   5.209 -0.1539  0.0188 -0.0451
12617W        W29464   5.744  12.559  12.084  0.1174  0.1800 -0.0476
12618W        W29465  16.903  13.792  14.850 -0.2074  0.1457  0.2063
12619W        W29466   1.782   3.163   5.115 -0.0680  0.1264 -0.0064
12620W        W29467  10.861   8.404  12.033  0.1113  0.1457 -0.0056
12621W        W29468  17.367  15.426  16.393  0.3078  0.2681 -0.0620
12622W        W29469  13.200  15.568   1.810 -0.1304 -0.0737 -0.2533
12623W        W29470   0.461  13.356  15.312  0.1934 -0.2255  0.0184
12624W        W29471   7.100   9.417   5.309 -0.1595 -0.1918  0.2024
12625W        W29472  11.831   7.232  13.152 -0.1043 -0.0361 -0.1469
12626W        W29473   9.654   2.934   4.799  0.0066 -0.2121  0.0195
12627W        W29474  15.247  16.574  14.096 -0.0528 -0.2041  0.0756
12628W        W29475   2.179  17.705  12.714 -0.1407 -0.1130  0.3325
12629W        W29476  17.001   5.862   1.461 -0.1295 -0.0558 -0.0026
12630W        W29477   6.087  15.780  11.906 -0.1022  0.0751 -0.1481
12631W        W29478  13.736  12.882   1.504 -0.0276 -0.0580  0.1963
12632W        W29479   5.676   9.953   3.060  0.0659 -0.1018 -0.0387
12633W        W29480   5.507  11.129  15.249 -0.1144  0.0439 -0.0096
12634W        W29481   8.475   3.717   3.351  0.4407  0.2953 -0.1502
12635W        W29482   6.127   7.863   1.832 -0.1658 -0.0312  0.1235
12636W        W29483   5.484  13.991  16.425 -0.2515  0.0833  0.2068
12637W        W29484  10.177  11.252  13.256  0.1517  0.0677  0.3250
12638W        W29485  16.513   0.812   3.127  0.0134  0.1851  0.1108
12639W        W29486  13.908   0.840   5.969  0.0495  0.3429  0.1249
12640W        W29487   3.320   2.034   1.797 -0.0751  0.0981  0.1788
12641W        W29488   3.682   8.296  13.336 -0.1243 -0.2845 -0.2726
12642W        W29489  15.825  16.694   0.185  0.0417 -0.1391  0.3184
12643W        W29490  10.672  15.205   4.759  0.2898  0.3419  0.1906
12644W        W29491   7.680   3.257  16.709  0.2351  0.3159 -0.0333
12645W        W29492   2.808  11.547   1.668  0.0890  0.0245  0.0603
12646W        W29493  17.213  14.304   5.852 -0.1765 -0.0533 -0.0713
12647W        W29494  10.578  14.361   3.943  0.5210 -0.1659  0.0360
12648W        W29495  15.589   9.243   5.314 -0.3476  0.1941 -0.0671
12649W        W29496  12.685   0.293   1.423 -0.3329  0.2903 -0.0710
12650W        W29497  11.281   2.330   2.161  0.0092 -0.2282 -0.0472
12651W        W29498   9.821   8.172   1.692 -0.1016 -0.1021 -0.0273
12652W        W29499  10.609  15.487  14.135 -0.1515 -0.2790  0.0816
12653W        W29500   4.661   3.803   1.937 -0.2401 -0.0356  0.2191
12654W        W29501   0.821   1.165   4.562  0.2306 -0.0690  0.1455
12655W        W29502  11.636  15.260   5.050  0.0170 -0.1518 -0.1680
12656W        W29503   7.282   9.875  12.989  0.0562 -0.1521 -0.2055
12657W        W29504  15.535  15.002  15.894 -0.2673  0.1524 -0.0868
12658W        W29505   4.245   8.411  12.414  0.2129 -0.1051  0.2566
12659W        W29506   1.859  16.476   4.711 -0.0022  0.4119  0.1372
12660W        W29507  11.506   5.577  15.369  0.2134 -0.1036  0.1212
12661W        W29508  13.318  16.081   1.109  0.0175  0.0817  0.3285
12662W        W29509  15.295   6.907   1.464  0.0126  0.3190  0.1329
12663W        W29510   3.135   3.466  14.913  0.0596 -0.0500 -0.0840
12664W        W29511  12.106   3.445  14.456 -0.1178 -0.1801 -0.1006
12665W        W29512  10.464  17.929   1.282 -0.0474  0.2594  0.0333
12666W        W29513  16.489   7.393  12.462 -0.3085 -0.0054  0.0972
12667W        W29514  12.505  12.247  12.176  0.2613 -0.2366 -0.0368
12668W        W29515   8.306   4.689   4.407 -0.2455 -0.0693  0.1187
12669W        W29516   8.765  11.729   5.666  0.0496 -0.0205  0.0759
12670W        W29517  16.796   7.306  16.375 -0.2083 -0.2858  0.0887
12671W        W29518   0.297   2.224  12.715 -0.1383 -0.0005 -0.3776
12672W        W29519   1.093   4.098   1.739 -0.0851 -0.0941  0.2041
12673W        W29520  13.103   3.856  14.284 -0.1672 -0.1352  0.3357
12674W        W29521   6.211   7.975  14.123 -0.2597  0.2259 -0.2307
12675W        W29522   9.004   7.324  10.612  0.0544 -0.0419  0.3098
12676W        W29523  11.680  10.092  14.767 -0.0089  0.0094  0.4224
12677W        W29524  10.717  11.770   3.863 -0.3487  0.3401  0.0741
12678W        W29525  17.695   6.868   1.296 -0.2577  0.0089 -0.1932
12679W        W29526  12.074  10.068  14.488 -0.2310 -0.2440  0.0421
12680W        W29527   6.620   6.671  13.844  0.0403  0.1539  0.2641
12681W        W29528   1.933   2.195  14.379  0.2050 -0.2006  0.3532
12682W        W29529  16.213   1.103   0.360 -0.0540  0.0637  0.0449
12683W        W29530  13.403   3.064   2.679 -0.2449  0.0479 -0.0429
12684W        W29531   7.988  14.824  13.908  0.6907  0.2601  0.1233
12685W        W29532   8.010  16.631  16.552  0.0557 -0.1148 -0.1133
12686W        W29533   9.164  15.477   2.679  0.0386 -0.2976  0.1281
12687W        W29534  13.837  17.178  15.202 -0.2166  0.0395  0.0759
12688W        W29535   8.033  10.302  12.759 -0.1181  0.2733  0.2461
12689W        W29536   0.908  11.154   0.576 -0.2254  0.1388 -0.1667
12690W        W29537  11.157  13.815  10.964  0.0032 -0.1186 -0.3516
12691W        W29538   8.688   4.307   2.522  0.1873  0.1502 -0.1213
12692W        W29539  14.755  14.857   0.589 -0.0952  0.1120 -0.1100
12693W        W29540   4.723  13.164   5.767  0.1424 -0.1596 -0.1658
12694W        W29541   5.164   3.212  11.902  0.3257 -0.2279 -0.2249
12695W        W29542   4.427   6.802  13.818  0.1452  0.0449  0.1860
12696W        W29543  11.274   4.742  15.021  0.0728  0.0130 -0.0219
12697W        W29544  12.044   7.503   0.476 -0.3035 -0.1897 -0.2587
12698W        W29545   0.241  10.515   2.769  0.5057  0.0503  0.3713
12699W        W29546  10.374   1.056  11.675 -0.1252  0.0791  0.2567
12700W        W29547   9.159  15.365  15.853  0.1006  0.1358  0.0530
12701W        W29548  17.676  12.844   3.276 -0.1412  0.0655  0.0035
12702W        W29549  14.747  10.320  13.195  0.0656 -0.1852  0.0889
12703W        W29550  10.063   4.518   2.066  0.1015 -0.0157  0.1496
12704W        W29551  10.424  17.123   1.747  0.1500  0.1189 -0.0070
12705W        W29552  12.020   7.111   3.231  0.4493  0.0202 -0.1899
12706W        W29553   2.532   6.394  14.451 -0.0062  0.0148  0.1682
12707W        W29554  17.682   6.879   0.493 -0.1257  0.3291  0.0201
12708W        W29555  14.725   2.161   0.686 -0.0613 -0.2028 -0.1994
12709W        W29556   0.098   3.082   1.889  0.1348  0.0143  0.1248
12710W        W29557   3.361   7.525  14.269 -0.0765  0.1694  0.0273
12711W        W29558   7.799  12.707   4.350  0.1845  0.0051  0.0139
12712W        W29559  14.790  10.812   1.024 -0.2543  0.0423 -0.0289
12713W        W29560   5.846   7.566   5.737  0.1175 -0.0903  0.0033
12714W        W29561   3.327   6.625   4.312 -0.1807 -0.0629 -0.0565
12715W        W29562  12.265   5.124  14.875  0.0257 -0.0148 -0.0780
12716W        W29563  15.083  14.139   2.217  0.0375 -0.1620  0.1707
12717W        W29564  15.646   7.127  13.549 -0.0498 -0.1000  0.1084
12718W        W29565   8.474   7.178   1.830 -0.0333 -0.0663  0.0721
12719W        W29566  12.277   7.400  13.339  0.2063  0.1144  0.1034
12720W        W29567   6.936   9.706   3.977  0.2594  0.1854  0.1891
12721W        W29568  10.400  10.682  14.791  0.0879  0.6258 -0.3285
12722W        W29569   3.720   5.765  16.012  0.0571  0.1708 -0.2964
12723W        W29570   3.095  10.707   0.718 -0.2040  0.0029  0.2391
12724W        W29571  12.227  11.534   2.367  0.2886  0.2342 -0.1259
12725W        W29572   4.168   9.780   4.959  0.1952 -0.1810  0.2084
12726W        W29573   7.579  13.025  13.114  0.2588  0.0063 -0.0230
12727W        W29574   4.860  11.308   4.546 -0.0345  0.0427  0.0955
12728W        W29575   6.225   4.044   3.092 -0.0384  0.3043 -0.3127
12729W        W29576   0.443   2.576  13.563 -0.0056 -0.1056  0.1062
12730W        W29577  17.007   9.987  13.375  0.3835  0.0292 -0.1518
12731W        W29578   1.864   3.834   4.712  0.1344 -0.0571  0.0469
12732W        W29579   4.324   7.020   3.548  0.2238  0.3546  0.0465
12733W        W29580   9.269  15.913   1.596 -0.1498 -0.1413  0.1797
12734W        W29581   0.835  16.192  12.931  0.0894 -0.1729 -0.0424
12735W        W29582   9.232   5.160   2.777  0.0278 -0.1958 -0.0816
12736W        W29583  15.410  12.455  14.874  0.1815  0.2865 -0.0688
12737W        W29584  12.668   4.819   4.213 -0.0478  0.3165  0.0504
12738W        W29585  17.796  15.971  12.614 -0.0784 -0.0015 -0.0497
12739W        W29586   8.598   8.339   4.688 -0.3203 -0.0506  0.2187
12740W        W29587   6.430  11.205  12.263  0.1451 -0.1192  0.0554
12741W        W29588   0.190   9.025   2.870  0.2259  0.0845  0.3851
12742W        W29589   9.057   8.921   2.340  0.1253  0.0504  0.3430
12743W        W29590   9.206  17.541   6.053 -0.1352 -0.1218  0.1044
12744W        W29591   7.684  16.167   2.147 -0.0573 -0.2791 -0.6362
12745W        W29592   8.269  10.617  11.563 -0.0840 -0.0822 -0.0463
12746W        W29593   7.796  15.102   0.361 -0.0683  0.0680  0.3775
12747W        W29594   1.692   0.720   4.589  0.1864 -0.2814 -0.0584
12748W        W29595   6.488  10.497   1.696 -0.0588 -0.1698 -0.2716
12749W        W29596  16.026   3.852  11.325 -0.1377  0.1004  0.2199
12750W        W29597   8.889  13.702   1.538 -0.2417  0.0666 -0.0707
12751W        W29598   0.946  13.318   1.061 -0.2831  0.1447 -0.2249
12752W        W29599   1.115   6.596  15.030 -0.0910  0.4199  0.2038
12753W        W29600  16.728  17.544  14.178  0.2120 -0.0885  0.0186
12754W        W29601   7.261   3.156   3.342 -0.0755 -0.1698 -0.2355
12755W        W29602   7.281   2.209  14.181 -0.1596  0.0226  0.2705
12756W        W29603   0.474   7.796  14.435 -0.0065 -0.4173  0.1123
12757W        W29604  16.965   4.708   2.940  0.0564 -0.1944  0.0466
12758W        W29605   2.762   5.039  12.664  0.1330 -0.3851 -0.0496
12759W        W29606   3.272   7.680  12.639  0.0099  0.1443  0.0473
12760W        W29607   7.681  13.875  13.925  0.2995 -0.0343 -0.0437
12761W        W29608  12.328   6.429  11.804  0.0204  0.1777  0.0973
12762W        W29609   2.415  17.712  12.173 -0.0290  0.2942  0.2415
12763W        W29610  10.024  10.209  12.498 -0.3633  0.0410  0.0408
12764W        W29611  14.101  11.381  15.483 -0.0184  0.0102 -0.0534
12765W        W29612  16.907  17.363  15.174 -0.3404 -0.0002 -0.3489
12766W        W29613   2.976   8.490   1.307  0.0412 -0.3365  0.0110
12767W        W29614   4.602  15.556   1.218  0.1159 -0.0766 -0.2127
12768W        W29615   5.183  12.507  16.036 -0.3030 -0.0407 -0.0615
12769W        W29616   2.059   7.225  11.754 -0.1326  0.0776  0.0830
12770W        W29617  15.642   9.606   1.236 -0.1257 -0.0209 -0.0005
12771W        W29618   6.532  15.935  12.260  0.0648  0.1932  0.0545
12772W        W29619   8.311   6.030  14.094 -0.2131  0.0001  0.2290
12773W        W29620   5.520   1.227  16.678 -0.0118 -0.2001  0.0619
12774W        W29621  15.374  14.073  13.855  0.1397 -0.0590 -0.1838
12775W        W29622  13.854   9.875  15.463  0.1239  0.1026 -0.1160
12776W        W29623  16.395   3.951   1.739  0.1289  0.2623 -0.2690
12777W        W29624   0.174  16.767   0.343  0.1575  0.0375  0.3037
12778W        W29625   6.588  12.021  12.413  0.2989  0.1691  0.2147
12779W        W29626   5.377  12.296   6.257  0.1764  0.2668 -0.0384
12780W        W29627   5.942  11.426  15.167  0.0520  0.1094 -0.4332
12781W        W29628   5.631   4.658  15.260 -0.4150  0.2218  0.0096
12782W        W29629   5.955  13.938  11.393 -0.1309  0.0128  0.0877
12783W        W29630  15.729   5.942   5.246  0.0829 -0.0492 -0.1302
12784W        W29631   3.458   1.828   5.764  0.0239 -0.0201  0.1707
12785W        W29632   9.039  11.332   5.637  0.1075  0.2393  0.2680
12786W        W29633   0.846   6.750  15.984  0.3258  0.1224 -0.0653
12787W        W29634  14.001   8.802  14.030 -0.2840  0.0752 -0.0917
12788W        W29635   1.030   1.624   5.839 -0.0151 -0.0038 -0.0781
12789W        W29636  12.568   8.856   5.716 -0.3069 -0.1531  0.0027
12790W        W29637  10.793  12.550  12.827  0.0639 -0.0250  0.3390
12791W        W29638   6.010   5.952   1.016  0.0849 -0.0210 -0.1608
12792W        W29639   1.127   9.973   4.548  0.1153  0.0693  0.2487
12793W        W29640  10.569  10.319   5.400 -0.2304 -0.0977  0.2267
12794W        W29641  10.049   1.961  14.734  0.2067 -0.2026  0.1389
12795W        W29642   7.919   0.941   4.591 -0.0537  0.2386  0.2748
12796W        W29643  11.301   1.492  13.472  0.1892  0.1294  0.3741
12797W        W29644  12.086   4.087   3.954 -0.6206  0.3148 -0.1887
12798W        W29645   9.983   9.033   3.322  0.0639  0.0922  0.0895
12799W        W29646   2.003   8.805  13.914 -0.1470  0.0229  0.0360
12800W        W29647   9.803  13.927  13.816  0.2588  0.3545  0.1116
12801W        W29648  12.740  10.344   4.898 -0.0741  0.3263 -0.2892
12802W        W29649  11.664   2.911  14.153 -0.0490 -0.0325 -0.0786
12803W        W29650   1.655   6.686  15.869  0.1807  0.3326 -0.1919
12804W        W29651   4.967   3.774  16.187 -0.2261  0.1012 -0.3255
12805W        W29652   6.216  17.503  15.378  0.0416 -0.1379 -0.1579
12806W        W29653  11.900   1.229   0.438  0.2821  0.2969  0.2989
12807W        W29654   0.085  15.714  12.251  0.1627  0.0209 -0.2795
12808W        W29655  13.920   6.989  14.605  0.0443 -0.0427 -0.0453
12809W        W29656  13.910  11.859  13.626 -0.0047 -0.1928 -0.1093
12810W        W29657   3.735   3.072  11.824 -0.4396 -0.0949 -0.2579
12811W        W29658   5.638  12.539   3.507  0.0475 -0.2109  0.3431
12812W        W29659   5.488   1.557  11.851  0.3131  0.0578 -0.1252
12813W        W29660  12.087  12.069  11.481 -0.1923 -0.0606  0.0257
12814W        W29661  13.815   8.648  16.708  0.1372  0.2496 -0.3519
12815W        W29662  16.640  10.522  14.019 -0.0138 -0.1897 -0.3078
12816W        W29663   1.524   2.406   5.491 -0.4884  0.3239 -0.1819
12817W        W29664   0.968  14.835  14.817  0.3938 -0.2435 -0.1344
12818W        W29665   7.428  11.371  16.343 -0.0027 -0.0347 -0.0056
12819W        W29666  12.742   9.173   0.137 -0.0985 -0.0530 -0.0275
12820W        W29667  13.296   4.614   1.140  0.1265 -0.1125 -0.0751
12821W        W29668   7.623  14.658  12.282  0.1654  0.0568 -0.0425
12822W        W29669  15.072  16.251   4.958  0.1384  0.0034 -0.0472
12823W        W29670   0.905   5.105  16.797  0.2207 -0.2346 -0.0248
12824W        W29671  15.769   9.185   1.054  0.2310  0.1931  0.3736
12825W        W29672  16.813   5.429  11.942  0.0241  0.1634 -0.1624
12826W        W29673   1.328   8.373  13.055  0.0225 -0.1889  0.1729
12827W        W29674   2.331  14.579   1.560  0.0373  0.1056 -0.1092
12828W        W29675   0.291   8.684  12.866  0.1679  0.0531 -0.0181
12829W        W29676   2.907   8.674   5.614 -0.1137 -0.1854 -0.0551
12830W        W29677   2.227  14.922   0.403 -0.1965  0.0957 -0.2941
12831W        W29678  16.969   7.096  12.775 -0.1124  0.0111 -0.0956
12832W        W29679  17.693  13.298   5.465 -0.2700 -0.1472 -0.0320
12833W        W29680   3.017  10.885   1.150 -0.1097 -0.1745 -0.1898
12834W        W29681  13.191  13.960   5.081 -0.0458  0.2067 -0.2456
12835W        W29682  16.591  11.160   0.360  0.2246 -0.0604  0.3231
12836W        W29683   4.507  15.786  15.222  0.0917  0.0480  0.0763
12837W        W29684   0.597  14.759  13.000 -0.0771  0.0939 -0.3087
12838W        W29685  11.135   7.425   4.860  0.1784  0.3249 -0.0965
12839W        W29686  10.002  10.761   1.245  0.1844  0.1068 -0.0306
12840W        W29687  16.490   4.802  14.327 -0.1112 -0.0970 -0.4389
12841W        W29688   9.307   6.485  16.490  0.0820  0.1448  0.1558
12842W        W29689  13.267  16.588   3.310  0.1345 -0.1743  0.1038
12843W        W29690  11.273  11.694   0.815  0.0547 -0.0268 -0.2035
12844W        W29691   3.319  17.140  12.839  0.4535 -0.0774 -0.0731
12845W        W29692   2.060  16.711  15.626  0.2716 -0.1334 -0.0850
12846W        W29693   9.267  10.688   0.155 -0.0636  0.0117  0.1956
12847W        W29694  12.286   2.465   1.803 -0.1953  0.1711  0.0491
12848W        W29695  13.119  17.017  15.467  0.2339 -0.0265 -0.0569
12849W        W29696  11.568  13.745   2.582  0.1333 -0.0193  0.0908
12850W        W29697  17.361  17.656  16.760 -0.2488  0.0374  0.2093
12851W        W29698   5.736   6.137   5.437  0.1198 -0.0618 -0.2319
12852W        W29699  17.099  17.641  15.862 -0.1877  0.4149  0.1829
12853W        W29700  13.305   3.508  11.852  0.2739  0.0189  0.0484
12854W        W29701   0.365   3.094   0.057 -0.0464 -0.0134 -0.0940
12855W        W29702  10.123  11.752  14.436 -0.1768  0.2693 -0.2997
12856W        W29703   1.828   2.610   4.112 -0.0664  0.2093  0.0537
12857W        W29704   6.837   1.470   4.969 -0.2170  0.0618  0.1569
12858W        W29705   3.327   6.207  16.775 -0.2879  0.0297 -0.1304
12859W        W29706  10.781   0.907  15.293 -0.2095 -0.0291  0.0770
12860W        W29707   5.145  17.760  12.419 -0.2562  0.0875 -0.1743
12861W        W29708  11.722  14.893   5.372  0.1225  0.1117 -0.1124
12862W        W29709   8.709   7.003  13.545 -0.1115  0.1061 -0.1205
12863W        W29710   0.511   5.722   0.446  0.0057  0.3376 -0.4100
12864W        W29711   6.024   2.703   0.930  0.3404  0.0410 -0.0849
12865W        W29712  10.455   3.752  16.004  0.2477 -0.1135 -0.3032
12866W        W29713   1.664  10.271  11.759 -0.2496  0.0247 -0.0574
12867W        W29714   6.855  17.463  16.609  0.2600  0.2984 -0.1056
12868W        W29715  13.322   9.354   2.245  0.2052  0.0808 -0.1309
12869W        W29716  13.337  17.768  13.530 -0.2589  0.0444  0.1475
12870W        W29717  13.564   4.266  11.838 -0.1517  0.0713 -0.0236
12871W        W29718  14.095  17.397   3.218  0.1850 -0.1549  0.2465
12872W        W29719  14.200  13.372   5.806  0.0957 -0.0628  0.0080
12873W        W29720  15.400  17.268   4.370 -0.1248 -0.2659 -0.0770
12874W        W29721   6.164   0.501  15.950 -0.1820 -0.1041  0.0759
12875W        W29722  10.845  13.581   3.877  0.1773 -0.0372  0.2230
12876W        W29723   8.235  13.708   6.416  0.4422 -0.0117 -0.0813
12877W        W29724   5.811   9.030   2.516 -0.1120  0.0549  0.1306
12878W        W29725   5.308   4.508   0.845 -0.2272  0.0661 -0.0486
12879W        W29726  12.837  10.205  16.117  0.0106  0.0188  0.0451
12880W        W29727  13.643   3.451  15.392  0.1018 -0.1272  0.1158
12881W        W29728  15.035   5.648   4.178  0.3977 -0.0146  0.0160
12882W        W29729   0.010  14.530  16.686 -0.2079 -0.0228 -0.1066
12883W        W29730  10.424   3.195   5.281 -0.0792 -0.1721 -0.0333
12884W        W29731   4.681   5.177   4.045 -0.1429  0.0262  0.2409
12885W        W29732  16.323  15.850  13.930 -0.0735  0.0523  0.3989
12886W        W29733   5.897  14.720   3.893 -0.2658  0.1493 -0.1100
12887W        W29734   9.843   9.561   4.666  0.0370 -0.1019  0.0974
12888W        W29735  10.629   9.429  12.167 -0.2162  0.1527 -0.0135
12889W        W29736   6.269  13.006   4.598 -0.1727 -0.2579 -0.3651
12890W        W29737  11.676   0.486   4.862 -0.1180 -0.0940  0.0241
12891W        W29738   4.308   9.822   2.896  0.2812  0.2673  0.1776
12892W        W29739   8.599  16.657   4.467  0.0369  0.1123 -0.1293
12893W        W29740  17.129   0.540  16.490 -0.0500  0.1088  0.0397
12894W        W29741  11.812   7.617   0.048  0.1331  0.3382  0.1114
12895W        W29742  10.986   4.253  14.085  0.0612  0.1256  0.0608
12896W        W29743  14.488   6.949   4.539 -0.0150 -0.3221 -0.2342
12897W        W29744   5.843   7.103   5.582 -0.1945  0.1910  0.2264
12898W        W29745  10.065  13.398   1.265  0.2922 -0.2332  0.2096
12899W        W29746  13.141  11.400   3.816  0.0719 -0.1971 -0.1892
12900W        W29747   6.201   5.879  14.959  0.1669  0.1634  0.1678
12901W        W29748   6.335   5.441   4.598 -0.0149  0.1795 -0.0616
12902W        W29749   9.175   7.462  16.104 -0.0037 -0.0311  0.3268
12903W        W29750  12.350   0.557  14.214 -0.1304 -0.0187  0.1206
12904W        W29751   7.319   4.925   4.382  0.2040  0.0941  0.1722
12905W        W29752  15.287   5.612  14.239 -0.0066 -0.0365  0.3417
12906W        W29753   3.093  11.887   0.966  0.2886  0.0177  0.0349
12907W        W29754  12.497   4.435   4.459  0.2353 -0.0263 -0.1977
12908W        W29755   3.112   4.186   0.769 -0.1235  0.1084 -0.0847
12909W        W29756  11.905  10.942   0.708  0.2672 -0.0336  0.0052
12910W        W29757  12.723  15.569   5.569 -0.1004 -0.0984  0.1763
12911W        W29758   5.319  17.011  14.439 -0.1925 -0.1876 -0.1867
12912W        W29759  14.302   1.010   0.672 -0.1785  0.3347  0.2414
12913W        W29760  14.038  15.856  12.772  0.1615  0.0353  0.2624
12914W        W29761  13.713   7.149   2.269  0.1055  0.0229  0.0064
12915W        W29762  12.303   0.541   1.274  0.1690 -0.0188  0.0749
12916W        W29763   5.690  17.292   2.276 -0.1517 -0.0372 -0.0603
12917W        W29764  12.358  15.224   1.675  0.1007 -0.1237  0.1471
12918W        W29765   6.673  15.792  14.047 -0.0080  0.0959 -0.0139
12919W        W29766   9.343   8.272   0.363  0.2282 -0.1887 -0.4071
12920W        W29767   3.650   0.106  14.365 -0.3402  0.0099  0.1120
12921W        W29768  16.039  10.578  14.350  0.4866  0.0303  0.1696
12922W        W29769   6.037   6.353   4.763 -0.1136  0.0526  0.2280
12923W        W29770   6.215   9.359  16.178  0.1786 -0.0469  0.3135
12924W        W29771   5.857   1.722  15.090  0.2168  0.1202 -0.3208
12925W        W29772   7.608  12.379   5.328  0.0494  0.3788  0.0662
12926W        W29773  12.522   9.007  12.239  0.0863 -0.0997 -0.0902
12927W        W29774   1.437  15.702   3.235  0.0060  0.0625 -0.0278
12928W        W29775  11.293  12.770   2.634 -0.0456  0.0954 -0.0258
12929W        W29776   2.863   8.897  14.324 -0.1692  0.0355  0.2499
12930W        W29777   3.104   9.425   3.177  0.2458  0.0553  0.0171
12931W        W29778  11.039  12.472   2.981 -0.2176  0.0006  0.0351
12932W        W29779  15.725  14.301   0.416  0.0471 -0.1147 -0.0644
12933W        W29780   8.238   9.152  12.495 -0.0233 -0.1118 -0.1447
12934W        W29781  14.363  16.211  16.585 -0.1486 -0.1308  0.0868
12935W        W29782   4.912   8.073   2.863  0.0665  0.1182  0.0583
12936W        W29783   7.422   5.482  13.728  0.2817  0.1582 -0.0262
12937W        W29784   3.579   9.527   5.043  0.0482  0.0093 -0.0376
12938W        W29785   4.596  17.145  11.521  0.1588  0.0328 -0.3649
12939W        W29786   4.712   1.184   2.736  0.0290 -0.0027  0.0488
12940W        W29787   5.346   5.447  14.746 -0.2165 -0.2366 -0.2704
12941W        W29788  13.373   7.086   2.835 -0.0976  0.1352  0.0266
12942W        W29789   9.299  17.165  15.882 -0.0718 -0.0969 -0.1352
12943W        W29790   5.646   4.932   1.485  0.1671 -0.1061  0.0922
12944W        W29791   5.369  13.702  12.088 -0.1861  0.1329  0.2505
12945W        W29792  17.470  12.779   2.374 -0.3165  0.1213  0.5261
12946W        W29793   6.784   2.921  15.674 -0.2256 -0.1411  0.0934
12947W        W29794  10.124   9.866   0.317 -0.1886 -0.1202 -0.1113
12948W        W29795   7.582  17.504  16.375 -0.3268 -0.0795  0.1703
12949W        W29796   8.794   7.127   3.716  0.0072 -0.0142  0.0297
12950W        W29797  11.476   5.617   4.140  0.0767 -0.0407  0.0553
12951W        W29798  16.135   0.596  15.544 -0.0517  0.0890  0.1116
12952W        W29799  14.005   1.326  16.611 -0.1739  0.1197 -0.3125
12953W        W29800   9.473   4.109   5.048  0.0338 -0.1048  0.1212
12954W        W29801   0.276   9.160  15.922  0.0123 -0.1384 -0.0263
12955W        W29802  17.423  14.648   2.475 -0.1757 -0.1321  0.1401
12956W        W29803  12.331  17.282  15.780 -0.1489  0.0886 -0.0613
12957W        W29804   9.415   8.848  15.703  0.3495 -0.1109  0.2619
12958W        W29805  16.120  16.199  11.730 -0.2777  0.4015 -0.1988
12959W        W29806   5.606   7.448  12.942  0.0558 -0.0887 -0.1893
12960W        W29807  15.571   9.388  13.479  0.2408  0.2879  0.1479
12961W        W29808   7.245   9.058   2.543  0.3255  0.1657  0.0666
12962W        W29809   0.067   3.227   0.942  0.0646  0.0410 -0.0087
12963W        W29810  11.434   9.920  11.753  0.3035 -0.1041 -0.1100
12964W        W29811   1.796   0.288   2.039 -0.2917 -0.1012 -0.1491
12965W        W29812  15.839   1.725  11.796  0.1248 -0.1148  0.1048
12966W        W29813   9.898   9.756  12.453 -0.0026 -0.1032  0.0147
12967W        W29814   2.967   0.220  14.092 -0.1331 -0.0927  0.0314
12968W        W29815  16.700   9.927   0.986 -0.0329 -0.3240  0.0535
12969W        W29816  15.314  10.032   2.923 -0.2188 -0.1346  0.0437
12970W        W29817   0.237   0.875  15.921 -0.0727 -0.0033  0.0986
12971W        W29818  11.770   3.171  14.624  0.0650 -0.0771 -0.4398
12972W        W29819   1.577   6.403   5.694 -0.0102 -0.0126  0.2935
12973W        W29820  10.347   4.527  13.974 -0.0127 -0.0691  0.2329
12974W        W29821   2.569  10.650   0.824  0.0654 -0.0849  0.1155
12975W        W29822  15.547   0.455   0.600  0.2959  0.0846  0.2055
12976W        W29823   4.845  17.649   0.910  0.0572  0.0145 -0.0269
12977W        W29824   4.696   9.799   0.679 -0.0596 -0.4029 -0.1019
12978W        W29825  15.853   2.961   4.027  0.0191  0.0789  0.1819
12979W        W29826   0.010  12.590  15.542 -0.1328  0.2932 -0.2801
12980W        W29827  10.830  17.215   1.519  0.0946  0.0270  0.1820
12981W        W29828   5.102   8.331  13.384 -0.3564  0.2329 -0.3840
12982W        W29829  14.259   9.533   2.881 -0.2008 -0.1659 -0.0582
12983W        W29830  12.747   8.191  13.268  0.2620  0.1856 -0.0509
12984W        W29831   8.565   6.393  12.386  0.2958 -0.1044 -0.2009
12985W        W29832   2.056  14.271  13.583 -0.3684 -0.1848 -0.3026
12986W        W29833  15.833   5.507  14.220  0.4681  0.1030  0.2239
12987W        W29834   9.685   3.189  11.309  0.2260 -0.0849 -0.2542
12988W        W29835   5.544   9.820   2.312  0.1763 -0.0164 -0.0840
12989W        W29836   6.415   6.309  15.225 -0.0763  0.0317 -0.0959
12990W        W29837  10.859  10.600   5.102  0.0894  0.0973  0.1685
12991W        W29838   3.381   6.687   5.930  0.1807  0.3647  0.1096
12992W        W29839   7.781   1.124  16.340 -0.1464  0.0583 -0.2019
12993W        W29840  11.187  13.842   4.646  0.3596 -0.0970 -0.1457
12994W        W29841   0.398  15.794  15.760 -0.1138  0.1671 -0.1510
12995W        W29842   7.612  17.610   1.051 -0.0053  0.1594  0.1567
12996W        W29843  12.593  15.076   3.911  0.1874  0.0641  0.1282
12997W        W29844   9.042   0.592  12.093 -0.0695 -0.0780  0.1882
12998W        W29845   3.598  14.088   1.089  0.1052  0.0291  0.1432
12999W        W29846  13.053  15.637   2.282  0.3269  0.3129  0.1488
13000W        W29847  11.056   5.657   1.206 -0.1313 -0.3454  0.3790
13001W        W29848   0.966   9.259  12.373  0.2781 -0.1417 -0.0773
13002W        W29849   7.256   7.251  16.104  0.1416 -0.0568 -0.2976
13003W        W29850   6.530  11.046  13.929  0.0833  0.1739  0.2135
13004W        W29851  11.648  11.912  13.255  0.2069 -0.0300 -0.1791
13005W        W29852   8.538  11.061  11.790  0.0663 -0.1740  0.0657
13006W        W29853   3.366  12.598  16.537  0.0200  0.0707  0.2035
13007W        W29854  14.610   2.343  11.656 -0.0675 -0.0762 -0.0286
13008W        W29855   5.650   3.974  12.858  0.2461  0.2371 -0.2643
13009W        W29856   0.785  16.185  14.562  0.0190  0.0589  0.0327
13010W        W29857   2.033  11.255  12.450 -0.1043  0.5281  0.0549
13011W        W29858  11.783   0.894   4.605  0.0245 -0.0766 -0.2152
13012W        W29859  12.055   9.686  14.825  0.0294  0.1523  0.1760
13013W        W29860  12.152  10.994   2.405  0.4019  0.0163 -0.0350
13014W        W29861  10.428   3.957  13.318 -0.1082 -0.0403 -0.2406
13015W        W29862  13.216  10.971   2.902 -0.2055 -0.0945 -0.0318
13016W        W29863   7.082  17.336   6.379  0.3962 -0.2231  0.3193
13017W        W29864  10.723   1.546   5.016  0.2091  0.1919 -0.0957
13018W        W29865  11.712   1.033  15.792 -0.0145  0.2511  0.1172
13019W        W29866  12.860   0.761   1.281 -0.1696  0.0406  0.0625
13020W        W29867   2.436  13.996   2.962  0.0103 -0.2092  0.1033
13021W        W29868   6.585   6.736   1.156  0.0038  0.0450  0.0533
13022W        W29869  17.517  12.915  16.285 -0.1189  0.3892  0.0263
13023W        W29870   9.941   9.088   2.807 -0.0330 -0.2517  0.3565
13024W        W29871  12.168  15.510   4.010  0.3246  0.0516 -0.2511
13025W        W29872  17.768   9.758  12.259  0.1565 -0.0082 -0.0345
13026W        W29873   7.915   4.512   4.217 -0.2514 -0.0922  0.0666
13027W        W29874  11.286   7.102   2.199 -0.2532 -0.0090 -0.1733
13028W        W29875   2.126  16.940  12.824 -0.0795 -0.1267 -0.0719
13029W        W29876  11.641   6.485  13.947 -0.0076  0.0323  0.0968
13030W        W29877  15.314  15.940   1.815 -0.0984  0.0390 -0.0176
13031W        W29878   2.882   2.059  15.889  0.0222 -0.1049  0.2587
13032W        W29879   8.847   3.092   0.894 -0.2825  0.1242  0.0393
13033W        W29880  17.310   9.954   1.162  0.0517 -0.0035 -0.0393
13034W        W29881  12.139  16.484   4.812  0.0855  0.1246 -0.1200
13035W        W29882  16.385   8.245   0.103  0.0362  0.3747 -0.5357
13036W        W29883   8.326   6.694  12.765 -0.1840  0.1597  0.1854
13037W        W29884   5.734   8.420  14.968 -0.1776 -0.1159 -0.0947
13038W        W29885   8.859   6.737   0.928 -0.4340  0.0808 -0.1542
13039W        W29886   6.100   6.693  15.428  0.0888 -0.2161 -0.2770
13040W        W29887  13.811  10.899   4.456 -0.1040 -0.0805  0.1504
13041W        W29888  17.664  13.245  11.989 -0.0219  0.0505  0.1327
13042W        W29889  10.611  17.857   3.144  0.0194  0.0373  0.1504
13043W        W29890  15.260  13.455  12.676 -0.1600 -0.1454  0.2618
13044W        W29891   7.849  17.026  11.877  0.4944  0.2095 -0.3746
13045W        W29892   6.121  10.474  14.246  0.0720  0.1004 -0.2060
13046W        W29893   2.785   7.316   6.296 -0.0757  0.1918 -0.0399
13047W        W29894  16.372   4.461   3.593  0.0403 -0.0912  0.0867
13048W        W29895  11.274   5.212  12.180 -0.1593  0.4038 -0.2219
13049W        W29896   7.536   6.721  12.510 -0.0012 -0.0696  0.0456
13050W        W29897  17.866   3.883  11.272  0.1009  0.0471  0.2417
13051W        W29898  13.557  15.254   5.220  0.0162  0.1725 -0.2585
13052W        W29899  11.657   7.381  15.005 -0.2230  0.0891 -0.1981
13053W        W29900   2.712   1.538  14.649  0.0227 -0.1144  0.1044
13054W        W29901   1.926  12.162   0.881 -0.2268  0.0286 -0.0931
13055W        W29902   5.000   5.653   1.119 -0.0307  0.1747  0.0551
13056W        W29903  12.721  13.002   1.610  0.1752  0.0058 -0.1281
13057W        W29904  17.409   4.125  13.690 -0.3308  0.0222  0.1662
13058W        W29905  17.471  16.144   4.394 -0.0713  0.1713 -0.1149
13059W        W29906  16.004   6.298   2.435  0.1556 -0.2011 -0.1669
13060W        W29907   5.495  11.706  12.865  0.0965  0.1678  0.0252
13061W        W29908  14.585  14.635  14.867 -0.0207 -0.0169 -0.2244
13062W        W29909   7.247   5.806   1.185 -0.2251 -0.0813  0.2262
13063W        W29910  14.248  15.656   5.613  0.0038 -0.1281 -0.1449
13064W        W29911  17.320   4.688   5.990 -0.2261 -0.0706 -0.2159
13065W        W29912   2.443  10.279  11.675  0.3241  0.1799  0.1762
13066W        W29913  10.280  12.601   0.842 -0.1850  0.3653 -0.0120
13067W        W29914   5.311  15.545  16.553 -0.0757  0.0639  0.0259
13068W        W29915   4.378   2.428   0.636 -0.1384  0.2483 -0.3106
13069W        W29916   6.700   2.852  11.232  0.2671  0.1164 -0.3722
13070W        W29917   1.777  10.767   0.301  0.0171  0.1925 -0.1797
13071W        W29918  11.131   0.105  13.551 -0.0354  0.1275 -0.1838
13072W        W29919  15.445  12.217  12.991  0.0201 -0.0945  0.2083
13073W        W29920   1.182  14.012   5.962 -0.1964  0.6509 -0.0186
13074W        W29921  16.848   9.458   4.299 -0.0619  0.2528 -0.2089
13075W        W29922   1.607   2.009  11.663  0.2020  0.1596  0.0827
13076W        W29923   9.550   3.143   2.544 -0.4840 -0.1870 -0.1696
13077W        W29924   6.858  11.182   3.740  0.1428  0.1761  0.0341
13078W        W29925   6.755   2.726   0.623 -0.2364 -0.0203  0.2841
13079W        W29926   3.887  13.065  14.506 -0.0131 -0.3518  0.2586
13080W        W29927  17.441   7.490  14.860 -0.3049 -0.1140  0.1182
13081W        W29928   4.759  11.192   0.791  0.1186 -0.0096  0.2916
13082W        W29929  17.027   3.807  15.672  0.1343 -0.1463 -0.2377
13083W        W29930  10.502   2.483  12.110 -0.1201  0.2240 -0.0329
13084W        W29931  16.677   3.211   2.817 -0.2527  0.0284  0.0110
13085W        W29932  11.109   6.912   0.427  0.2348 -0.2130  0.2738
13086W        W29933  16.363  12.380   3.194 -0.0253  0.0721  0.3467
13087W        W29934  13.193  13.158  13.567 -0.2429 -0.0719  0.2132
13088W        W29935   0.943  14.658  11.918 -0.0787  0.0642  0.1694
13089W        W29936   3.371  17.082  16.095  0.0036  0.1009  0.1822
13090W        W29937  14.641  13.285  11.952  0.1182  0.2042  0.1871
13091W        W29938   4.697  13.223   4.289 -0.1656 -0.1462  0.0854
13092W        W29939   0.864  15.804  16.784  0.0162 -0.2644  0.1966
13093W        W29940  13.638  10.073   0.386 -0.1878  0.1876 -0.2107
13094W        W29941   4.024  14.609   4.855  0.2400  0.3994 -0.2161
13095W        W29942   5.579   5.396   4.108 -0.2900 -0.1658 -0.1370
13096W        W29943   7.919   7.782   4.278 -0.0448 -0.1631 -0.0775
13097W        W29944  17.887  14.516   1.169  0.1505  0.0715 -0.0720
13098W        W29945   8.989  16.331  15.418 -0.3440  0.1111  0.1173
13099W        W29946  15.013  13.279   5.320  0.1668  0.2071 -0.0386
13100W        W29947   6.323   3.424  14.494 -0.2800 -0.2371  0.0473
13101W        W29948   6.896  11.915   4.627 -0.2862  0.1703  0.1384
13102W        W29949   0.387  17.730   3.413  0.0032  0.0146  0.1632
13103W        W29950   3.981  12.693  12.329  0.1355 -0.0914 -0.0449
13104W        W29951   0.861  15.584  14.909  0.0710 -0.2247 -0.1509
13105W        W29952   6.742  12.883  11.922 -0.0927  0.1503  0.1200
13106W        W29953   2.806   4.706   1.714  0.2516  0.2241  0.1877
13107W        W29954  11.824  10.384   2.792  0.1516 -0.0574 -0.1332
13108W        W29955   1.585   5.564  13.786  0.1731 -0.0802 -0.3234
13109W        W29956  15.224  14.949   0.066  0.1162  0.1128 -0.0439
13110W        W29957   6.439   7.183  15.905 -0.1099 -0.0196 -0.0720
13111W        W29958   9.132   1.490  13.278 -0.4258  0.0668 -0.2654
13112W        W29959  17.564  16.743   1.644 -0.3396 -0.4128  0.1602
13113W        W29960  10.633   4.061  13.788  0.2202  0.1935  0.0865
13114W        W29961  12.674   1.413  14.731  0.0424  0.2491 -0.3489
13115W        W29962  17.809  14.074   4.976  0.0610 -0.2686 -0.0435
13116W        W29963   4.099   6.691   3.299  0.0686  0.1321  0.0416
13117W        W29964   2.934  13.144   1.319 -0.1930 -0.0088 -0.1404
13118W        W29965  15.312   1.048  14.407 -0.0110  0.1170 -0.3212
13119W        W29966  13.561   0.416   0.870 -0.0946  0.0617 -0.1541
13120W        W29967   0.004  16.776  13.032  0.3018 -0.4619 -0.1469
13121W        W29968  11.973   0.818   4.095  0.0837  0.0558  0.0328
13122W        W29969   7.463   6.801  11.867 -0.2353 -0.0911  0.2230
13123W        W29970   6.637  17.826   5.229 -0.0693 -0.3851  0.1495
13124W        W29971   3.447   0.174  13.323  0.0250 -0.7348 -0.0062
13125W        W29972  15.395   2.367  16.608  0.3408 -0.2930  0.1008
13126W        W29973   1.556  16.689  15.675 -0.1560 -0.1804  0.2444
13127W        W29974   9.142   0.550  13.417 -0.0036 -0.0552  0.1860
13128W        W29975   9.593   7.481  16.681  0.3685 -0.0216 -0.1424
13129W        W29976   0.151   1.537   5.956  0.2195 -0.0801 -0.0805
13130W        W29977   6.255   0.058  14.643 -0.2544 -0.0731 -0.1014
13131W        W29978   2.053   4.455   2.168 -0.1077 -0.0519 -0.0855
13132W        W29979   7.061  10.918  15.880 -0.0736  0.0656  0.1164
13133W        W29980   1.534   0.816  12.419  0.1596  0.3109  0.1213
13134W        W29981   1.953   9.970   4.714  0.1628  0.3523 -0.0360
13135W        W29982   8.276  14.794   5.960 -0.3837 -0.0524 -0.2497
13136W        W29983  12.991  12.728  11.596 -0.2030 -0.0903 -0.2128
13137W        W29984  16.254   6.124  12.084  0.0433 -0.1384 -0.0599
13138W        W29985  15.091   6.271  16.420 -0.1909  0.1045 -0.2448
13139W        W29986  14.173   1.260   2.389  0.0244  0.0423  0.1027
13140W        W29987  16.933  14.916  16.436 -0.1657 -0.3152 -0.1677
13141W        W29988  15.957   4.430   5.088 -0.1060 -0.0843 -0.2217
13142W        W29989   0.622   3.072  16.183 -0.3567  0.2059 -0.0825
13143W        W29990  16.080   7.124  16.736  0.0438  0.1085 -0.0003
13144W        W29991  15.047   2.990  15.034  0.0107 -0.0301  0.0067
13145W        W29992  11.499   8.959  11.469  0.0029 -0.1890 -0.2928
13146W        W29993   5.435   0.623  12.075  0.2617 -0.2056 -0.1094
13147W        W29994   8.062   7.775  15.131 -0.0958  0.0272 -0.2139
13148W        W29995   7.922   7.602  16.686  0.2977 -0.0728  0.2269
13149W        W29996  12.939   6.442   2.388  0.1994  0.0209 -0.1074
13150W        W29997   5.505   6.617   2.017  0.0316 -0.1628 -0.0588
13151W        W29998   5.232  12.577   4.360 -0.0272  0.0092 -0.3091
13152W        W29999   6.251   9.721   5.614 -0.1220 -0.2075  0.1197
13153W        W30000  17.117  11.490  14.670  0.3311  0.0107  0.0312
13154W        W30001   3.479  15.790  13.370  0.1783  0.3106  0.0191
13155W        W30002   6.652  14.117  12.808 -0.0110 -0.1175  0.2411
13156W        W30003   7.613   9.393   2.379  0.2540 -0.0358 -0.0426
13157W        W30004   3.585  16.410  16.789 -0.2044  0.0963  0.1404
13158W        W30005  16.927  13.758  11.993 -0.1229  0.3504 -0.1598
13159W        W30006  11.600   4.960  15.876 -0.1391 -0.3738  0.1271
13160W        W30007   1.859   5.744  13.321 -0.1764  0.2424 -0.2801
13161W        W30008   6.288  14.838  13.494 -0.1798 -0.0968  0.1391
13162W        W30009  17.798  14.753   3.510  0.0850 -0.1124 -0.0079
13163W        W30010   8.672   9.341  12.675  0.0375  0.2066 -0.0558
13164W        W30011   6.383   9.809  16.470  0.0956 -0.1775  0.0863
13165W        W30012  12.002   1.911   1.477 -0.2267  0.0017 -0.2780
13166W        W30013   5.399   9.235  14.509  0.2661 -0.1154  0.1253
13167W        W30014   6.098  16.193   6.089  0.0530 -0.2208  0.1183
13168W        W30015  17.152   2.147  14.111  0.0722  0.1121 -0.0223
13169W        W30016   7.124   4.526   1.002 -0.2430 -0.0982  0.0105
13170W        W30017   1.037   7.062  12.071 -0.0083 -0.0543 -0.0874
13171W        W30018   4.952   5.367   0.164  0.3953 -0.3487  0.0811
13172W        W30019  11.760   0.919   6.293 -0.2916 -0.1207 -0.0443
13173W        W30020   0.634  13.627   1.301 -0.1042 -0.1783  0.1003
13174W        W30021   2.654  10.403  13.936  0.1237  0.1176  0.2326
13175W        W30022   9.936  10.216   1.150 -0.1210 -0.2668 -0.0573
13176W        W30023   5.765  16.352   4.950  0.1473  0.1872  0.2142
13177W        W30024   7.165  12.402   0.982 -0.0429  0.2572  0.0282
13178W        W30025  10.332  16.978  12.317 -0.1152  0.2728  0.0004
13179W        W30026  16.339  10.638   3.627 -0.0095 -0.0436 -0.4371
13180W        W30027  13.483   9.207  12.369 -0.1575  0.0547 -0.0674
13181W        W30028  10.863   3.905  12.631 -0.2272 -0.0031 -0.2054
13182W        W30029  15.063  12.350  12.586 -0.0447 -0.2096  0.4097
13183W        W30030   9.306  17.485   5.545 -0.0760  0.0200 -0.2809
13184W        W30031  10.186   3.787   1.597 -0.0537  0.0092  0.3046
13185W        W30032   2.419   4.575  11.777  0.2037  0.0662  0.0587
13186W        W30033   7.550   1.678  14.365 -0.0389  0.1047  0.0169
13187W        W30034  13.827   5.769   3.211  0.1415  0.2214 -0.1190
13188W        W30035  16.577   5.559   5.532  0.1460  0.3007  0.0544
13189W        W30036   8.120  17.414  15.381 -0.1993  0.0156  0.1233
13190W        W30037   4.986   9.945   4.587  0.0485  0.3185 -0.1609
13191W        W30038  13.490   6.517   3.569  0.2316 -0.1536 -0.2047
13192W        W30039  17.769  13.157  13.351  0.2522  0.4765  0.0549
13193W        W30040  17.529   3.111  12.511  0.2256  0.2576 -0.2873
13194W        W30041   9.676   0.992  12.745  0.2736  0.2099 -0.1019
13195W        W30042  15.481  17.625   5.641 -0.1009 -0.2267  0.0433
13196W        W30043  10.585   1.566   4.508 -0.0473 -0.0935  0.1859
13197W        W30044   4.188  16.327   1.109  0.0475 -0.0570  0.0575
13198W        W30045   5.385   8.804   2.872 -0.1094 -0.0149  0.0782
13199W        W30046  11.252   1.527  12.600 -0.0783  0.0106  0.2094
13200W        W30047   5.688   2.706   2.079  0.1628 -0.1169  0.2343
13201W        W30048   1.593   9.587  14.765  0.1086  0.0786 -0.0987
13202W        W30049   3.658   5.326   5.233 -0.1200  0.1835  0.1143
13203W        W30050   0.828   6.012   2.889 -0.0839  0.0244  0.0731
13204W        W30051   8.469  10.152  16.359 -0.1216  0.2028 -0.0995
13205W        W30052   2.117   2.088  10.875  0.0018 -0.0719 -0.0286
13206W        W30053   5.488   0.361  13.913 -0.1193  0.2436 -0.1137
13207W        W30054  13.239   8.345   2.564  0.0471  0.1025 -0.3628
13208W        W30055   6.464  17.734   4.667 -0.1269  0.0640  0.0794
13209W        W30056   9.681   2.250   3.074  0.2582 -0.0774  0.2981
13210W        W30057   8.140   3.316  12.015  0.0707  0.1783  0.3571
13211W        W30058  17.876  17.539  16.072 -0.1979 -0.0490  0.0264
13212W        W30059  17.036  15.856  16.071 -0.0109  0.1872 -0.1552
13213W        W30060  15.313  15.495   2.263  0.1182 -0.1104 -0.2822
13214W        W30061  11.424  16.684  12.375 -0.1191  0.0444 -0.1935
13215W        W30062  12.256  13.815  15.970  0.1246 -0.1035 -0.4399
13216W        W30063  17.149   9.584  11.597  0.0957  0.1603 -0.2126
13217W        W30064  15.694  14.934  12.661  0.0601 -0.2382  0.1289
13218W        W30065  14.144  17.231   1.004  0.1747  0.3159  0.1895
13219W        W30066  13.163   3.165   6.017 -0.1571 -0.2272 -0.2326
13220W        W30067  17.070  16.823   4.709  0.1742  0.0093 -0.0282
13221W        W30068   0.387   9.152  13.706 -0.2035  0.0845  0.3931
13222W        W30069   6.314  14.675   6.351  0.0736 -0.1380 -0.0787
13223W        W30070   1.012   1.299  12.895 -0.1044  0.0374 -0.1736
13224W        W30071  13.760   2.406  14.318  0.0624 -0.1108 -0.1758
13225W        W30072  12.038   5.495  12.762  0.0104  0.1468 -0.1385
13226W        W30073  11.250   8.413   2.699  0.2287 -0.0377  0.0559
13227W        W30074   9.354  13.380  15.749  0.1066 -0.0136  0.0678
13228W        W30075  12.555  12.305   3.348 -0.0101  0.0743 -0.0665
13229W        W30076  17.147  12.744   3.460  0.0714  0.0478 -0.0652
13230W        W30077  16.352  15.846   1.691 -0.1231  0.0139 -0.0004
13231W        W30078   1.361   4.508  12.588  0.2431 -0.1131 -0.0215
13232W        W30079  15.737  14.763  14.307 -0.0243 -0.2346  0.1042
13233W        W30080   8.638  12.912   2.561  0.0948  0.3587  0.0305
13234W        W30081   5.739   7.700  16.576 -0.3226  0.0089 -0.2519
13235W        W30082   4.919   3.940   5.335  0.0171  0.0833  0.3775
13236W        W30083  13.273  16.627   2.412 -0.0052 -0.3180  0.4221
13237W        W30084   4.454   4.762   0.808  0.1287 -0.2596  0.0254
13238W        W30085   2.660   9.211   5.789  0.0529 -0.1024  0.0425
13239W        W30086   3.504  11.576  14.389  0.1649  0.1557  0.0579
13240W        W30087  17.633  11.026  15.207 -0.1021  0.0989 -0.1816
13241W        W30088   4.204  12.511   2.896  0.0259 -0.1480 -0.2457
13242W        W30089   4.978  11.217  15.458  0.0922 -0.1803  0.0009
13243W        W30090  13.657   1.721   3.668 -0.0733 -0.2828 -0.1772
13244W        W30091  12.071   3.913  12.441 -0.0743  0.0812 -0.0341
13245W        W30092  15.697   1.373  14.278  0.2020  0.0109  0.0733
13246W        W30093   6.677  15.862  15.098  0.1512  0.0958  0.0770
13247W        W30094  13.569  17.819   5.844  0.0856 -0.2461 -0.0057
13248W        W30095  11.065   1.199   2.710  0.2086 -0.2458  0.0496
13249W        W30096  10.140   6.993  13.946  0.3771  0.0607  0.2666
13250W        W30097  16.480   6.737  14.569  0.2136 -0.5324  0.4082
13251W        W30098  11.936   1.927  11.390 -0.1988  0.1669  0.0120
13252W        W30099   7.964  16.452  14.721  0.1003 -0.1441 -0.3596
13253W        W30100   7.506   1.342  14.009  0.0449  0.0437 -0.0798
13254W        W30101  15.219   5.053   0.221 -0.0082 -0.2194  0.0035
13255W        W30102   4.468  16.458  13.090  0.1954  0.1032  0.0533
13256W        W30103   9.849   8.326   3.311 -0.0541 -0.0306 -0.0066
13257W        W30104   9.852  17.675  16.001 -0.2426  0.1092 -0.2265
13258W        W30105  11.734  11.404   2.539 -0.1469 -0.0068 -0.2956
13259W        W30106   3.682  16.134   4.066  0.0111 -0.2917 -0.1160
13260W        W30107  16.256   7.490   1.753  0.0537 -0.1132  0.2293
13261W        W30108   3.172  13.856  13.591  0.1923  0.0140 -0.2298
13262W        W30109  16.533   1.625   4.679 -0.0393 -0.0228  0.3203
13263W        W30110  15.572   2.524   6.168 -0.0052  0.1514  0.0124
13264W        W30111  10.696  12.895   4.626 -0.0857 -0.0637  0.0520
13265W        W30112  11.334   1.410   1.732  0.0708 -0.0848  0.3476
13266W        W30113   8.851  13.647  15.036  0.1137  0.3047  0.0154
13267W        W30114  13.738  15.461  13.945 -0.1425  0.1195 -0.2999
13268W        W30115  14.294   6.823  12.921  0.1343  0.5225  0.3313
13269W        W30116   8.886   3.537   5.632 -0.0468  0.0761 -0.1918
13270W        W30117  11.978   5.868  15.441  0.2169 -0.4081  0.0248
13271W        W30118   0.219   7.596   2.655 -0.1656  0.2129  0.0983
13272W        W30119  12.716  15.734  12.154 -0.0303  0.2195 -0.2080
13273W        W30120   5.001  17.226   0.701 -0.1158  0.2068  0.0236
13274W        W30121  16.978   0.643  15.414 -0.4372 -0.0592  0.1336
13275W        W30122  10.198  12.434   4.431  0.1548  0.1300  0.0142
13276W        W30123   8.961  12.739   5.794  0.0383 -0.2572  0.1615
13277W        W30124  10.363  17.403  12.548  0.1245  0.1820 -0.1926
13278W        W30125  10.801   9.294  15.841  0.0876  0.1285 -0.1128
13279W        W30126   1.761  11.335  14.684  0.1813  0.1250  0.0909
13280W        W30127   1.036   6.489   5.944  0.2188  0.0117  0.2833
13281W        W30128   6.191  16.792   3.732  0.0825 -0.0372  0.1036
13282W        W30129   8.558  12.270   4.354  0.0887 -0.2140 -0.1089
13283W        W30130   2.134  11.486  14.319  0.1131  0.1370 -0.1134
13284W        W30131   6.032  11.523  14.445 -0.1931  0.1133  0.0346
13285W        W30132   6.859  12.823  14.556 -0.1337 -0.1279  0.2068
13286W        W30133  13.148   4.609   2.996  0.0480  0.2558 -0.0970
13287W        W30134  13.294  16.576  12.331  0.0943 -0.1239  0.1023
13288W        W30135   4.654   3.531   5.108 -0.0031 -0.0421 -0.0094
13289W        W30136   0.407   0.691   1.759  0.2929 -0.1273  0.2227
13290W        W30137  12.511   7.566   4.555 -0.0239 -0.0416 -0.3507
13291W        W30138   7.291  14.511  12.758  0.0799 -0.2291 -0.0291
13292W        W30139  15.763  15.561   2.380 -0.3405 -0.1558  0.0396
13293W        W30140   0.529  15.250   1.850 -0.0638 -0.2435  0.1549
13294W        W30141   3.167   7.263  13.206 -0.0294  0.2569 -0.1126
13295W        W30142   8.573  10.842   4.325 -0.0100 -0.0968 -0.1123
13296W        W30143   4.674  15.706   4.894 -0.0556  0.0135  0.0541
13297W        W30144   6.346  12.697   1.969 -0.3782  0.1555  0.0089
13298W        W30145   6.933   2.670   3.977  0.3517 -0.4005  0.2184
13299W        W30146  13.320   3.224   2.174  0.2657 -0.0550 -0.2654
13300W        W30147  17.625  17.951   3.393 -0.1960  0.1874 -0.6201
13301W        W30148   4.646   0.340  16.039  0.1491 -0.0682  0.1843
13302W        W30149  13.651   8.462  16.140  0.2308 -0.0205 -0.0715
13303W        W30150   1.106  11.099  15.410 -0.3580  0.0629 -0.2704
13304W        W30151   7.384  11.496   5.521  0.1480 -0.2157 -0.0607
13305W        W30152  14.705   5.107   4.833  0.1630 -0.0724 -0.3222
13306W        W30153   2.325   4.105   4.439  0.0732 -0.3881  0.1630
13307W        W30154   8.899   1.849  11.600  0.0691 -0.0319  0.0447
13308W        W30155   2.979   3.934   2.314 -0.1032 -0.3037 -0.0539
13309W        W30156   8.504   9.289   4.316 -0.1672 -0.4078 -0.0700
13310W        W30157  11.505   0.286   2.567 -0.0762  0.1729  0.1327
13311W        W30158   1.539  12.589  13.064  0.2593 -0.0668  0.3881
13312W        W30159  13.425  16.251  11.927  0.5217  0.6107 -0.1600
13313W        W30160  13.675   9.520  12.943  0.0006  0.4956 -0.1304
13314W        W30161   3.632   5.562  11.926 -0.0843  0.2784  0.4265
13315W        W30162   9.829   3.493   2.249  0.0674  0.1848 -0.0557
13316W        W30163  16.301   0.124   1.843 -0.0730  0.1500  0.0149
13317W        W30164   7.608   8.643  16.446  0.0037 -0.2859 -0.0113
13318W        W30165  13.215   7.308  15.801 -0.1513 -0.1450  0.0729
13319W        W30166   0.833  10.135  12.314 -0.0550 -0.1165 -0.1251
13320W        W30167  17.804   4.419   4.728  0.2999  0.0030 -0.0921
13321W        W30168   2.780   2.159  13.709 -0.1370 -0.0968 -0.0401
13322W        W30169   0.362   8.989   0.977 -0.0721  0.0294 -0.0226
13323W        W30170   0.687  17.875   1.311  0.0204 -0.1678  0.1351
13324W        W30171   3.786  15.471   0.520  0.0198 -0.1317 -0.2653
13325W        W30172  13.061   4.044   4.035 -0.1525  0.1054 -0.0248
13326W        W30173   9.022   6.462   6.172  0.2026 -0.1933 -0.0524
13327W        W30174   3.271   0.910  14.439 -0.0152  0.1749  0.3130
13328W        W30175   3.450   7.080  13.997 -0.0450  0.0309 -0.1020
13329W        W30176   0.901  10.491   5.963 -0.1602  0.1077 -0.1173
13330W        W30177  11.628  14.361   2.414 -0.3386 -0.3259 -0.1476
13331W        W30178   4.952   0.104  13.982 -0.1559  0.0298 -0.0914
13332W        W30179  12.048   1.382  16.454  0.0536 -0.2515  0.1306
13333W        W30180   2.539  13.916   4.389 -0.1590 -0.2224 -0.3655
13334W        W30181  15.893   3.527  11.902  0.1245 -0.1612  0.2814
13335W        W30182  10.075  16.558   1.313  0.2957  0.1726  0.0400
13336W        W30183   3.403   7.422   2.135 -0.3439  0.3749 -0.3142
13337W        W30184  11.281   3.364  14.288 -0.0956  0.0306 -0.2577
13338W        W30185   9.904   1.953   2.198 -0.0121  0.0030 -0.1991
13339W        W30186   1.735   4.901   0.272  0.2213 -0.2226 -0.1410
13340W        W30187  17.640  17.264   3.504  0.0594 -0.1242 -0.0938
13341W        W30188   3.827  16.993  11.914  0.0767  0.1065  0.0686
13342W        W30189   8.502  17.300   2.333 -0.5765  0.0345  0.2096
13343W        W30190   6.116  17.282   1.019 -0.0682  0.2140  0.3622
13344W        W30191   4.658   2.415  11.654  0.2089 -0.0025 -0.1727
13345W        W30192   5.357   3.973  11.802 -0.1794 -0.3349  0.0486
13346W        W30193   4.913   1.480  13.775  0.0355 -0.1353  0.0364
13347W        W30194   0.087  11.423   0.552 -0.0409 -0.1660  0.4604
13348W        W30195   1.699   4.568   3.896  0.1422  0.3032 -0.2331
13349W        W30196  10.072  17.239  14.207  0.0261  0.0519  0.0897
13350W        W30197  11.560   4.249  13.655  0.1955  0.1273 -0.0329
13351W        W30198   9.018   4.338  14.609  0.1667 -0.2511 -0.2524
13352W        W30199   8.199  15.438   2.408 -0.3842 -0.0154  0.1849
13353W        W30200  16.515  14.877   3.826 -0.2079 -0.0246  0.0748
13354W        W30201  10.005   1.752  13.904  0.0290 -0.0873 -0.0177
13355W        W30202  14.492   9.505   1.167 -0.2084 -0.0025  0.0085
13356W        W30203   1.178  17.038  14.407  0.0515 -0.1874  0.1255
13357W        W30204   7.235  17.209   4.944  0.0134  0.1497  0.0115
13358W        W30205   9.676   3.338   3.977  0.0321 -0.2200  0.2131
13359W        W30206  14.127  15.160   5.505 -0.1024  0.0458 -0.0619
13360W        W30207   3.037  13.458   0.859  0.0646 -0.3380  0.1610
13361W        W30208   5.523   2.471   3.939 -0.2093 -0.2678  0.0928
13362W        W30209  12.992  13.159   4.885  0.1204  0.0248 -0.0908
13363W        W30210   4.835  10.708  16.017 -0.2236 -0.1857 -0.3051
13364W        W30211   0.261  13.844   1.022 -0.0996  0.2305 -0.0327
13365W        W30212   9.459  11.480  13.984 -0.0788  0.1222  0.0750
13366W        W30213  11.511   8.981   3.131 -0.3270 -0.0346  0.0932
13367W        W30214   3.422   2.420   1.476  0.5370  0.1778  0.1490
13368W        W30215  16.330   4.026  15.993 -0.0045  0.1119 -0.1670
13369W        W30216  16.166  15.562  11.754 -0.1111  0.2977  0.1268
13370W        W30217   7.399  17.899   3.182 -0.3143 -0.0094  0.0548
13371W        W30218  15.816  12.707  16.096  0.0661 -0.0178 -0.1686
13372W        W30219   4.830   6.449   2.655  0.1935  0.0482 -0.2411
13373W        W30220   0.942   0.358  15.061  0.2753  0.3158 -0.1447
13374W        W30221  14.686  12.919   3.957 -0.0122  0.1067  0.0125
13375W        W30222  16.177   6.758  15.036 -0.6045  0.0521 -0.1104
13376W        W30223  12.797  17.219   4.847  0.2048  0.3970  0.0469
13377W        W30224   7.073  15.538   0.029  0.0191  0.2845  0.0702
13378W        W30225   6.407   7.291   3.457 -0.2238  0.1884 -0.0243
13379W        W30226   4.213  10.748   1.817 -0.2860  0.1050 -0.3223
13380W        W30227   0.868   0.335  16.221  0.2229 -0.0489  0.0531
13381W        W30228  17.078   1.334  12.853  0.4383 -0.0249 -0.1593
13382W        W30229   9.467   4.614   5.254 -0.1167  0.3063  0.0555
13383W        W30230  14.534   8.718  15.984  0.0549 -0.2112 -0.1256
13384W        W30231  15.511   4.185   3.758  0.2488  0.2229 -0.1059
13385W        W30232   4.524  10.902  12.239 -0.0855  0.2066 -0.0657
13386W        W30233   0.429  14.879  13.910 -0.0726 -0.0751 -0.2076
13387W        W30234  17.669  11.708   4.066  0.2354 -0.1850  0.0317
13388W        W30235   0.553   4.139   1.518 -0.0786  0.3397  0.0905
13389W        W30236   8.377   8.507   3.975  0.1144  0.4647  0.0292
13390W        W30237  13.930   1.998  15.099 -0.2765 -0.1957 -0.0003
13391W        W30238  14.261   1.873  11.696  0.3351 -0.0691 -0.1778
13392W        W30239   5.315  15.387  13.542  0.3204 -0.1478 -0.3017
13393W        W30240   3.560   3.332   2.553  0.0259  0.2818  0.0541
13394W        W30241  14.998  14.883   4.680 -0.0857 -0.2108  0.0438
13395W        W30242  17.290   7.092   2.845  0.0718  0.0963 -0.3442
13396W        W30243  15.812   1.070  15.102  0.2645 -0.1382 -0.3525
13397W        W30244   2.706   5.521  12.759 -0.0651 -0.0656  0.0593
13398W        W30245  12.350   4.818   3.369  0.1741  0.1272 -0.1232
13399W        W30246   5.641  13.213  13.730  0.2745 -0.1289  0.0624
13400W        W30247   7.937  10.922   0.921 -0.2942 -0.1155  0.1112
13401W        W30248   7.472  14.096  12.252  0.0187 -0.1919  0.1936
13402W        W30249   8.881   6.899   1.898 -0.0205  0.0726  0.1138
13403W        W30250  12.804   2.121   3.002 -0.1242 -0.0884  0.0433
13404W        W30251  15.469   4.336  13.088 -0.0812  0.0526 -0.1852
13405W        W30252  14.782  11.123  16.411 -0.0968 -0.2056 -0.3794
13406W        W30253   3.329  10.099   2.065 -0.1196 -0.3216 -0.3663
13407W        W30254  15.568   8.016  14.483 -0.4665 -0.1310  0.1030
13408W        W30255   2.870   5.460   0.707 -0.1619 -0.1763  0.1026
13409W        W30256   8.843  10.129   1.284  0.3745  0.2591 -0.1795
13410W        W30257   3.445  11.561   0.983 -0.2961  0.1328  0.0990
13411W        W30258  13.755   7.229  15.139  0.0973 -0.3181  0.2079
13412W        W30259   9.962  14.727  16.016  0.1617 -0.0200 -0.0057
13413W        W30260   7.296  16.996  12.452 -0.1030 -0.0665  0.5759
13414W        W30261  14.383   9.684   4.069  0.2252 -0.0122  0.0679
13415W        W30262   1.639   4.345   3.428  0.0169  0.0815  0.1536
13416W        W30263   8.886   0.949   3.934 -0.0532 -0.0036 -0.0811
13417W        W30264  16.524  13.186   2.535 -0.0898  0.1548  0.1776
13418W        W30265   2.368  11.086  11.699  0.0589  0.4964  0.2740
13419W        W30266   9.545   8.217  14.912  0.0872  0.0722 -0.1244
13420W        W30267  12.168  14.455  12.065 -0.0132 -0.1870 -0.0753
13421W        W30268   6.616   1.891   1.201 -0.1807  0.2861  0.1593
13422W        W30269  15.747  11.424  12.285  0.0276 -0.0927 -0.2836
13423W        W30270   7.509   5.193   4.808 -0.0973 -0.1826 -0.0805
13424W        W30271   9.472  17.132   1.180  0.1992 -0.2568 -0.1774
13425W        W30272   9.106   0.966  13.691 -0.0318 -0.0306  0.3280
13426W        W30273   9.580  17.288  12.054 -0.1946 -0.0418 -0.1623
13427W        W30274  10.433   2.803   3.460 -0.1820  0.1570  0.0508
13428W        W30275   2.841   7.540  13.597  0.1437  0.0373 -0.0954
13429W        W30276  12.994  15.150   2.005  0.2841 -0.2927  0.0047
13430W        W30277  10.217  14.077   5.016 -0.2228 -0.2511 -0.2892
13431W        W30278   4.084  15.911  12.486  0.0317  0.1002  0.1145
13432W        W30279   3.345   4.024   4.143 -0.1428  0.3666 -0.2432
13433W        W30280   9.552   4.175   5.611 -0.1525  0.1442 -0.0598
13434W        W30281   9.964   6.808   2.543  0.0392  0.4525  0.1654
13435W        W30282  12.522   1.142   5.024  0.1710  0.0336 -0.2108
13436W        W30283   0.561   4.768   2.411  0.1497 -0.0086  0.1864
13437W        W30284   2.014  15.321   5.207  0.3045 -0.1626  0.0246
13438W        W30285   0.820   7.368  11.159 -0.0469 -0.0159  0.0695
13439W        W30286   8.009  14.783   3.401 -0.0964 -0.0328 -0.0016
13440W        W30287   6.492   8.265  11.394 -0.0356  0.1407  0.0529
13441W        W30288  17.403  15.193   1.534  0.1036  0.0946 -0.0215
13442W        W30289  15.067  10.338   4.412 -0.0236 -0.0636 -0.1984
13443W        W30290  14.432  15.060  13.757 -0.2629  0.1478  0.2339
13444W        W30291   9.420   9.674   1.970 -0.1361 -0.1546  0.0935
13445W        W30292  14.985  16.819   6.056 -0.0586 -0.2303  0.2079
13446W        W30293  16.548  16.933  12.942 -0.0889 -0.1761  0.0497
13447W        W30294   1.782   8.264   4.875 -0.1228 -0.0984  0.2375
13448W        W30295  15.351  13.728   2.416  0.1925  0.0484 -0.0107
13449W        W30296   4.203   5.534  14.290  0.0426 -0.0819  0.0882
13450W        W30297  15.676  12.894   1.602  0.0703 -0.0493  0.2654
13451W        W30298   6.348  16.286  11.958  0.0874 -0.4464 -0.3597
13452W        W30299  10.137   1.027   2.694  0.1122  0.0759 -0.0416
13453W        W30300   0.080   3.870  14.737 -0.2283  0.0682 -0.0916
13454W        W30301  11.698   9.071  11.907  0.1491  0.2327  0.0966
13455W        W30302   2.276  12.843   3.650  0.1901  0.3667 -0.1857
13456W        W30303  13.697  15.492   0.411 -0.0015 -0.1570 -0.1533
13457W        W30304   5.831   7.428   5.215 -0.0013  0.1430 -0.2092
13458W        W30305   6.901  17.155   2.046 -0.0666  0.0594 -0.0668
13459W        W30306   1.516   4.804   3.459  0.1438 -0.1656 -0.1430
13460W        W30307   7.381  14.403  14.670 -0.1156  0.1987  0.0101
13461W        W30308  15.581  12.699   2.465 -0.1101  0.0727 -0.0793
13462W        W30309   9.546   4.252  13.228 -0.0099  0.0030 -0.2930
13463W        W30310  17.420  15.819  16.739 -0.2632  0.2298 -0.1150
13464W        W30311  17.536   5.182   0.681  0.0335  0.4556  0.1500
13465W        W30312  16.601   4.791  16.130 -0.4582 -0.2188  0.2956
13466W        W30313  12.402   0.306  12.566 -0.0112 -0.0693  0.0838
13467W        W30314  17.274   8.711   2.681  0.0864  0.4217  0.1485
13468W        W30315   4.480  12.765  15.315 -0.1139  0.3118 -0.0280
13469W        W30316   5.313   2.677  15.750 -0.2324  0.1389 -0.3616
13470W        W30317  10.206   3.460   0.450 -0.0187  0.0131 -0.1612
13471W        W30318   7.534   2.899   1.556 -0.0198 -0.0737  0.0605
13472W        W30319  16.012   4.801   4.796  0.1462 -0.1603  0.0230
13473W        W30320  11.729   9.573   2.261 -0.0628 -0.0685 -0.3703
13474W        W30321  12.655   4.061   2.354  0.0732  0.1487  0.1954
13475W        W30322  13.380   6.791  12.261  0.1849  0.1974  0.1176
13476W        W30323   4.355   8.740   4.687  0.1681  0.3356  0.1882
13477W        W30324  10.741  11.959  13.776 -0.0065  0.1075 -0.0199
13478W        W30325  14.365   7.769   1.051 -0.0148  0.1146 -0.0918
13479W        W30326   7.920   8.684  14.841  0.1813  0.0896 -0.1108
13480W        W30327   2.885   5.223   5.730  0.1913 -0.0696  0.2550
13481W        W30328  10.958   3.512   2.169  0.0190 -0.0408  0.1371
13482W        W30329  12.598  13.325   3.194 -0.0951 -0.0070  0.0264
13483W        W30330  14.518   2.544   0.343 -0.0648 -0.0371  0.2031
13484W        W30331  17.109  15.032  14.800  0.0038  0.1552  0.0038
13485W        W30332   3.915   0.919  15.700 -0.1043  0.0650  0.4909
13486W        W30333   3.641  14.880  13.795  0.0947 -0.1552  0.1296
13487W        W30334   7.259  14.600   4.248 -0.0130  0.0401 -0.1671
13488W        W30335   4.552   7.842   4.818 -0.3405  0.0344  0.0200
13489W        W30336   3.785  15.186  12.233 -0.0655 -0.0764  0.3419
13490W        W30337  14.243  10.312   3.298  0.2111  0.0679 -0.0412
13491W        W30338   7.235   7.674   0.553 -0.1017 -0.3214 -0.2352
13492W        W30339  15.235   0.744  13.172 -0.1563 -0.4177  0.1280
13493W        W30340   3.409  17.130  12.221  0.1103 -0.3354  0.0455
13494W        W30341   8.369   5.938  12.356  0.4182 -0.1657 -0.2340
13495W        W30342   1.068   7.958  12.725 -0.0310 -0.0020  0.0562
13496W        W30343   4.728   8.636   2.132  0.0454 -0.2080 -0.2210
13497W        W30344   6.967  10.369   2.563 -0.1164 -0.0849  0.3341
13498W        W30345   1.216   7.017  15.259 -0.0196 -0.0112  0.2657
13499W        W30346   3.693  17.580   0.725 -0.1965  0.0670 -0.0691
13500W        W30347   9.108   2.681   0.176  0.1781  0.3105 -0.0697
13501W        W30348   9.238   4.786   3.122 -0.1654  0.0746  0.2425
13502W        W30349   0.663  15.042  15.652  0.0520 -0.1586 -0.1730
13503W        W30350  15.288   7.374   3.381  0.1633 -0.0656  0.0174
13504W        W30351   3.781   3.253  13.477 -0.0507 -0.0306 -0.1881
13505W        W30352   9.028   4.141  12.549  0.2032  0.1877  0.1561
13506W        W30353  17.104  11.298   1.114  0.0583  0.2323 -0.0709
13507W        W30354  13.582  15.917   5.186 -0.2201  0.0109  0.0089
13508W        W30355  10.549  13.302   1.391 -0.4665  0.0648 -0.0742
13509W        W30356   6.489   9.860   0.893  0.2248  0.1837  0.0860
13510W        W30357  15.690  10.934   4.332  0.1506 -0.0578 -0.1228
13511W        W30358   1.852   5.724   1.710  0.0826 -0.1458  0.1462
13512W        W30359  16.603  10.709   4.110  0.0241 -0.0331 -0.1373
13513W        W30360   5.752  11.801  13.296 -0.2052  0.0790  0.1718
13514W        W30361  14.881  12.373  15.762  0.3138  0.1980 -0.1313
13515W        W30362  17.171   9.809   0.213  0.0292  0.0172 -0.0113
13516W        W30363  13.377  15.011   1.225 -0.1438  0.1140 -0.1967
13517W        W30364  11.754  14.209  13.180  0.1403  0.0955  0.0834
13518W        W30365  13.541  12.324   3.632 -0.0303  0.5023  0.2660
13519W        W30366   2.159   7.669   0.408 -0.1135  0.0649  0.3486
13520W        W30367   1.240  15.607  16.416 -0.0533 -0.0924 -0.3762
13521W        W30368   7.533  13.117   4.747  0.1067 -0.0230  0.0332
13522W        W30369  11.874   4.488  12.287  0.0599  0.1468  0.2271
13523W        W30370   3.029  15.890   5.091  0.0351 -0.3086 -0.2050
13524W        W30371  14.647  12.438   3.060 -0.1684 -0.0186 -0.0690
13525W        W30372  15.570   4.410   6.028 -0.1655  0.0306 -0.3026
13526W        W30373   8.330  15.862   2.614 -0.2284  0.1733  0.2555
13527W        W30374   6.086   0.208   4.664 -0.3564 -0.2087  0.0696
13528W        W30375   9.835  10.830   3.002  0.1837  0.3155 -0.0813
13529W        W30376   7.610   5.639   3.867 -0.1258 -0.0441  0.1938
13530W        W30377   0.018  12.883   5.465  0.0632  0.0629 -0.0982
13531W        W30378  15.969  12.530   2.816  0.1673 -0.0152 -0.3716
13532W        W30379  12.643   3.353  13.213  0.2538  0.1308 -0.3954
13533W        W30380  13.134   0.765   4.509 -0.4685  0.0659 -0.1437
13534W        W30381   8.340   2.489   2.169  0.2321 -0.2618 -0.1222
13535W        W30382   1.362  16.253   2.173 -0.2651 -0.2983 -0.0298
13536W        W30383   0.463   2.067   2.539 -0.1041 -0.3315 -0.0185
13537W        W30384  15.860   0.734   1.289  0.2692 -0.1335 -0.0755
13538W        W30385   8.213   7.463  12.042  0.3016 -0.1787 -0.3079
13539W        W30386   9.961  14.359  12.217  0.2253  0.1646  0.0157
13540W        W30387   3.739   1.854   1.568  0.1828  0.2328 -0.1272
13541W        W30388   3.199   9.566  11.573 -0.1769 -0.1695 -0.1661
13542W        W30389   6.903  11.857   2.684  0.1588  0.0545  0.0635
13543W        W30390  15.033  10.756  15.209  0.3037  0.2281 -0.2231
13544W        W30391  12.819   0.925   2.979 -0.2390 -0.1312  0.0953
13545W        W30392   0.688   2.246  16.324 -0.3863  0.2911 -0.1111
13546W        W30393  10.548  12.345  16.731  0.1206 -0.2127  0.0478
13547W        W30394  17.252   0.075   5.451 -0.0443 -0.0534 -0.0023
13548W        W30395   7.696   9.480  14.717 -0.1315 -0.0260  0.3207
13549W        W30396   3.916  15.614  13.191 -0.2695 -0.0662 -0.1528
13550W        W30397  12.327  11.357  12.078  0.1322 -0.0385  0.0729
13551W        W30398  14.042   5.782  13.613  0.2867  0.2789 -0.1664
13552W        W30399   6.400   1.750  16.505 -0.2017 -0.3597 -0.0928
13553W        W30400   7.235  11.429  12.410 -0.0151  0.1363 -0.0102
13554W        W30401   9.486  12.482  12.595  0.3402 -0.2015 -0.0877
13555W        W30402  10.187  15.702   6.273  0.2653  0.2236 -0.0208
13556W        W30403   5.511   0.622   2.685  0.1781  0.2468 -0.0859
13557W        W30404   6.344   3.508   0.045  0.0227  0.1432  0.3339
13558W        W30405   5.047  15.071  15.682 -0.3285  0.0581 -0.0714
13559W        W30406  12.937   5.565  14.997  0.0008  0.0120  0.0669
13560W        W30407  16.056  10.513  13.788  0.0861  0.1599  0.1449
13561W        W30408  14.406   8.972   1.916  0.2935 -0.1677 -0.2207
13562W        W30409   0.183   6.743   3.227  0.0334 -0.0053  0.1245
13563W        W30410  15.822   7.630   2.050 -0.3845 -0.1373  0.0066
13564W        W30411   4.053   9.673   2.211  0.1773 -0.1528  0.0922
13565W        W30412   3.973   4.351  12.258  0.0232  0.0827  0.0954
13566W        W30413   4.855  12.166  14.493  0.2078  0.0575 -0.1138
13567W        W30414   2.381   0.773   2.718  0.2493 -0.1715 -0.1618
13568W        W30415   3.877   5.713   5.627  0.1122 -0.3801  0.1712
13569W        W30416  11.131   2.880  14.671 -0.2329 -0.0038 -0.0915
13570W        W30417  10.368   1.429  12.043  0.4250 -0.0217 -0.0629
13571W        W30418  15.064  15.077   2.540 -0.1545 -0.1190  0.4289
13572W        W30419   8.704  12.263   2.429  0.2360 -0.0283 -0.2899
13573W        W30420  16.475   9.257   5.345  0.3358  0.0069  0.2132
13574W        W30421   1.281  15.697   4.715  0.2250  0.1793  0.2006
13575W        W30422   0.307   5.948  12.907 -0.1253 -0.2050  0.1617
13576W        W30423   4.479   0.198  14.144  0.2720 -0.0518  0.3044
13577W        W30424  15.850  10.048  14.049 -0.3013  0.1153 -0.0553
13578W        W30425   9.318   9.803   4.850 -0.0302  0.0486 -0.0395
13579W        W30426  11.981   1.845  15.611 -0.1769 -0.1717  0.1325
13580W        W30427   0.422   4.383   2.639 -0.2920  0.1046  0.0205
13581W        W30428   8.843  12.599   0.008 -0.0461 -0.0533 -0.0930
13582W        W30429  14.890   1.243  14.050  0.1693 -0.0008 -0.2299
13583W        W30430  13.837  12.016   3.424 -0.0571  0.2156 -0.0879
13584W        W30431   1.268   1.426   2.429  0.0461 -0.0052 -0.0605
13585W        W30432   6.377  12.208   2.008  0.0323  0.0843 -0.0279
13586W        W30433  14.318  14.406   2.713 -0.3325 -0.3063  0.1457
13587W        W30434  12.200  14.478  14.327  0.0571  0.2048 -0.2215
13588W        W30435  12.779  17.326  15.201  0.2125 -0.2096  0.0144
13589W        W30436  10.327  10.568   0.877 -0.1748  0.1094 -0.0946
13590W        W30437   5.679   4.434   2.323  0.3044 -0.0949  0.0563
13591W        W30438  11.250  15.481   5.554  0.1703  0.1037 -0.1474
13592W        W30439   7.371  17.061   1.973 -0.2082  0.2094 -0.3073
13593W        W30440  14.706   9.688  16.495 -0.0102  0.1124  0.0659
13594W        W30441  13.758  14.849   0.877 -0.0172  0.0920  0.1785
13595W        W30442   9.566   4.441   3.304 -0.2810  0.1800  0.2916
13596W        W30443   1.782   8.096   4.437  0.1094 -0.2151  0.3614
13597W        W30444  16.702  16.400   5.155 -0.1296 -0.0736 -0.0117
13598W        W30445   4.685   7.666  12.765 -0.1356 -0.1720  0.0317
13599W        W30446   9.276   7.482   2.896 -0.0148  0.0905  0.2453
13600W        W30447  17.952   6.212  15.125 -0.0068  0.0689  0.1172
13601W        W30448  16.233  13.770   3.074 -0.0670 -0.2930 -0.2616
13602W        W30449   5.232  16.957   3.476 -0.0357  0.0493  0.1154
13603W        W30450   7.090   0.584   4.826 -0.0153 -0.1010 -0.3300
13604W        W30451  16.096  13.567   6.186 -0.0441  0.2847  0.1719
13605W        W30452   2.320  17.272  15.710 -0.1157  0.1880 -0.0220
13606W        W30453  12.014   8.988   2.983 -0.0139 -0.4180 -0.1410
13607W        W30454   0.975   6.412  16.375 -0.0304 -0.0294 -0.1580
13608W        W30455  12.260   4.579   3.863  0.2967  0.1901 -0.3364
13609W        W30456   1.583   7.481   5.587  0.1482  0.1522 -0.1828
13610W        W30457  17.077   0.111  16.176  0.0420 -0.1855  0.1843
13611W        W30458  14.384   5.426  14.438  0.2322 -0.1020  0.0380
13612W        W30459  12.068   9.440  13.842  0.0849 -0.0086  0.4139
13613W        W30460  17.635   9.528  12.732  0.0097  0.2224 -0.0233
13614W        W30461  10.963   6.437   0.502  0.2184 -0.0668  0.0923
13615W        W30462   5.609  11.259   0.589 -0.3104  0.0713 -0.0742
13616W        W30463   8.320   2.891   3.183  0.0779  0.0729 -0.1156
13617W        W30464   7.033   1.345  14.800  0.1485 -0.3275 -0.1734
13618W        W30465  15.817   6.210   3.104  0.0539  0.0305  0.2804
13619W        W30466   8.960  16.340   2.257 -0.0240 -0.3053  0.2516
13620W        W30467   9.325   5.290   3.231 -0.1064 -0.3908 -0.0104
13621W        W30468  10.415  11.566  13.668 -0.0213 -0.1931  0.1515
13622W        W30469   0.786  11.494  14.458  0.0322  0.0295 -0.1873
13623W        W30470   5.217   2.595   4.777  0.3428 -0.0446 -0.1754
13624W        W30471  15.281   0.662  14.035  0.2466  0.0689  0.3464
13625W        W30472   7.807   2.284  12.157  0.1841  0.2849 -0.0095
13626W        W30473  13.726   5.532  12.597 -0.2076 -0.0769  0.2014
13627W        W30474   2.656   2.832  12.535 -0.0968  0.1809  0.1217
13628W        W30475   2.468  15.521  16.129  0.0123  0.0056 -0.0398
13629W        W30476  12.502   4.044   1.517 -0.1661  0.1024 -0.0063
13630W        W30477   7.149   1.838  11.587  0.0737 -0.3649  0.0945
13631W        W30478   4.766  13.131   3.774  0.0298 -0.2106 -0.1425
13632W        W30479  10.537   0.102  16.603  0.2748  0.1223 -0.1493
13633W        W30480  10.424  17.354   3.615  0.0854  0.0400  0.0418
13634W        W30481  13.854  13.534  11.744 -0.2061  0.1700 -0.0956
13635W        W30482   2.573  16.307  14.283 -0.1013  0.1966  0.1476
13636W        W30483   1.242   5.292  12.469  0.1646 -0.1254  0.1060
13637W        W30484  11.413   8.014  12.935 -0.1649 -0.0082 -0.0647
13638W        W30485   8.265   7.702   5.278 -0.0589  0.1673  0.1835
13639W        W30486   3.827   5.404  13.953  0.1533  0.2628 -0.2168
13640W        W30487   7.508  11.863  12.327 -0.2891  0.1977 -0.2080
13641W        W30488   6.884   6.161  13.085  0.1735  0.0672 -0.0436
13642W        W30489   2.038  14.404   5.741  0.2001  0.1304 -0.1047
13643W        W30490   3.571   0.589  11.020  0.1284 -0.2234 -0.2433
13644W        W30491   5.467   1.925   5.314  0.1534  0.1380 -0.2941
13645W        W30492  12.009   4.273  16.416 -0.1273 -0.0855 -0.0799
13646W        W30493  17.926  16.953   1.342 -0.2550 -0.0648 -0.1263
13647W        W30494  10.374   8.766   3.548 -0.1889 -0.0620 -0.1263
13648W        W30495  17.868  12.215   3.943  0.0506 -0.1179 -0.1324
13649W        W30496   5.903   0.697   2.364  0.1940  0.3231 -0.1260
13650W        W30497   1.717   1.340  14.077  0.3283 -0.3433  0.1215
13651W        W30498  15.059   8.097  14.528 -0.3257  0.1473  0.0994
13652W        W30499  17.800  10.665   2.079 -0.2095  0.1271 -0.0155
13653W        W30500  11.901   8.235   5.449 -0.1874  0.0869  0.2030
13654W        W30501   6.310  13.104   2.866  0.0536  0.1485  0.3085
13655W        W30502  17.242  11.708   1.427 -0.0159 -0.2517  0.0020
13656W        W30503  11.997  15.350  12.620  0.0009 -0.1301  0.1751
13657W        W30504   4.881  10.297   4.898 -0.3032 -0.0202 -0.0434
13658W        W30505  10.496  15.242   1.608  0.1877 -0.3355  0.2083
13659W        W30506  15.799   3.773   4.302  0.1413 -0.0742 -0.2369
13660W        W30507  15.103  16.315   2.966 -0.2081 -0.2149 -0.0339
13661W        W30508  14.726  14.247   4.064  0.2917  0.1304  0.3506
13662W        W30509  15.525   5.964   1.227 -0.0079  0.0585 -0.0214
13663W        W30510   8.947   1.551   5.990 -0.3609 -0.0004  0.0262
13664W        W30511   5.917  11.252  13.090  0.0335  0.1630  0.1958
13665W        W30512  12.953   7.546   4.241  0.1262  0.0746  0.1595
13666W        W30513  14.688   0.269   1.635  0.2008 -0.1552  0.1633
13667W        W30514   0.763   1.590   3.433 -0.2002  0.1312 -0.0060
13668W        W30515  16.199  14.037   2.658 -0.4271  0.1246 -0.2405
13669W        W30516   0.645  10.689  13.958 -0.1072 -0.1260 -0.3502
13670W        W30517   7.372  10.221   5.761 -0.2806 -0.0285 -0.2242
13671W        W30518   5.575   7.972   0.343 -0.2434  0.0208  0.1424
13672W        W30519  11.697   4.511   1.126  0.1938  0.2703  0.2764
13673W        W30520   2.458   5.103   2.612 -0.2581 -0.1549 -0.0574
13674W        W30521  17.344  13.908   4.895  0.3041  0.1268  0.0129
13675W        W30522  15.067   7.309  11.984  0.3986 -0.1473  0.1012
13676W        W30523  11.659   4.320   5.727 -0.1575  0.2879  0.1699
13677W        W30524   1.207  13.604   2.541 -0.0774 -0.1618 -0.0114
13678W        W30525   7.878   6.556   1.423  0.0560 -0.1285 -0.2493
13679W        W30526   5.189   2.279  15.491  0.3609 -0.0272  0.2712
13680W        W30527   8.140   9.756  14.998  0.1010 -0.2381 -0.2827
13681W        W30528   6.927   3.872  14.606  0.0190 -0.0686 -0.0173
13682W        W30529   6.224   3.179  12.571  0.2056 -0.0448  0.0256
13683W        W30530   5.923  13.491  13.291  0.1702  0.0806  0.0316
13684W        W30531  15.751  11.784   5.440  0.0848 -0.1579  0.1758
13685W        W30532  17.952   7.099  13.308 -0.0469 -0.1672 -0.1549
13686W        W30533   6.162   2.379   3.540  0.1172  0.0961  0.1415
13687W        W30534  13.335  11.060   5.156  0.1174  0.1953 -0.0765
13688W        W30535  13.269   4.550   2.520 -0.2396  0.0805  0.2368
13689W        W30536   0.102   3.285   3.683  0.0489 -0.0991  0.0538
13690W        W30537   7.255  11.107  13.248 -0.1368  0.0230  0.0667
13691W        W30538   0.597  15.065   0.595  0.1176 -0.0322  0.0361
13692W        W30539   4.784  13.244  15.082 -0.0269  0.4348  0.1961
13693W        W30540   3.481  15.266  13.289  0.1406 -0.1211  0.1043
13694W        W30541  10.571  16.215  14.800 -0.2239 -0.1589  0.2889
13695W        W30542   3.730  13.729   3.009 -0.0989  0.0341  0.1160
13696W        W30543   1.516  16.843   0.143 -0.0337 -0.0308 -0.2328
13697W        W30544  11.074  13.783   5.130  0.0231 -0.2039 -0.3733
13698W        W30545   4.556   6.306   2.263  0.0537  0.2274  0.0484
13699W        W30546  10.463   3.550   3.541  0.1236 -0.1401 -0.0051
13700W        W30547   8.356   6.903  12.140  0.0663  0.0055  0.2960
13701W        W30548  14.700  11.180  12.583 -0.2929 -0.2347 -0.0228
13702W        W30549  14.133   8.949   0.156  0.1841 -0.1592 -0.1571
13703W        W30550   6.831  13.652  14.246  0.0059  0.2632 -0.1078
13704W        W30551   4.294   1.709   0.055  0.1984 -0.1510  0.0027
13705W        W30552   0.630   7.351  13.359  0.2201 -0.0956  0.1208
13706W        W30553   5.612   5.654  15.195  0.0171  0.2729 -0.1000
13707W        W30554   7.362   3.673   0.055  0.0440  0.1566  0.2403
13708W        W30555   6.576  11.555   2.868  0.0860 -0.2119 -0.2066
13709W        W30556  10.469   3.719   2.963 -0.0658 -0.1140 -0.1300
13710W        W30557  10.844  16.762   4.963 -0.1148  0.0697  0.0724
13711W        W30558   3.864   6.024   2.693  0.0054 -0.1676 -0.0181
13712W        W30559   8.477   3.276  14.054  0.0951 -0.3441 -0.0973
13713W        W30560  11.765  11.701   2.940  0.2857 -0.1368 -0.1973
13714W        W30561  10.203   2.909  15.607 -0.1666 -0.1644  0.2573
13715W        W30562   3.477  17.762   0.347 -0.1451  0.2094 -0.1136
13716W        W30563  10.853   7.220   0.820  0.2379 -0.1292  0.2879
13717W        W30564   6.164   5.106  14.680 -0.1883  0.4770 -0.0290
13718W        W30565  10.375   4.003  12.487 -0.0541 -0.1096 -0.0517
13719W        W30566  17.204   0.985  12.539  0.1349 -0.1445 -0.0655
13720W        W30567   4.823   4.244   4.508  0.1442 -0.3587  0.1359
13721W        W30568  12.072  15.620  12.237  0.0725  0.1230 -0.0824
13722W        W30569   0.553   9.810   3.172 -0.1309 -0.2779 -0.1566
13723W        W30570  16.442   0.525  12.435 -0.1616  0.0087  0.0791
13724W        W30571  15.645   7.325   5.495 -0.1106  0.0234  0.0721
13725W        W30572   9.137   6.479  15.859  0.0446  0.1193  0.0207
13726W        W30573   7.787   9.991  12.422 -0.0765 -0.1110  0.1238
13727W        W30574   7.869  13.372   3.558  0.0793  0.1150 -0.0195
13728W        W30575   3.144   6.512   4.721 -0.1157 -0.0959  0.0660
13729W        W30576  10.195   5.379   4.310 -0.1225 -0.2345 -0.0953
13730W        W30577  13.598   8.196  14.239  0.4091  0.1149  0.0837
13731W        W30578  14.970  17.696   0.920 -0.0900 -0.2551 -0.1232
13732W        W30579   9.480   1.929   0.581  0.1051  0.0364  0.3586
13733W        W30580  14.676  14.435  14.436 -0.2059  0.1367 -0.1922
13734W        W30581  12.297  16.575   2.948  0.0655  0.2378  0.0754
13735W        W30582   9.580   2.091  15.650 -0.0947 -0.1033  0.1190
13736W        W30583  13.329   0.662   3.123  0.4172 -0.2368  0.2223
13737W        W30584   1.697   8.103  15.681  0.1073  0.0682 -0.2381
13738W        W30585   4.761  14.229   5.797 -0.2285  0.1640  0.3971
13739W        W30586   5.169   8.144   3.617 -0.1699  0.2042 -0.0095
13740W        W30587   1.701   3.380   4.638  0.0115  0.0149 -0.1053
13741W        W30588  17.630  11.209  12.257 -0.1301 -0.0506 -0.0875
13742W        W30589   7.372  14.563  11.802 -0.0716 -0.0092 -0.1979
13743W        W30590   0.529  14.456   5.645 -0.0606 -0.0364  0.3714
13744W        W30591   2.779   1.665  16.162  0.0600  0.0192  0.0026
13745W        W30592  16.465   2.709   5.456  0.0144 -0.0212 -0.0371
13746W        W30593   7.285   1.277  16.309  0.0885  0.1812 -0.2593
13747W        W30594   8.567   9.342  13.683  0.0803  0.1733  0.0075
13748W        W30595   2.913   8.985   2.788 -0.2611 -0.0871 -0.0152
13749W        W30596   0.099   6.448   5.238 -0.0526  0.1288 -0.2433
13750W        W30597  12.774  16.846   3.642 -0.0929 -0.1768 -0.2241
13751W        W30598  11.950   7.233   1.577  0.3925  0.0257  0.2639
13752W        W30599   5.143   0.536   0.068  0.0204  0.0757  0.2565
13753W        W30600   4.755   3.065   2.538  0.1365 -0.1969  0.0297
13754W        W30601  15.867   4.910  11.877  0.0593  0.0488  0.1316
13755W        W30602   0.532  13.387  16.009  0.0182  0.0407 -0.1788
13756W        W30603   5.404   8.662  12.645 -0.2830 -0.0102 -0.0269
13757W        W30604  15.519   7.131  11.796 -0.1612  0.1607  0.2943
13758W        W30605   2.451  16.326  14.847  0.0907 -0.0173  0.4094
13759W        W30606  15.903   4.982   3.231 -0.1614 -0.0788 -0.2165
13760W        W30607   2.487   5.630  13.220 -0.0294  0.2036 -0.4075
13761W        W30608   3.781   2.357   1.763  0.2345  0.0200 -0.0582
13762W        W30609  14.296   1.959   4.984 -0.0217 -0.2334  0.0925
13763W        W30610   9.560  11.787   4.975 -0.0522  0.0436 -0.1525
13764W        W30611   6.170  11.910  16.753  0.0694 -0.0804  0.2919
13765W        W30612  12.637   1.809  11.929  0.1297  0.1068 -0.4887
13766W        W30613  16.633  11.819   3.930 -0.0531 -0.2200  0.0230
13767W        W30614  13.334  11.428  15.919  0.4090 -0.0962  0.0370
13768W        W30615   5.893  14.934  12.509 -0.0289  0.0171 -0.1301
13769W        W30616   1.470   5.359  13.325 -0.0657 -0.1398  0.2013
13770W        W30617  14.778  11.610  12.915 -0.0436 -0.2536 -0.0365
13771W        W30618  12.644   5.018  15.952  0.1692 -0.0985  0.0615
13772W        W30619  10.727   0.171  11.597 -0.0770  0.0720 -0.0288
13773W        W30620  15.344  15.759  11.748 -0.0528  0.0091  0.2131
13774W        W30621   0.154   1.877  14.885  0.1558  0.1389  0.1525
13775W        W30622   7.721  13.131   2.720  0.2261 -0.3777 -0.1666
13776W        W30623   1.077   7.182  14.366 -0.1138  0.0344 -0.1011
13777W        W30624   1.291  13.121  15.837  0.1212  0.0738 -0.1636
13778W        W30625  10.254   1.444  15.668  0.6055  0.1920 -0.0465
13779W        W30626   3.081   6.467  14.514 -0.1686  0.1945  0.1662
13780W        W30627   8.853   6.048  15.028 -0.1026 -0.1374  0.1655
13781W        W30628  15.115  14.814  11.960 -0.2626 -0.0080  0.1388
13782W        W30629   3.439  17.159  14.999 -0.2912  0.0200 -0.0173
13783W        W30630  14.526   8.721  14.010  0.1231 -0.0005  0.1172
13784W        W30631  15.801   5.710  15.952  0.0365 -0.0776 -0.2422
13785W        W30632   9.459   4.640   2.668  0.2049  0.3122  0.1001
13786W        W30633  13.213   9.784  16.141 -0.2190  0.1325  0.3339
13787W        W30634  12.711   6.023   5.823 -0.1303  0.1085 -0.3074
13788W        W30635   0.645  14.467   6.124  0.0165 -0.4279 -0.1768
13789W        W30636   9.401  12.862  15.673 -0.1033  0.0159 -0.1056
13790W        W30637  10.679  17.253  12.081  0.2965 -0.1497  0.0028
13791W        W30638  15.426   3.094  11.493  0.1126 -0.1129  0.2328
13792W        W30639  16.550  12.803   2.179  0.1023 -0.0352 -0.1202
13793W        W30640   4.358   9.678   5.403 -0.1722  0.2019  0.1346
13794W        W30641  15.515  15.008   2.759  0.1511  0.2664 -0.2065
13795W        W30642  16.102  17.300   6.099 -0.1115  0.2360  0.1369
13796W        W30643   8.538  17.359  14.186 -0.2152  0.3528  0.2156
13797W        W30644   1.962  15.644  11.702  0.0490  0.0327  0.1756
13798W        W30645   9.187  14.320  14.207 -0.2965  0.2015  0.2448
13799W        W30646   5.323   9.864  14.503  0.0632 -0.0260 -0.3293
13800W        W30647   6.841   6.854   2.727 -0.1095  0.0462  0.3623
13801W        W30648   5.206   7.005  16.424 -0.2209  0.3471 -0.0296
13802W        W30649   2.719  13.108   3.550  0.0679  0.1261 -0.1848
13803W        W30650  10.902  16.093   0.474 -0.1293  0.0321  0.0281
13804W        W30651   3.873  12.460  11.935  0.0956 -0.0466  0.0112
13805W        W30652  12.738  11.541   4.165  0.1210 -0.0747  0.0550
13806W        W30653   1.020   2.065   0.721 -0.1647 -0.0295  0.0251
13807W        W30654   7.414  12.096   3.488  0.2981  0.1587  0.1575
13808W        W30655  16.764  10.411   4.485  0.1946 -0.2487  0.1503
13809W        W30656  12.748   0.692  11.868  0.1316  0.1442  0.1633
13810W        W30657  13.751   0.021  12.302  0.4982 -0.2476 -0.0434
13811W        W30658   8.212   4.014  16.278  0.0927 -0.0274 -0.0522
13812W        W30659   9.470   8.948   3.524  0.0188 -0.3277  0.4904
13813W        W30660  15.072  13.973   4.302 -0.0799  0.0662  0.1682
13814W        W30661  15.930   9.820   0.406 -0.1668  0.0913  0.0842
13815W        W30662   6.201   6.320  11.882  0.0835 -0.1651 -0.2316
13816W        W30663  14.182  12.557   5.651 -0.0737  0.1212 -0.1532
13817W        W30664  13.729  10.211   4.293 -0.1345 -0.1136 -0.0970
13818W        W30665   7.210   4.839   4.925  0.2464 -0.0593  0.0422
13819W        W30666  15.634   1.745  12.275  0.5777  0.0908  0.1857
13820W        W30667  13.850  16.737  14.921  0.0349  0.1010  0.2598
13821W        W30668   9.177   3.618  13.634  0.2253  0.0849  0.2427
13822W        W30669  14.683   3.133   2.150  0.2200  0.0901 -0.1547
13823W        W30670   2.001  17.793   1.809  0.4892  0.2995 -0.2925
13824W        W30671  10.295   7.643   4.654 -0.1837 -0.2912 -0.1091
13825W        W30672   4.583   6.399  12.342  0.0638  0.3827 -0.0931
13826W        W30673   5.598   7.012   5.090 -0.0974 -0.1302  0.0828
13827W        W30674  10.750   3.262  13.371  0.1292  0.1523  0.2482
13828W        W30675   7.400   1.434  15.443  0.1943 -0.2006 -0.1529
13829W        W30676   9.123   6.357   1.095  0.0422 -0.1681  0.1348
13830W        W30677  15.601   0.389  16.403  0.0545  0.0641  0.2445
13831W        W30678  17.812   4.930  13.930  0.0196 -0.0772 -0.0050
13832W        W30679  12.460  10.970   0.848  0.1593 -0.0360 -0.2173
13833W        W30680   6.875   2.295  14.835 -0.1114 -0.1085 -0.2440
13834W        W30681   5.045   6.415  14.950  0.0976 -0.0609  0.3093
13835W        W30682  16.213  10.732  15.735  0.0539  0.2241  0.0572
13836W        W30683  10.025  10.577   5.393  0.1410 -0.0915  0.0819
13837W        W30684   6.674  17.762  12.469  0.0987  0.1182 -0.0365
13838W        W30685   3.765  14.061  16.316  0.1190  0.1003 -0.1432
13839W        W30686  16.353   7.656  11.982 -0.0386 -0.2288 -0.0453
13840W        W30687  12.824  12.859  15.062 -0.4276 -0.0710  0.1801
13841W        W30688  10.498  16.147   0.037 -0.3121  0.2874 -0.0467
13842W        W30689  13.663   4.458  13.549 -0.0807  0.0346  0.0343
13843W        W30690   9.628   8.411  15.785  0.0652  0.0664 -0.0429
13844W        W30691  10.042  13.216   2.284 -0.0993 -0.1676 -0.1959
13845W        W30692   1.418  11.633   4.230 -0.1314  0.0934  0.2283
13846W        W30693  11.469  17.871   1.610  0.0375  0.0171 -0.4330
13847W        W30694   7.867  13.397  15.871  0.1890 -0.3614  0.0067
13848W        W30695   6.792   3.467   2.630  0.1904 -0.0101  0.0423
13849W        W30696   0.998  15.476  14.463 -0.3756 -0.0664 -0.0331
13850W        W30697  12.226   1.374   4.401  0.0816 -0.0888 -0.0547
13851W        W30698   3.870   6.274  15.979  0.1654 -0.0905  0.1105
13852W        W30699  15.582   9.499  14.121 -0.1015  0.1348  0.0581
13853W        W30700   5.600   0.194  16.151 -0.1555  0.0747  0.2180
13854W        W30701  15.576  11.411  15.817 -0.2209 -0.1192 -0.0803
13855W        W30702   7.557  12.740  15.340 -0.1599  0.1935  0.1649
13856W        W30703   6.746   3.532  14.242  0.1150  0.0797 -0.0694
13857W        W30704   5.541   2.961  11.448 -0.2097 -0.2748  0.0133
13858W        W30705   2.487  13.905   2.391 -0.2692 -0.1779 -0.2672
13859W        W30706  15.000  12.049  13.145  0.1906 -0.1843 -0.1961
13860W        W30707   1.601   0.568  12.913 -0.0933 -0.0332 -0.1211
13861W        W30708   2.622   8.554  16.605  0.1960  0.0025  0.3876
13862W        W30709   6.577  12.665  12.824  0.2008  0.0017 -0.2517
13863W        W30710  13.892   3.173   4.622 -0.3799  0.2569  0.0210
13864W        W30711  12.839   1.642   2.135 -0.0234  0.0838  0.2587
13865W        W30712   1.017   6.153   1.958 -0.4749  0.2708 -0.1660
13866W        W30713   9.487   0.211   4.859 -0.0776 -0.1785 -0.2681
13867W        W30714   1.376  10.262  13.001  0.0850  0.1179 -0.1336
13868W        W30715   9.008   9.947  14.440  0.2655 -0.1155  0.3987
13869W        W30716  17.577  11.895  16.221 -0.0160  0.0680 -0.0411
13870W        W30717   1.703  17.223  13.781 -0.0120 -0.1149 -0.0643
13871W        W30718   1.954  15.097  13.961 -0.4654 -0.3144 -0.1715
13872W        W30719   6.484  10.539   5.820  0.2133  0.1098 -0.0335
13873W        W30720   4.705  17.246  13.677  0.1905  0.4130 -0.2194
13874W        W30721  15.393   8.792   1.191  0.2503  0.1338 -0.1210
13875W        W30722   2.994  14.304   0.843 -0.0757 -0.3448 -0.1337
13876W        W30723  17.932  11.045   1.762  0.4191 -0.0894 -0.0866
13877W        W30724  16.798   5.165   3.770  0.0500 -0.2393  0.4519
13878W        W30725  16.361   2.731  12.722 -0.2993  0.0465  0.4219
13879W        W30726   8.025  12.668  11.498  0.0989  0.1340 -0.1980
13880W        W30727   0.610   9.270  11.717  0.0872 -0.3213  0.0105
13881W        W30728   1.048   5.822   0.260  0.2680 -0.1537 -0.3247
13882W        W30729   3.076   3.369   5.265  0.0736 -0.0327 -0.1420
13883W        W30730  16.253   0.750  11.963  0.1210  0.0087  0.3561
13884W        W30731   0.620   9.810  15.948 -0.1523 -0.0417 -0.0372
13885W        W30732  10.055   5.347  13.571  0.0231 -0.0673  0.0675
13886W        W30733  11.142   9.370  16.397  0.1416 -0.0444  0.0270
13887W        W30734  15.280  13.072   3.904 -0.0452 -0.1659  0.0844
13888W        W30735   7.437  14.491   2.220  0.2222  0.1286 -0.2899
13889W        W30736   0.063   8.199   0.555 -0.2394  0.1099  0.0374
13890W        W30737  13.231  12.347  12.449 -0.0666 -0.2770  0.1029
13891W        W30738   2.999  12.758  11.863  0.1674 -0.0539 -0.1397
13892W        W30739   2.250   5.196   0.373  0.1517  0.0687 -0.1433
13893W        W30740  10.157   3.836   2.483  0.1351  0.4515 -0.1894
13894W        W30741  12.231   1.478   3.565  0.0332 -0.0246 -0.0735
13895W        W30742  17.172  16.295  12.599 -0.1712 -0.1187 -0.1122
13896W        W30743  10.943  14.646  13.689  0.0851 -0.0790  0.2441
13897W        W30744  16.657   2.323   5.227 -0.2963 -0.0938 -0.0107
13898W        W30745  13.569   4.940  13.558  0.2917  0.1666 -0.0071
13899W        W30746  16.518  11.643  11.994  0.0941  0.0585  0.2248
13900W        W30747  16.421  10.726   4.697 -0.2522 -0.3646 -0.1227
13901W        W30748  17.665   3.957   4.093 -0.0844  0.0193 -0.2467
13902W        W30749   9.411   0.524   0.507  0.2586 -0.0161  0.1795
13903W        W30750   0.686  13.165   1.559 -0.0337 -0.1677  0.3253
13904W        W30751   8.458  10.766   5.223 -0.3940  0.0793 -0.0089
13905W        W30752   6.062  10.619  16.268 -0.3456  0.0040  0.0077
13906W        W30753  14.802  11.092   6.197 -0.0466  0.0079  0.1172
13907W        W30754  17.757   0.462  12.721  0.1879  0.2198 -0.0358
13908W        W30755  13.355   0.949   2.159 -0.2091  0.0156  0.0667
13909W        W30756  17.060  11.954   1.925  0.4277  0.1357 -0.0364
13910W        W30757  15.362   2.271   3.324 -0.0527  0.1168 -0.0587
13911W        W30758   6.160  17.068   0.250  0.3409 -0.0204  0.1289
13912W        W30759   3.003   5.627  14.931  0.0091 -0.0983 -0.0909
13913W        W30760  16.849   6.389  16.135  0.1656  0.1253 -0.0853
13914W        W30761   8.091  14.767   1.161 -0.0887  0.2149 -0.1117
13915W        W30762  12.939  13.061   0.364  0.0579  0.1037 -0.2702
13916W        W30763  13.449  13.478   2.071  0.0523  0.2423  0.2957
13917W        W30764   5.193  11.560   3.258  0.3935  0.0969  0.1347
13918W        W30765   6.703   7.590  13.011  0.2173 -0.0356 -0.0339
13919W        W30766   4.153  15.409   2.545 -0.1292 -0.0021 -0.1797
13920W        W30767  13.642   3.191   5.103  0.0976  0.0078 -0.1837
13921W        W30768  15.467  15.025   2.262 -0.0866 -0.1816 -0.1442
13922W        W30769  17.640   3.966  11.743 -0.1487  0.2255 -0.2216
13923W        W30770   0.724   8.593   1.033  0.0465  0.2803  0.0743
13924W        W30771  11.806  17.952   4.721 -0.0083  0.0370 -0.0304
13925W        W30772  13.432  10.039  14.286  0.1175  0.0392  0.1454
13926W        W30773   4.622  17.003   2.063 -0.2205  0.1768 -0.1124
13927W        W30774   7.778  16.359   0.921 -0.1964 -0.0865 -0.0931
13928W        W30775   7.179   0.289  14.837  0.1370  0.1825  0.3927
13929W        W30776  14.220   1.537   1.397  0.1404 -0.4134  0.1142
13930W        W30777  16.653   9.449  15.514  0.0559 -0.1292  0.0302
13931W        W30778   8.766   5.835   2.140  0.0803  0.1517  0.1645
13932W        W30779   1.426  11.660  12.786 -0.0177 -0.0501 -0.0364
13933W        W30780   0.336  12.255  15.483  0.0767 -0.0265 -0.2929
13934W        W30781  13.399   0.357  16.479  0.4437 -0.3272  0.3224
13935W        W30782   8.039   7.429   1.991  0.1581  0.2732 -0.1374
13936W        W30783  17.753  12.342   2.354 -0.1808  0.0031 -0.1340
13937W        W30784   7.209   9.173  12.061 -0.0473 -0.0079  0.0056
13938W        W30785   1.942   3.068   4.248 -0.0395  0.3351  0.0879
13939W        W30786   6.499  14.856   1.073 -0.2543 -0.2054  0.0885
13940W        W30787  15.693   9.798  12.128 -0.1663  0.3589  0.0859
13941W        W30788  10.655  12.260   0.914 -0.1788  0.0499  0.1659
13942W        W30789   4.699  16.792  12.220 -0.3011  0.0588  0.1954
13943W        W30790  17.910   0.726   1.239  0.0255  0.2067  0.2070
13944W        W30791   5.446   9.190   1.506 -0.2050  0.1847  0.3018
13945W        W30792   7.033   0.024   2.377 -0.0247 -0.0161  0.1827
13946W        W30793   8.954   5.019   1.559 -0.1404  0.1970 -0.3801
13947W        W30794   4.884   4.050  12.359 -0.1583 -0.1538 -0.1359
13948W        W30795  10.444  13.917  15.882 -0.0452  0.0080 -0.0055
13949W        W30796   1.875   3.014  13.219  0.1728  0.1939  0.1908
13950W        W30797  14.600   9.359  11.673 -0.3675  0.3698 -0.2778
13951W        W30798   6.183  12.202   5.536 -0.0853 -0.0284 -0.1401
13952W        W30799  11.569   2.892  13.618  0.4159 -0.1104 -0.3672
13953W        W30800  15.843   1.356  13.761  0.3327  0.1162  0.0443
13954W        W30801   5.564  12.802  12.594  0.1215  0.1231  0.1204
13955W        W30802   1.896   7.732   1.261  0.2411 -0.2551 -0.0059
13956W        W30803  12.957  10.642   4.330 -0.0107  0.0990 -0.0184
13957W        W30804   9.597   3.577   4.954 -0.1837  0.1991 -0.2707
13958W        W30805  13.354   2.343  12.672 -0.0706 -0.1006 -0.0864
13959W        W30806   9.312  15.616  12.729  0.0753  0.0250 -0.1924
13960W        W30807   4.944  13.985   1.114  0.0101 -0.2447 -0.3831
13961W        W30808  16.891   9.409   3.028  0.2081 -0.2135  0.0091
13962W        W30809  16.006   6.211   1.445  0.0385 -0.1766 -0.0221
13963W        W30810   2.053   1.488   1.278  0.0685 -0.1555  0.0408
13964W        W30811  14.341   6.608  13.839  0.0727  0.0908 -0.2081
13965W        W30812  12.861   1.069  12.674 -0.1378  0.2717 -0.3795
13966W        W30813  15.262   5.647   0.887 -0.2019  0.0106 -0.0474
13967W        W30814  17.444   9.741   3.605  0.0734  0.1056  0.4038
13968W        W30815  12.769   8.013   4.376  0.1117 -0.1383  0.3747
13969W        W30816   9.981   1.607  13.442  0.2603 -0.0667 -0.1062
13970W        W30817   0.858  13.582  14.218  0.1116  0.3383 -0.1229
13971W        W30818  17.685   0.244   2.142 -0.0817  0.0707  0.0139
13972W        W30819  13.953  16.713  16.688 -0.1787  0.0134 -0.0596
13973W        W30820  12.922  11.668   3.390  0.0215  0.0573 -0.0194
13974W        W30821  16.237   7.373   0.464 -0.1125 -0.0121  0.0605
13975W        W30822  13.614  17.374   6.258  0.2025  0.0642  0.0042
13976W        W30823   2.030   2.336   5.353 -0.0606 -0.1643  0.1891
13977W        W30824   5.464  14.377  16.016 -0.1724 -0.0480 -0.0131
13978W        W30825  15.294   8.701   0.277 -0.2184  0.0422  0.3117
13979W        W30826   7.427   2.792   4.862  0.2676  0.2705  0.0582
13980W        W30827  15.761  17.904   0.680  0.1703  0.1408  0.0355
13981W        W30828   0.964   5.002   1.458  0.0496  0.2367 -0.2151
13982W        W30829   6.795   7.582   1.239 -0.0732  0.0821 -0.2602
13983W        W30830  12.344  12.795   2.565  0.0311  0.0629 -0.0402
13984W        W30831   4.172   2.313   2.984  0.3119  0.0446 -0.1408
13985W        W30832   9.835  10.015  13.915  0.2335 -0.2147  0.0658
13986W        W30833   5.392  14.740  15.601 -0.0121  0.0055  0.2235
13987W        W30834   1.493   1.289   2.022 -0.1525 -0.0573 -0.1506
13988W        W30835   6.904  11.212   5.146 -0.0600  0.0096 -0.1693
13989W        W30836   3.490  12.486   4.494  0.0889 -0.1636 -0.2659
13990W        W30837   8.789  14.719  12.662 -0.0726  0.3660  0.0990
13991W        W30838  13.559   2.133  12.247 -0.1457  0.1626  0.1171
13992W        W30839  13.923   0.625  15.353 -0.1575 -0.0453 -0.4583
13993W        W30840  14.309   2.938  13.493  0.2262 -0.0104  0.1172
13994W        W30841  14.331  11.417   3.317 -0.1716  0.0092 -0.1198
13995W        W30842   5.444   0.608  16.458  0.3090  0.0315  0.1007
13996W        W30843   9.352   2.012   1.010 -0.0217 -0.1222 -0.2641
13997W        W30844   8.020  12.365   1.158  0.0166 -0.2025  0.0668
13998W        W30845   0.801   9.327   5.181 -0.0445 -0.0528  0.2052
13999W        W30846   1.246   0.175  11.799  0.2080 -0.0002  0.0258
14000W        W30847  11.740   0.133   3.015  0.2196  0.0010 -0.1603
14001W        W30848  14.360   0.000  15.484  0.3379 -0.1378  0.3111
14002W        W30849   6.468   6.210  14.704  0.0968 -0.0941 -0.0388
14003W        W30850   7.673  16.099   0.388 -0.2612 -0.1215 -0.1382
14004W        W30851   9.216   3.235   4.665 -0.1085  0.0202 -0.2869
14005W        W30852  13.643   3.668   1.436 -0.3081 -0.2277  0.3089
14006W        W30853   0.400  16.110   1.750 -0.1609  0.3237 -0.2133
14007W        W30854  17.866  10.066   4.215  0.2298  0.0356 -0.2684
14008W        W30855  12.002  11.970   5.710 -0.0490 -0.1704 -0.2887
14009W        W30856  17.030  15.442  15.360 -0.2618 -0.1992  0.2319
14010W        W30857  12.748  11.418   2.111 -0.1317  0.1638 -0.1022
14011W        W30858   0.887   8.336  13.481  0.0654 -0.0912 -0.0372
14012W        W30859  11.028  15.215  14.063  0.0394  0.0992  0.1294
14013W        W30860   3.546   6.350   5.416  0.0430  0.4978  0.1806
14014W        W30861   4.136  14.144   2.791  0.0810  0.2505  0.0132
14015W        W30862   7.423  10.376   4.115 -0.3491 -0.1729 -0.0837
14016W        W30863   6.062   2.668   5.583 -0.0825 -0.1528  0.0698
14017W        W30864   2.539   8.425  11.215  0.0476  0.0847 -0.2812
14018W        W30865  10.284   2.287   3.554  0.0465  0.0087  0.0571
14019W        W30866  12.370  14.053   3.016 -0.4470  0.0073  0.2469
14020W        W30867   0.416   4.313  13.790 -0.0960 -0.2250 -0.2476
14021W        W30868  13.706  14.766  16.180 -0.0913 -0.1534  0.0331
14022W        W30869  11.368  15.530  11.680 -0.0041  0.0854 -0.4203
14023W        W30870   8.366  12.693   4.054  0.1590  0.1060 -0.2919
14024W        W30871   9.881  17.842   4.990 -0.1339 -0.3031 -0.1883
14025W        W30872   5.616  15.781  12.149  0.0407 -0.0529  0.1822
14026W        W30873  16.771  16.976   3.289 -0.2091 -0.0446  0.0697
14027W        W30874   7.029  11.645  14.775  0.2567 -0.0029  0.3027
14028W        W30875  12.825  16.813  12.359  0.2475 -0.0589 -0.1630
14029W        W30876   0.555  15.252   2.865 -0.0098  0.3020  0.3742
14030W        W30877   2.135   8.633   2.704  0.1172 -0.0249  0.0027
14031W        W30878   9.303  14.777   3.783 -0.1618  0.4148  0.3627
14032W        W30879   1.680  14.111  15.547  0.0776  0.1546 -0.1666
14033W        W30880   0.812  10.655   0.434 -0.1927 -0.1987 -0.1853
14034W        W30881  16.255   3.636   2.104 -0.1554  0.0880  0.0127
14035W        W30882   2.295   1.862   4.029  0.2780  0.0538  0.1099
14036W        W30883  11.723   4.735  15.443  0.2283  0.2738  0.0494
14037W        W30884   4.577   6.855   0.270  0.0190 -0.0932 -0.0221
14038W        W30885   4.335  12.416  16.330 -0.0625 -0.0385  0.0035
14039W        W30886   6.499   0.830  13.705 -0.1331 -0.1870 -0.0520
14040W        W30887  11.095  16.165  15.470  0.1625 -0.1664 -0.0822
14041W        W30888   2.666  14.022  13.444 -0.1401 -0.0721  0.1348
14042W        W30889  10.279  11.061   0.936  0.2617  0.3681 -0.3245
14043W        W30890   2.415   2.948   5.818  0.1346 -0.1710 -0.0545
14044W        W30891  16.741   4.563  12.443 -0.0183 -0.0659  0.2490
14045W        W30892   9.398   3.303  12.415  0.1297 -0.0554  0.3627
14046W        W30893   0.588  12.103   1.156 -0.1560 -0.3925 -0.0936
14047W        W30894  12.310   6.923   1.741 -0.0777  0.1210  0.0447
14048W        W30895   4.456  13.161   0.153  0.1134  0.0425  0.1493
14049W        W30896   6.626  15.133   3.123 -0.0291  0.1821 -0.0164
14050W        W30897   7.377  10.209   2.956 -0.2126 -0.1956 -0.0278
14051W        W30898  12.441   7.878   2.207 -0.0023 -0.0183 -0.0429
14052W        W30899   7.114   4.559   2.241  0.1619  0.0865 -0.0136
14053W        W30900  11.993   6.681   3.557 -0.1003 -0.1448  0.0646
14054W        W30901   0.821   3.795  16.210  0.0043 -0.0317 -0.1764
14055W        W30902  16.456  15.627   4.753  0.1783 -0.0185 -0.0004
14056W        W30903   3.973  17.178   5.198  0.1066  0.1224  0.3179
14057W        W30904  17.847   2.246  11.630  0.1209 -0.1898  0.0103
14058W        W30905   1.958   8.790   2.225 -0.0687 -0.2634  0.1592
14059W        W30906   6.513  11.743  13.655 -0.2079 -0.0744 -0.2780
14060W        W30907   6.505  14.265   2.951  0.0596  0.2752  0.1965
14061W        W30908  17.693   0.604  11.821 -0.2006  0.2707 -0.0373
14062W        W30909  16.598   1.314  14.064 -0.1370  0.0071 -0.1493
14063W        W30910  10.172  15.980  14.730 -0.1006 -0.3326 -0.0147
14064W        W30911   2.402   4.833   3.109 -0.1347  0.0623 -0.0307
14065W        W30912   8.740  14.210  14.146  0.0021 -0.2477  0.0587
14066W        W30913   7.641   9.168   0.894  0.0752  0.0581 -0.0547
14067W        W30914   4.279   9.035  12.255  0.0496 -0.2634 -0.3480
14068W        W30915   8.949  13.242  15.427  0.0627 -0.1164 -0.1517
14069W        W30916   4.752   3.763  15.187  0.1426  0.0552 -0.0479
14070W        W30917  12.929  15.094   0.015  0.0330  0.0018 -0.0772
14071W        W30918   1.292   3.047   1.750  0.1641 -0.0245  0.0957
14072W        W30919   4.293  16.668  11.887  0.2275  0.1432  0.2355
14073W        W30920  14.969   6.571  15.072 -0.1219  0.0667  0.2174
14074W        W30921   3.140  14.253   3.563  0.0579 -0.2719 -0.0412
14075W        W30922  16.397   2.383   4.391  0.2384 -0.1209  0.1440
14076W        W30923   6.694   9.973   4.595 -0.0800 -0.0382 -0.1053
14077W        W30924  16.231   1.890   5.989  0.0396 -0.0773  0.1150
14078W        W30925  12.642  15.925   2.311  0.1022  0.3097 -0.0844
14079W        W30926   1.454   3.780   4.319 -0.2731 -0.2947 -0.2859
14080W        W30927  16.180   5.355  15.304 -0.1431 -0.0564 -0.0632
14081W        W30928   6.285   5.027   0.730 -0.0831  0.3193  0.4607
14082W        W30929  14.052  11.497  14.489 -0.0102 -0.2167 -0.1492
14083W        W30930  17.516   1.158  12.985  0.3911 -0.0573  0.2430
14084W        W30931   3.376   9.959   3.629 -0.0767  0.1071  0.1274
14085W        W30932   5.360  17.941  15.516  0.1172  0.2315  0.1800
14086W        W30933  10.714   7.755   4.024  0.1921 -0.2652  0.2854
14087W        W30934  11.027  10.864  11.821  0.1356 -0.0628 -0.0020
14088W        W30935  10.242  12.534  14.834  0.1944  0.1011 -0.0282
14089W        W30936   3.529  13.037   5.377 -0.0423 -0.0496  0.0173
14090W        W30937   6.447  15.162   1.604 -0.3283  0.1574  0.0066
14091W        W30938  11.623   4.747   0.147 -0.3863  0.0839 -0.3416
14092W        W30939  11.104   3.438   4.367 -0.1235  0.3492 -0.0466
14093W        W30940  16.430   8.953  16.244  0.3566  0.0054  0.0263
14094W        W30941   5.829   9.186   4.484 -0.1091  0.0287 -0.1955
14095W        W30942   2.547   0.642  15.430 -0.2759  0.1008 -0.1437
14096W        W30943   6.084   6.327  12.570 -0.2206 -0.0285  0.0260
14097W        W30944  14.803  11.983  12.243 -0.1747 -0.1529 -0.1418
14098W        W30945   9.352   6.804  14.519 -0.0792  0.0187  0.0515
14099W        W30946   3.579   3.293   1.995  0.0220 -0.0658 -0.0794
14100W        W30947   5.920   2.174  11.887  0.2002  0.0834 -0.1301
14101W        W30948   4.709   0.737  14.688  0.2310 -0.1103  0.1183
14102W        W30949   1.268   6.632   1.989  0.2274  0.2922  0.3584
14103W        W30950   9.305   2.490   4.323 -0.2083 -0.2652 -0.1441
14104W        W30951  15.766  12.081  12.084 -0.0618 -0.0899 -0.2504
14105W        W30952  15.593  12.028   0.621  0.1686  0.4957  0.1196
14106W        W30953  10.210  14.008   5.561 -0.1062  0.0080  0.1239
14107W        W30954   6.837  16.698   2.214  0.0330  0.0001 -0.0447
14108W        W30955  15.525  12.035  13.929  0.0599 -0.1918 -0.0377
14109W        W30956  11.335   5.568   5.383 -0.0808 -0.3006  0.0096
14110W        W30957   6.259   2.247  11.466  0.0310  0.0326  0.2266
14111W        W30958   4.385  10.714  12.991  0.3928 -0.0972  0.2854
14112W        W30959   0.734   0.318  11.963  0.4310  0.0483 -0.1227
14113W        W30960   0.906   6.734   2.361 -0.2678  0.0283  0.2136
14114W        W30961  10.419   0.059  14.361 -0.1579  0.1981  0.3597
14115W        W30962   8.890   9.474   6.068 -0.0065 -0.1937  0.1377
14116W        W30963  12.901   8.036  15.976  0.2779  0.0474  0.1774
14117W        W30964   5.549   6.840  16.778 -0.0536  0.2724  0.2066
14118W        W30965  15.588  13.525   6.390  0.0043 -0.1062  0.1070
14119W        W30966   7.326  11.832  13.888  0.1225  0.0504 -0.1891
14120W        W30967   2.158   2.891  15.693 -0.1081  0.0084  0.0897
14121W        W30968   4.081  17.766   2.503 -0.1199  0.2989 -0.0102
14122W        W30969  15.444   7.500   2.810 -0.0982 -0.4901 -0.1167
14123W        W30970   2.119  14.924  16.719  0.0059  0.0352  0.1888
14124W        W30971  17.618   7.999  12.337 -0.2038  0.0589  0.1490
14125W        W30972   8.396   3.647  13.208  0.1812 -0.0114  0.0304
14126W        W30973   1.905   7.689   3.025 -0.2397  0.0969  0.0049
14127W        W30974   3.606  11.411   2.600 -0.1462 -0.1860 -0.1464
14128W        W30975  13.541   3.617   4.398 -0.0990 -0.1158  0.1263
14129W        W30976   9.771  15.218  15.311  0.0519 -0.0197 -0.1104
14130W        W30977   1.635  11.103   0.659  0.0218 -0.1777  0.0102
14131W        W30978   9.405  11.495  12.688 -0.1608 -0.0976 -0.0103
14132W        W30979  11.567   9.806   0.467  0.3177  0.3041  0.1202
14133W        W30980  17.413  13.019   1.304 -0.1079 -0.2925 -0.0600
14134W        W30981   1.056   7.426  12.449 -0.2962 -0.2302 -0.2806
14135W        W30982  15.593   6.863  13.093 -0.0357 -0.0360 -0.3171
14136W        W30983   6.356   4.343  12.655 -0.0637  0.1331 -0.2010
14137W        W30984   3.420  14.401   5.662  0.1887  0.1287 -0.0660
14138W        W30985   0.162   3.592  13.350  0.0809  0.0417 -0.0386
14139W        W30986   1.328   9.532   0.615  0.0441  0.0866  0.1842
14140W        W30987  10.388   1.220  13.484 -0.2951  0.1068  0.1788
14141W        W30988   0.497  11.780   2.667 -0.2173 -0.1348 -0.0408
14142W        W30989   1.378   9.921   0.263 -0.2885 -0.0815  0.0790
14143W        W30990   9.376   9.167   2.036  0.0812  0.0084 -0.0058
14144W        W30991   8.936  10.867  16.550 -0.0603 -0.2033 -0.1908
14145W        W30992   8.415  13.712  15.807  0.3296  0.0304 -0.0821
14146W        W30993  16.620   0.158   0.985  0.0473  0.1823  0.4163
14147W        W30994   1.250   1.349   4.866 -0.0546 -0.2018  0.0266
14148W        W30995   7.889  17.724   5.392  0.1591 -0.0977  0.1578
14149W        W30996   9.711   4.844   0.187 -0.0820 -0.0182 -0.0916
14150W        W30997  12.874  14.945   0.932  0.1198  0.0622  0.1864
14151W        W30998   0.486  17.467  15.994  0.0922 -0.3016  0.0516
14152W        W30999  12.393   8.832   0.446  0.0207 -0.1952  0.2073
14153W        W31000   9.166  17.209   5.142 -0.2217 -0.1379 -0.0086
14154W        W31001  12.367  17.722   2.661  0.0245 -0.5464  0.1574
14155W        W31002  14.405   0.981  16.704  0.2813  0.3127 -0.1828
14156W        W31003  11.915   2.387  15.756  0.1168 -0.2233  0.0585
14157W        W31004   4.719   7.474  15.722  0.2005  0.0011 -0.1236
14158W        W31005   2.200   7.998  15.803 -0.0077 -0.1123  0.0919
14159W        W31006  10.882  13.113  16.447  0.1126 -0.1303  0.1536
14160W        W31007   8.887  15.868  15.215 -0.2302 -0.1487  0.0266
14161W        W31008   3.246  12.367  12.589 -0.3130  0.1905 -0.1874
14162W        W31009  15.899  10.605   5.042  0.0268 -0.2698 -0.2902
14163W        W31010   8.871  16.525  13.006  0.1531  0.0007  0.0671
14164W        W31011   8.143   3.415   3.265 -0.2923 -0.1404 -0.2981
14165W        W31012   7.717   2.077  13.990  0.2231 -0.0670  0.4657
14166W        W31013  13.714  13.931  14.848 -0.0642  0.3304  0.2538
14167W        W31014   5.828  15.666   1.369  0.1428  0.2414  0.2120
14168W        W31015  17.898  16.653  14.021 -0.0485  0.5717  0.1529
14169W        W31016   1.099   4.514   3.710  0.1341  0.0578  0.2683
14170W        W31017   8.127   8.071   3.074 -0.1424  0.2291  0.0953
14171W        W31018   1.613   8.685  12.781 -0.0135  0.0891 -0.0589
14172W        W31019   2.907  10.204   3.662  0.0996 -0.1238  0.0264
14173W        W31020  15.751  17.775   5.212 -0.1660  0.0167  0.0108
14174W        W31021  10.559   1.115   2.442  0.2884  0.2657  0.0081
14175W        W31022  13.136   8.537   1.496 -0.2229  0.2643  0.0389
14176W        W31023   3.194  11.331   2.802 -0.0151 -0.0885  0.0696
14177W        W31024   1.650   7.800   3.492 -0.3242 -0.0738 -0.3016
14178W        W31025   9.372  16.210   3.974  0.2836 -0.1815 -0.1771
14179W        W31026   1.914  11.158   3.569  0.1180  0.1021 -0.1908
14180W        W31027  11.592   6.118   2.301  0.0059  0.0617  0.4603
14181W        W31028   6.795  11.529  12.185 -0.1474  0.1330 -0.0596
14182W        W31029   1.549  12.695   1.489  0.0770  0.0806 -0.3991
14183W        W31030  11.326   6.129  11.810 -0.2016  0.1189  0.0769
14184W        W31031   0.469   8.286   4.109  0.1763  0.0106  0.1528
14185W        W31032   4.554   1.567  12.215 -0.1145  0.0016  0.0213
14186W        W31033   4.523   7.325   5.631  0.3138 -0.1957  0.1321
14187W        W31034  15.858  14.467  16.505 -0.0131  0.0312 -0.1959
14188W        W31035  15.657  15.220  13.054  0.3671 -0.1285 -0.0492
14189W        W31036  15.988  11.068   4.754  0.1049  0.2713  0.0313
14190W        W31037  12.895   7.602   1.438 -0.0898  0.5012  0.1164
14191W        W31038   1.402   3.053   4.110  0.1463  0.1403  0.0355
14192W        W31039  14.258   0.629   4.810  0.0433  0.0886  0.2199
14193W        W31040  16.574   0.151   3.673  0.3086  0.5007  0.0463
14194W        W31041  14.770   8.894  11.650  0.0688 -0.0370  0.1633
14195W        W31042   2.292   5.743  12.290  0.0122  0.0952 -0.2888
14196W        W31043   7.624   1.729  13.587  0.3292  0.2217  0.2011
14197W        W31044  14.203  13.200  11.654 -0.1274  0.1581 -0.2742
14198W        W31045  11.585   0.055   3.960  0.2786 -0.4328  0.3246
14199W        W31046   2.224   1.581   2.217  0.0398 -0.0958  0.2324
14200W        W31047   2.664  15.983  12.847 -0.2651  0.0375  0.4233
14201W        W31048  11.344  12.045   2.988 -0.0429 -0.1739  0.2518
14202W        W31049   8.722  14.941   5.238 -0.2273 -0.2491 -0.2611
14203W        W31050   3.256  16.383   3.806  0.1855 -0.0994 -0.1894
14204W        W31051  13.212  10.669  13.452 -0.0159 -0.2487  0.0564
14205W        W31052  10.725  15.735   4.988 -0.1058  0.1236 -0.0518
14206W        W31053   8.470   8.061   5.068 -0.1298  0.0791 -0.0220
14207W        W31054  10.647   4.430  12.245  0.1873 -0.1273 -0.0273
14208W        W31055   6.887  16.680  16.162  0.0837 -0.0657 -0.0922
14209W        W31056   2.230  15.040   1.761  0.0579 -0.1409  0.0693
14210W        W31057   0.483  15.333  16.032 -0.1861  0.0044  0.1331
14211W        W31058   6.381  14.459  13.052 -0.0059 -0.1319  0.1032
14212W        W31059  16.102   2.255   1.811  0.2012 -0.2276  0.2290
14213W        W31060  14.840  15.361  12.760 -0.0082 -0.1446 -0.0729
14214W        W31061   1.182   3.975  12.559  0.1717  0.0190 -0.1328
14215W        W31062  11.167   2.770   0.237 -0.0410 -0.0318 -0.0706
14216W        W31063   4.756   2.815  16.155  0.0912 -0.1113  0.1918
14217W        W31064   0.693  14.896  12.311 -0.1131  0.0824  0.1418
14218W        W31065   1.458  11.085   4.361 -0.0856 -0.0699 -0.1624
14219W        W31066  14.307  10.466   3.774 -0.0283  0.1535 -0.2497
14220W        W31067   6.151   3.950  12.958  0.0832  0.0178  0.3080
14221W        W31068  13.808   5.305   5.409  0.0013 -0.0115  0.1074
14222W        W31069   2.052   6.925   1.612  0.2557  0.2033 -0.0590
14223W        W31070  13.521   6.802   0.053 -0.1886 -0.1730  0.0421
14224W        W31071   2.522   2.905  13.908 -0.0336 -0.0360  0.0435
14225W        W31072  14.024   9.417   1.573 -0.1284  0.1566  0.0782
14226W        W31073  16.914   2.851  16.789  0.2877 -0.0417 -0.3547
14227W        W31074  15.915  13.735   2.304 -0.3471 -0.0711 -0.1439
14228W        W31075   9.584   1.815   3.795  0.1277 -0.1145  0.1756
14229W        W31076   3.649   6.538   4.742 -0.2625  0.0340 -0.2430
14230W        W31077   9.261   1.064  11.993 -0.2695  0.0215 -0.0974
14231W        W31078  11.686  11.336  15.922  0.2256 -0.2879  0.0490
14232W        W31079   4.720  17.311  13.144  0.1081  0.0954 -0.1313
14233W        W31080   8.509   8.960   4.795  0.1202 -0.3574  0.2456
14234W        W31081   0.041   6.417  16.730  0.3202 -0.0038 -0.1609
14235W        W31082  13.933   4.353   1.436  0.1960  0.1416 -0.3099
14236W        W31083  11.715   0.484  15.622 -0.0627  0.0688  0.0772
14237W        W31084   7.915  16.151  14.006 -0.0276 -0.0543 -0.3192
14238W        W31085  17.312   9.957  12.482  0.1894  0.2555  0.0584
14239W        W31086  15.145   6.137   1.689  0.2557 -0.1477  0.0709
14240W        W31087   4.501  13.144  15.935 -0.3252  0.0603  0.0680
14241W        W31088  12.191   4.262  11.015 -0.1696 -0.0460 -0.0926
14242W        W31089   6.518   0.279   1.000 -0.1519  0.0374  0.0936
14243W        W31090  12.509   5.574  12.530  0.0401 -0.1574 -0.2123
14244W        W31091  14.199  16.179   3.827  0.0164  0.4165 -0.0526
14245W        W31092  11.966  12.694   0.457 -0.0116 -0.3299  0.2367
14246W        W31093   9.455   7.972  13.172  0.1405 -0.1515 -0.0843
14247W        W31094   6.752  14.347   6.486  0.0355  0.2649  0.1156
14248W        W31095  12.579   6.577   3.624 -0.1717  0.1334  0.1887
14249W        W31096   1.530   7.177  16.621 -0.0952 -0.0312  0.1905
14250W        W31097   8.660   1.950   3.519  0.1819 -0.2473  0.1643
14251W        W31098   2.387   9.690  16.084 -0.4471 -0.0913 -0.0317
14252W        W31099   4.935  13.378   2.034  0.2204  0.2493  0.2913
14253W        W31100   3.131  17.124   0.004 -0.1781  0.2045 -0.1918
14254W        W31101  15.016  11.883  16.769 -0.0303 -0.0747 -0.0114
14255W        W31102  17.696   2.055  14.050  0.0062  0.1837  0.2871
14256W        W31103  13.407  14.114  14.428  0.0445  0.1940  0.0264
14257W        W31104   1.911  12.982   1.262  0.2996 -0.0629  0.0912
14258W        W31105   1.622  11.954  11.516 -0.2620 -0.2291  0.1449
14259W        W31106  17.585   3.473   3.178 -0.1970  0.0641 -0.2347
14260W        W31107   7.571   1.960   1.933  0.1625 -0.2087 -0.1392
14261W        W31108   3.939   0.611  12.242  0.0678 -0.0605  0.1919
14262W        W31109  16.801  10.321  14.907 -0.1589 -0.0086  0.0467
14263W        W31110   0.230   6.431  12.977 -0.1905 -0.0536 -0.0052
14264W        W31111   4.703  11.629  16.200  0.4448 -0.1286  0.1616
14265W        W31112   5.203   9.337   0.115  0.1231  0.0317  0.0827
14266W        W31113  11.263  12.209  14.428 -0.0554 -0.0496 -0.0105
14267W        W31114  16.928   6.761  11.197  0.1910 -0.1836  0.0505
14268W        W31115  13.357   3.236  14.021 -0.2051  0.1294  0.1645
14269W        W31116  12.159  10.709  15.254 -0.0644  0.2130  0.2840
14270W        W31117  14.324   3.396   0.833 -0.1965 -0.1144  0.2983
14271W        W31118  11.105   5.141   3.412 -0.0992 -0.0301 -0.0733
14272W        W31119   5.055  16.821   2.623 -0.3635 -0.0056  0.0859
14273W        W31120   5.453   6.156   1.824 -0.2194  0.0004  0.3446
14274W        W31121  15.713   0.163   0.152  0.0602 -0.0732 -0.0424
14275W        W31122   1.172   2.032  13.941  0.0513 -0.1865  0.3853
14276W        W31123   1.818   6.655   2.828 -0.0753 -0.0416 -0.0435
14277W        W31124   6.506  14.237   6.016 -0.1790  0.1840 -0.0116
14278W        W31125   5.446   9.400   2.013 -0.1059  0.1744 -0.0856
14279W        W31126   8.862   2.295   4.546  0.1217 -0.0233  0.1773
14280W        W31127   0.924   8.253   2.451  0.0808 -0.3624  0.1129
14281W        W31128  17.038  14.337   1.575 -0.0933  0.1555  0.0649
14282W        W31129   6.689   1.945   1.684  0.0207  0.1854  0.0960
14283W        W31130   5.393   4.730   5.595 -0.2364  0.3786 -0.2680
14284W        W31131   7.877   8.598   3.279 -0.2631 -0.3681  0.2551
14285W        W31132   4.244   5.884   2.409 -0.1446  0.2513  0.0150
14286W        W31133   2.354   9.287  12.667 -0.0259  0.2656  0.0875
14287W        W31134   2.358  10.180  16.118 -0.1469 -0.1938  0.4224
14288W        W31135   0.117   0.295  11.900  0.2079 -0.1503  0.1281
14289W        W31136  11.167   3.303  16.602  0.0637 -0.0088 -0.5323
14290W        W31137  11.858   8.885   0.554  0.0442 -0.1556  0.0147
14291W        W31138  15.480   3.200   3.326  0.4067 -0.0763 -0.0682
14292W        W31139   8.219   1.160  12.214  0.2024 -0.2008  0.1029
14293W        W31140   9.969   2.695  16.497 -0.1608  0.1134 -0.0158
14294W        W31141   2.661   3.158  14.849  0.0042  0.2941  0.1880
14295W        W31142   3.023   5.968  16.502  0.1032 -0.0958  0.0374
14296W        W31143   5.527  14.242   2.832  0.1509  0.0602  0.0669
14297W        W31144   7.052   2.633   3.291 -0.1959  0.1317  0.0685
14298W        W31145   9.808   6.207   4.380  0.2359 -0.1836 -0.1981
14299W        W31146   5.771   1.798   4.275 -0.1284 -0.2149 -0.4061
14300W        W31147  13.675   9.699   5.671 -0.0910  0.0237  0.2697
14301W        W31148   9.194  14.026   2.554  0.0273 -0.0068 -0.1806
14302W        W31149   6.612   7.067  12.947 -0.1999  0.0491  0.1547
14303W        W31150   9.832   5.043   2.051  0.2653  0.0239 -0.0448
14304W        W31151   0.775   1.811   5.423 -0.1827  0.2572  0.1018
14305W        W31152   7.088  16.140   4.057  0.0051 -0.0521  0.3669
14306W        W31153  11.329  10.530  15.546 -0.0067 -0.1340 -0.1196
14307W        W31154  16.354  12.149  15.557  0.0015 -0.0165 -0.1930
14308W        W31155  12.597   5.260  15.188  0.1878  0.3723  0.0477
14309W        W31156   7.003   5.439   1.370 -0.1672 -0.1890  0.0815
14310W        W31157  15.681   1.098   0.097 -0.0921  0.0544  0.1642
14311W        W31158   9.054  16.503   0.639  0.2960  0.1882 -0.2442
14312W        W31159  16.723   5.411   1.118  0.1418  0.4040  0.1147
14313W        W31160   6.755  16.204   2.248 -0.0368 -0.0854  0.1399
14314W        W31161   2.209  17.079  15.245 -0.0835  0.0199 -0.2455
14315W        W31162   5.191  13.072   4.255  0.0083  0.0663 -0.2496
14316W        W31163   2.750   7.128   2.730 -0.1393 -0.1957 -0.0371
14317W        W31164   2.325   8.131   0.123  0.2849  0.0463  0.0752
14318W        W31165   2.693   2.282   4.106  0.0060  0.0077  0.0393
14319W        W31166  15.237   4.771  13.179 -0.0123 -0.1208 -0.0724
14320W        W31167   4.154   5.971   4.063  0.0749 -0.5895 -0.4424
14321W        W31168   3.124   5.339  12.955  0.0428  0.0115 -0.0953
14322W        W31169  14.840   3.193   0.762 -0.0912 -0.1289 -0.0130
14323W        W31170  15.309  13.796   1.925  0.3428  0.0026 -0.2380
14324W        W31171  15.045   4.257  16.519 -0.0938  0.2472  0.1275
14325W        W31172  14.598   7.510  14.052  0.0715 -0.1098  0.0394
14326W        W31173  17.212   3.102   1.439  0.0637 -0.0337 -0.0953
14327W        W31174   7.485   8.299   0.517 -0.2731 -0.1981  0.0458
14328W        W31175   0.962   6.386   5.060  0.1828 -0.1115 -0.1175
14329W        W31176  15.456  11.087   2.758  0.0420  0.2039  0.2994
14330W        W31177   3.972  10.312  14.714  0.0484  0.1521  0.0261
14331W        W31178   9.548  10.601   1.140  0.2737  0.0629 -0.1148
14332W        W31179  17.502  10.349   1.865 -0.2127 -0.1546 -0.0565
14333W        W31180   3.221   7.159   3.132 -0.3430 -0.3041 -0.2670
14334W        W31181   5.927   8.541  15.872 -0.3939 -0.3990 -0.0662
14335W        W31182   8.134   7.566   4.765 -0.2203 -0.2761 -0.1659
14336W        W31183  17.085   2.259  15.130 -0.0411 -0.0512 -0.1266
14337W        W31184   9.158   5.325  12.130 -0.0446 -0.2581  0.4032
14338W        W31185  10.404   9.367  13.733  0.0591 -0.2903 -0.3142
14339W        W31186  17.521  16.194  16.420  0.0668  0.0966 -0.1361
14340W        W31187  16.388   7.226  11.687 -0.0224  0.0268  0.1724
14341W        W31188   7.906   9.090  14.456 -0.2186 -0.0103 -0.0619
14342W        W31189  13.797  17.421  11.866  0.1048 -0.0571  0.1042
14343W        W31190  10.382   5.109  13.256 -0.4159  0.0245 -0.0422
14344W        W31191   3.836   5.633   2.345 -0.2951 -0.0780 -0.1644
14345W        W31192  10.566  10.935   0.539 -0.0526  0.0229  0.3487
14346W        W31193  11.816   2.237   4.618  0.2653 -0.0525  0.1694
14347W        W31194   1.958  10.645  13.595 -0.0985 -0.4589  0.0716
14348W        W31195   4.328  11.138   4.186  0.0450  0.0161 -0.0444
14349W        W31196   0.591   3.980  13.035 -0.1242 -0.2439  0.4159
14350W        W31197   3.407  12.876  12.602 -0.2410  0.0376  0.4405
14351W        W31198  11.877   9.739   6.301  0.2856 -0.1160 -0.0469
14352W        W31199   1.703   5.315  16.557  0.3311  0.0869  0.2514
14353W        W31200   4.883   7.978  13.092  0.0815  0.3243 -0.2891
14354W        W31201   2.109  13.533  14.390  0.0661 -0.2508 -0.0174
14355W        W31202  14.858   7.025  12.358 -0.0003 -0.0915 -0.1825
14356W        W31203   7.156   0.594   2.391 -0.1324 -0.1317  0.3291
14357W        W31204  15.250  10.127  14.712  0.1767 -0.2116 -0.2060
14358W        W31205   0.064   1.211  12.933  0.1728  0.2784  0.4449
14359W        W31206   7.031  14.060   5.691  0.0511  0.4684 -0.3206
14360W        W31207  14.248  13.729  14.973 -0.1527 -0.0555 -0.1779
14361W        W31208  14.429  17.434  15.547  0.2266 -0.1336 -0.2070
14362W        W31209  17.731   1.088  12.095  0.1236 -0.1280 -0.0344
14363W        W31210   6.424   6.110   3.066 -0.1444  0.0414 -0.1534
14364W        W31211   1.554   3.282   3.394  0.0067 -0.0808 -0.2343
14365W        W31212   2.310   7.096  15.522 -0.2626 -0.0677  0.0645
14366W        W31213  12.598  10.442   3.161 -0.1376  0.1581 -0.1646
14367W        W31214   5.473  14.032  15.492  0.0254  0.0312 -0.1805
14368W        W31215   1.527   8.987  16.465  0.0077  0.0003 -0.0207
14369W        W31216  16.146   0.005  14.686 -0.1183 -0.0142 -0.1881
14370W        W31217   3.125   0.419  11.865 -0.2175  0.2960 -0.1052
14371W        W31218   5.032   9.424   4.886 -0.2315  0.1175 -0.0306
14372W        W31219  11.445  12.354   5.366 -0.1439 -0.2455  0.0755
14373W        W31220  15.253  13.183  14.039 -0.2039  0.0665 -0.2020
14374W        W31221  13.287   7.963  13.933  0.1488 -0.0767  0.2335
14375W        W31222   6.645  16.708  14.520 -0.0339 -0.1483 -0.0711
14376W        W31223   4.654  16.318   0.844 -0.2265 -0.0228  0.0300
14377W        W31224  13.857   0.157  15.713 -0.0763  0.1353  0.0396
14378W        W31225   5.141   4.754   3.177  0.1294 -0.1573 -0.2092
14379W        W31226   9.642   9.870   0.475 -0.3016  0.4256 -0.0888
14380W        W31227  14.083  10.839  12.157 -0.2740 -0.0224  0.3193
14381W        W31228   7.046   5.022   2.664 -0.1065  0.1205 -0.0440
14382W        W31229  15.687   3.609   4.795  0.1999 -0.4345  0.1466
14383W        W31230   0.423  13.808  11.730  0.2416 -0.2098  0.3094
14384W        W31231   2.539  15.897   5.657  0.2643 -0.1567 -0.3346
14385W        W31232   9.068  15.219   3.931  0.1104  0.2229 -0.0034
14386W        W31233  16.224   4.371  12.076 -0.2982  0.1259 -0.1979
14387W        W31234  15.959   2.138   2.292 -0.3093  0.3662 -0.0512
14388W        W31235  10.712  16.662   3.188  0.1921 -0.1144  0.0028
14389W        W31236  16.592  12.392   0.805  0.0361  0.2236  0.1369
14390W        W31237   9.686  13.179  14.791 -0.2214  0.1549  0.0755
14391W        W31238  12.854   3.664  12.135 -0.1437 -0.0994  0.0059
14392W        W31239   0.378  11.245   5.770 -0.2409  0.0025 -0.2550
14393W        W31240   8.418   5.442   2.186  0.0807  0.0595 -0.1774
14394W        W31241   0.940  11.297  14.021  0.0403 -0.1167  0.0706
14395W        W31242  17.368   1.693   3.476 -0.0749 -0.1132 -0.3094
14396W        W31243  13.990  10.147   1.738 -0.0473 -0.1571  0.3112
14397W        W31244   9.176  16.198   5.604 -0.0242  0.2624 -0.4548
14398W        W31245  17.650  14.557   0.319 -0.0849  0.0929 -0.2500
14399W        W31246   5.527  14.858   2.581  0.0508  0.1341 -0.2197
14400W        W31247   1.192  15.972   2.889  0.1515  0.2564  0.0686
14401W        W31248  14.847   5.657   5.089  0.1224  0.0073  0.0491
14402W        W31249   9.472   4.050  12.767  0.2996  0.0498 -0.0058
14403W        W31250  14.407  14.888  11.984  0.0975 -0.0282 -0.3268
14404W        W31251  15.182   1.080   4.752  0.0763 -0.0033 -0.6877
14405W        W31252   5.154   6.360  13.434  0.1547 -0.1640  0.3867
14406W        W31253   3.764   2.009  13.229 -0.1066  0.0763 -0.0813
14407W        W31254  14.718  10.728   4.076  0.0749  0.0719  0.1638
14408W        W31255  17.742   7.050   5.232  0.1732  0.0069  0.3017
14409W        W31256   8.509  13.429  15.352 -0.2674  0.1227  0.2047
14410W        W31257   4.363  13.028  12.537 -0.2281  0.0605  0.1444
14411W        W31258   0.763  11.783  13.958 -0.2104  0.0558 -0.0627
14412W        W31259   5.071   9.853   1.003  0.0325 -0.0011  0.2428
14413W        W31260   5.159   0.887   0.982 -0.0239 -0.0624  0.1976
14414W        W31261   4.042   2.607   2.591  0.0599  0.0509  0.2434
14415W        W31262   2.239   6.932  12.890  0.0079 -0.0188  0.2015
14416W        W31263   9.490   2.717  13.068  0.2283 -0.0148  0.1007
14417W        W31264   8.674  10.046   3.068 -0.2155  0.1641  0.1308
14418W        W31265   2.188  12.946  16.161  0.1428  0.0868 -0.2265
14419W        W31266   5.574  15.222   1.156  0.3203 -0.0454 -0.2364
14420W        W31267  17.925  16.803   2.711 -0.1169 -0.1344 -0.2277
14421W        W31268   0.346   5.920  16.771  0.0973  0.1492  0.1128
14422W        W31269   8.878  10.247  14.842  0.1657 -0.2946 -0.0098
14423W        W31270  11.389  15.181  13.109  0.0137  0.2142  0.3019
14424W        W31271  14.819   3.420  14.111  0.0221  0.1016 -0.1863
14425W        W31272   1.372  16.471   1.193  0.4682  0.1995  0.1531
14426W        W31273  17.118   5.218   4.686  0.2097  0.1078  0.1486
14427W        W31274   5.209  11.716  13.355  0.2430  0.0243  0.0576
14428W        W31275  13.942   6.210   0.802 -0.2235 -0.1328  0.1426
14429W        W31276  17.491   9.666  14.649 -0.2869 -0.1127  0.4750
14430W        W31277   5.202   0.341   3.745  0.0670  0.1736  0.4898
14431W        W31278   1.806   8.139   3.907 -0.0975  0.0247 -0.2181
14432W        W31279  13.397   5.724   2.899  0.0776 -0.4068  0.1589
14433W        W31280  15.238   0.480  15.296  0.2232 -0.0382  0.1378
14434W        W31281   1.408   0.113   2.522 -0.0257 -0.3040 -0.1792
14435W        W31282  11.091   7.258  15.445  0.0028 -0.3118  0.0101
14436W        W31283   1.131   4.030   1.265 -0.2758 -0.2020  0.1766
14437W        W31284   9.119   6.675   2.277  0.2360 -0.0169  0.0831
14438W        W31285  11.102  12.145   0.612 -0.1541  0.1042  0.0341
14439W        W31286   8.143  16.322   4.347 -0.0243 -0.0089 -0.2303
14440W        W31287   6.761  11.794   0.751 -0.2320  0.0786  0.0572
14441W        W31288  16.753   7.966   5.535  0.0016  0.0850  0.2092
14442W        W31289   1.815  16.940   4.484  0.1803 -0.0838  0.1101
14443W        W31290   1.299  17.249   3.309 -0.2793  0.1152 -0.1853
14444W        W31291   5.836  10.463   1.358  0.3642 -0.0394 -0.0211
14445W        W31292  15.438  17.308  13.776  0.2330  0.0123 -0.3566
14446W        W31293   3.149  15.940   2.371 -0.0644  0.0644 -0.1096
14447W        W31294  12.445  17.030  11.623 -0.0688 -0.2037 -0.3593
14448W        W31295  10.257  13.400  15.381 -0.0787  0.1156 -0.0176
14449W        W31296   1.045   8.376   0.619  0.3446  0.3328  0.2781
14450W        W31297  12.280  15.064  16.134 -0.0550 -0.1721 -0.0023
14451W        W31298   0.778  12.730   1.314  0.0149  0.0020  0.1599
14452W        W31299  15.813  17.823  16.537 -0.0979  0.1679  0.0171
14453W        W31300   3.531   8.788  13.181 -0.0958 -0.2853  0.3972
14454W        W31301   5.258   9.200   4.461  0.2050  0.2837 -0.2464
14455W        W31302  16.492  16.603  14.113 -0.1142  0.0694  0.1302
14456W        W31303   0.600   3.463   2.905 -0.1300  0.1186  0.0414
14457W        W31304  17.881  13.500  15.573 -0.0558 -0.1013  0.0306
14458W        W31305   2.560   9.227  14.605 -0.1151 -0.1369  0.3466
14459W        W31306   3.382  16.101  11.637 -0.1242  0.2174 -0.2625
14460W        W31307  10.274   5.593  11.398  0.1331 -0.1241  0.0137
14461W        W31308  12.510  16.020  16.659 -0.0391 -0.0062  0.2488
14462W        W31309   1.737   0.402   1.177  0.1459 -0.1778  0.0409
14463W        W31310  13.043   6.694  12.656 -0.3578 -0.0836 -0.3417
14464W        W31311   3.100   2.063   3.653  0.3886 -0.2998 -0.2635
14465W        W31312  10.731   6.386  15.849  0.0586  0.0757  0.0197
14466W        W31313   9.493   8.085  16.645 -0.0946  0.0941 -0.0589
14467W        W31314  17.717  11.904   1.265 -0.0573  0.1607 -0.2597
14468W        W31315   1.292   8.366   2.751  0.0146  0.2689 -0.3511
14469W        W31316   5.958  14.650   4.413 -0.1052  0.0197 -0.4826
14470W        W31317  15.349  17.835  12.093  0.0228 -0.0326  0.2036
14471W        W31318  14.325   0.564   0.182 -0.0624  0.0291 -0.0768
14472W        W31319  10.453   6.309   0.437 -0.0477 -0.2434 -0.0846
14473W        W31320  12.850   3.247   4.699 -0.1338  0.0989 -0.1364
14474W        W31321   8.476   3.807  15.018 -0.0920  0.1546 -0.3377
14475W        W31322   2.654  15.481  12.224  0.0825  0.0426  0.2861
14476W        W31323  15.312  14.169  15.494 -0.1391  0.0220 -0.1371
14477W        W31324   2.651   6.714   1.333  0.0755 -0.0386  0.2275
14478W        W31325   3.023   6.616  15.789 -0.3038  0.2747 -0.1978
14479W        W31326   8.573  10.614   3.134  0.1168 -0.1170  0.2207
14480W        W31327  10.095  15.640  11.535  0.2774  0.3550 -0.1724
14481W        W31328  10.471   6.559   2.783 -0.3472 -0.2953  0.0232
14482W        W31329   0.679   4.139   1.025 -0.0750 -0.2773  0.1833
14483W        W31330   1.342  16.664   2.445 -0.2417  0.2261  0.0142
14484W        W31331   0.258   6.120   0.820 -0.0173 -0.4092 -0.1644
14485W        W31332   5.270  14.395   0.744 -0.0658 -0.1941  0.2245
14486W        W31333  16.200  13.987   0.131  0.0493 -0.2213  0.3292
14487W        W31334   2.618   8.721  14.725 -0.2255  0.1825  0.2963
14488W        W31335  15.993  10.142   5.329 -0.0369 -0.1796  0.1781
14489W        W31336   1.092  12.463   2.822  0.1598 -0.4197  0.0082
14490W        W31337  14.613  10.734   2.495 -0.0536  0.1356 -0.1001
14491W        W31338   9.155   2.081   5.878  0.1136 -0.2791  0.0429
14492W        W31339  14.853  11.584   5.063 -0.0943  0.1900  0.0624
14493W        W31340  14.361   6.076   3.123 -0.0108  0.0345 -0.0156
14494W        W31341   9.660  13.480   4.753 -0.0618 -0.0879 -0.1417
14495W        W31342   8.755   9.221   2.574  0.0012  0.0236 -0.0725
14496W        W31343  17.261  11.310  15.067 -0.0534  0.0003 -0.0824
14497W        W31344  12.757   0.152   1.949 -0.1660  0.0352 -0.1561
14498W        W31345   7.484   6.429  13.805  0.1014  0.0565  0.0193
14499W        W31346   5.266   6.578  12.029 -0.2201  0.1917  0.0181
14500W        W31347   8.124   1.541  16.314  0.0207  0.2040 -0.2838
14501W        W31348   5.500  13.786   5.482  0.0104 -0.1582  0.1393
14502W        W31349   6.695   1.875   0.245  0.3418 -0.1009 -0.0746
14503W        W31350  12.346   1.067   2.029 -0.1172 -0.1471 -0.1332
14504W        W31351   8.910   0.583   2.688  0.0327 -0.1409 -0.0748
14505W        W31352   4.845  10.825   3.811  0.0804 -0.1373 -0.2609
14506W        W31353  15.781   6.796   3.171 -0.0339 -0.1112 -0.3246
14507W        W31354   8.387   8.400   6.106  0.2801 -0.0499 -0.0232
14508W        W31355   7.717  15.049  13.495 -0.1436  0.0043  0.0080
14509W        W31356   3.755  17.343   1.824 -0.0619 -0.0852  0.1822
14510W        W31357   3.465   8.815  14.109 -0.2166  0.0992 -0.1191
14511W        W31358  14.683  16.410   5.199  0.1206 -0.1313  0.1546
14512W        W31359   6.234   1.386  13.056  0.0549 -0.0118 -0.1124
14513W        W31360   3.049  15.808  11.874  0.0970 -0.0239  0.0133
14514W        W31361   9.742  10.231  15.959 -0.0820  0.2190 -0.1906
14515W        W31362  16.585   8.949   0.728 -0.0466  0.2396 -0.2318
14516W        W31363   1.352   9.229   5.308 -0.2212  0.1878  0.0094
14517W        W31364  15.095  13.611   4.600 -0.0961 -0.1747  0.0368
14518W        W31365   3.292   5.179   3.347 -0.4306 -0.0538  0.1393
14519W        W31366  11.412  16.478  12.953 -0.1467  0.3325 -0.2240
14520W        W31367  16.816   2.362   3.415  0.0566  0.0114 -0.0355
14521W        W31368   4.380  12.717  13.357 -0.2034  0.4534 -0.3751
14522W        W31369   5.344  17.533   4.787  0.2089 -0.0931 -0.0530
14523W        W31370   9.638  16.602   1.523  0.0272 -0.0892 -0.2090
14524W        W31371   9.833  15.872  15.406 -0.0152  0.0326 -0.1163
14525W        W31372   0.922   6.241  12.404  0.1936 -0.1484  0.5353
14526W        W31373  12.807   8.186   1.397 -0.2119  0.0562 -0.1496
14527W        W31374  16.844  13.532   6.539  0.1531  0.1820  0.0742
14528W        W31375  16.446   3.127   4.005  0.1535  0.2338  0.2148
14529W        W31376   3.756  14.435   0.451 -0.1876  0.0318 -0.0873
14530W        W31377   9.413   7.213  14.879 -0.1286 -0.0707 -0.2066
14531W        W31378   1.220  13.832  16.634  0.0520 -0.1899  0.1747
14532W        W31379   4.070  13.850  12.983 -0.2919 -0.2047 -0.0712
14533W        W31380  15.518   7.625  12.694  0.1165  0.2373 -0.1045
14534W        W31381   8.564   3.260  16.660 -0.0651 -0.2750 -0.0866
14535W        W31382   5.326  17.802   1.173  0.0613  0.0014  0.0405
14536W        W31383   7.606   3.877   3.903  0.0544  0.1589  0.4227
14537W        W31384  10.279  10.617   3.299  0.0021 -0.4836 -0.3254
14538W        W31385  10.392   2.671  11.467 -0.3401  0.0753  0.1034
14539W        W31386   7.695   2.632  13.118 -0.0392 -0.1291  0.0901
14540W        W31387   6.271  10.281   0.799 -0.0570 -0.1083 -0.3677
14541W        W31388   7.567  16.927   3.380  0.3499  0.0110  0.3760
14542W        W31389  10.134   6.103  11.643  0.1132  0.0457 -0.1869
14543W        W31390   2.671  10.733  13.001 -0.0552 -0.0741  0.2967
14544W        W31391  16.025   0.197   3.665 -0.3388  0.0014  0.0620
14545W        W31392   2.895  15.812  15.364  0.1867 -0.3224 -0.2372
14546W        W31393   0.345   6.501  14.171 -0.1046  0.1764  0.2687
14547W        W31394   6.979  11.642  16.288 -0.1173 -0.0124 -0.0277
14548W        W31395   1.596   8.160  12.543  0.0397 -0.0703  0.2807
14549W        W31396  13.101  14.131  12.259 -0.0509 -0.3040 -0.0244
14550W        W31397  16.316  16.178   5.753  0.0786  0.3555 -0.0623
14551W        W31398   1.966   5.773   1.192  0.1857  0.0071  0.2445
14552W        W31399  16.227   1.662  14.136 -0.2017 -0.3095  0.1792
14553W        W31400   0.006  12.679   3.712  0.0422 -0.1755  0.1533
14554W        W31401   8.132  16.899   3.219 -0.1590 -0.2198 -0.2050
14555W        W31402   7.646   6.648   5.384  0.0019  0.1843 -0.3216
14556W        W31403   8.271   2.777  11.695 -0.2818 -0.1861  0.1107
14557W        W31404   1.126   6.065  15.071 -0.1498  0.0830  0.2151
14558W        W31405   2.325   3.902  14.486 -0.0844  0.3731 -0.0805
14559W        W31406  12.594  11.952   5.059 -0.2185  0.1115  0.0455
14560W        W31407  14.318   2.601  12.079  0.2623  0.1492  0.2884
14561W        W31408   0.979  14.656   4.464 -0.1511  0.1545 -0.3165
14562W        W31409  13.861  16.909  16.184 -0.0270 -0.1177  0.0840
14563W        W31410  16.193   9.209   6.397 -0.0236  0.2252 -0.1724
14564W        W31411   6.359   8.983   0.799  0.4447  0.0495  0.1507
14565W        W31412  13.162  17.233   0.767  0.1845  0.0758 -0.1139
14566W        W31413  13.763   7.422   4.102 -0.1377 -0.0069  0.0816
14567W        W31414   0.848  10.906  11.628 -0.0679 -0.0409 -0.0616
14568W        W31415  11.669  11.873   5.248  0.0491  0.2196  0.0802
14569W        W31416  17.409   2.825  13.845 -0.0911  0.1093  0.0669
14570W        W31417  10.510   9.066   3.158  0.1763  0.1537  0.1041
14571W        W31418   5.104  15.055  16.789  0.0802  0.1998 -0.1181
14572W        W31419   3.421  17.736   4.539  0.0415  0.1862 -0.0262
14573W        W31420  14.254   4.468  12.483 -0.1986  0.1898 -0.1526
14574W        W31421   5.332   0.890  13.910  0.2212 -0.1110  0.1875
14575W        W31422   3.368   3.568   6.195  0.0899 -0.0831 -0.1033
14576W        W31423   4.323  14.859  11.749  0.0710  0.2080 -0.0831
14577W        W31424   0.610   0.061  15.267  0.0516 -0.0172  0.2598
14578W        W31425  13.759  12.611   1.027  0.0224 -0.0476 -0.0268
14579W        W31426   4.579   5.816   1.485 -0.1716  0.0277 -0.1246
14580W        W31427  17.565  15.802  13.329 -0.0933  0.1025  0.1203
14581W        W31428   5.879   0.455   1.069 -0.1006 -0.1755  0.3369
14582W        W31429  11.554  16.054   3.315 -0.0569 -0.2107  0.0589
14583W        W31430   2.318   3.178   3.863  0.0146  0.2271 -0.0208
14584W        W31431  11.879  17.794   2.431  0.1114 -0.2794  0.1682
14585W        W31432  10.597   7.544   1.769  0.0089  0.1666  0.1512
14586W        W31433   1.581  14.662   4.769  0.2086  0.3439 -0.1804
14587W        W31434  15.218   0.734   2.730  0.0489  0.3721  0.0560
14588W        W31435  10.969   3.575  14.615  0.0620  0.0536  0.0329
14589W        W31436   7.677   8.775   4.316 -0.0754  0.4331 -0.0625
14590W        W31437  17.527   6.439   2.105 -0.1113  0.0038  0.1234
14591W        W31438   8.334   9.387  14.715 -0.0503 -0.1623  0.1267
14592W        W31439  10.481   8.110   4.411 -0.1956  0.0233  0.0101
14593W        W31440   4.215   5.860   3.550 -0.1729  0.3721 -0.1970
14594W        W31441  13.331  11.491  15.365 -0.1487 -0.1042 -0.2056
14595W        W31442  17.907   5.424  11.997  0.3912  0.2733 -0.1788
14596W        W31443   5.011   1.870  15.617  0.0847  0.1716  0.0963
14597W        W31444  13.125  13.315  14.052 -0.1469 -0.1502  0.2793
14598W        W31445   7.809   6.632   0.273 -0.0947 -0.2329  0.1756
14599W        W31446   2.288  15.700   2.753  0.2330 -0.0449  0.0919
14600W        W31447   5.038   8.654  16.112  0.1108  0.2818  0.0515
14601W        W31448   4.459  17.713   4.319  0.1822  0.2127 -0.2184
14602W        W31449   0.443   5.218   4.209  0.1972 -0.0879  0.3854
14603W        W31450   7.684  14.525  13.650  0.2764 -0.0955 -0.2965
14604W        W31451   1.895  10.897  16.119 -0.1598 -0.2573  0.0674
14605W        W31452  13.270   1.299  12.457 -0.0552  0.0529  0.0277
14606W        W31453   7.049   1.821   3.753  0.1268  0.0312  0.0464
14607W        W31454   5.385  17.784   4.238 -0.1646  0.1645 -0.1786
14608W        W31455  12.391   5.257   4.316  0.0459  0.1623  0.2385
14609W        W31456  14.301   9.662   5.060  0.3311  0.2062  0.0730
14610W        W31457   5.414   0.940  11.707 -0.1868  0.0335 -0.0114
14611W        W31458  16.387   8.405   0.584 -0.1819  0.1067 -0.3131
14612W        W31459  15.105   1.460  16.149 -0.0960 -0.3769 -0.1756
14613W        W31460   0.653  15.241   3.376 -0.1936  0.0516 -0.0199
14614W        W31461   8.105  12.253  12.821 -0.3768  0.1546 -0.0046
14615W        W31462  14.856   9.889  12.985 -0.0766 -0.0267  0.1912
14616W        W31463  13.689   6.912  15.517  0.0019  0.1955 -0.1149
14617W        W31464  16.706   4.642   5.363  0.1465  0.1442 -0.0693
14618W        W31465   0.785  13.760  16.259 -0.3113  0.1560 -0.1240
14619W        W31466  12.034   6.147   3.629 -0.2405  0.0937 -0.2027
14620W        W31467  14.005  10.866  11.673 -0.0037  0.1215 -0.4629
14621W        W31468  11.960   8.389   4.334 -0.2733 -0.0052 -0.1913
14622W        W31469   4.670  13.133  13.465  0.0177 -0.1175  0.1946
14623W        W31470   4.249  15.371  16.527  0.1528 -0.3476  0.1641
14624W        W31471   1.051  16.481  13.290  0.0303  0.0379 -0.0521
14625W        W31472  16.601  17.783  15.957 -0.0851  0.0051 -0.3365
14626W        W31473  15.358  16.518   1.038  0.2254  0.1027 -0.0864
14627W        W31474   5.039   9.397   1.174 -0.0395 -0.0743 -0.0483
14628W        W31475   5.072  14.643   0.360  0.1684 -0.1889 -0.2179
14629W        W31476  12.843   5.791   3.533 -0.1705 -0.0592  0.0582
14630W        W31477   2.235   1.023  16.795 -0.4949  0.4228 -0.1169
14631W        W31478   6.670   6.388  12.642 -0.0931 -0.3091 -0.3325
14632W        W31479   7.094  15.624   0.954 -0.0039  0.1420 -0.1473
14633W        W31480   5.107   0.715  14.916 -0.5646 -0.0509  0.1861
14634W        W31481  14.628   2.872  12.255  0.3275  0.0572  0.0749
14635W        W31482   3.990   9.018   4.830  0.2164 -0.0872 -0.0732
14636W        W31483  15.623   0.923   3.541 -0.0602  0.2287  0.3356
14637W        W31484  16.254  14.920   3.283  0.3781 -0.1009  0.1485
14638W        W31485   3.854  13.941   0.645  0.0332 -0.1521 -0.0423
14639W        W31486  10.083   1.120   0.265 -0.1891 -0.4139  0.2105
14640W        W31487   7.042   7.417   3.953  0.0912  0.0414 -0.0068
14641W        W31488  12.346   8.142   4.624  0.0577 -0.1638  0.0857
14642W        W31489   7.114   3.078  15.199 -0.1274 -0.0571 -0.2229
14643W        W31490  17.452  10.077   0.689 -0.2144 -0.2616  0.0844
14644W        W31491   3.735   2.192   5.976 -0.2538 -0.2457  0.1325
14645W        W31492   7.493   9.870  13.408 -0.2264  0.0558  0.3045
14646W        W31493  16.339   9.317  13.654 -0.1949  0.2805  0.2234
14647W        W31494  16.640  12.543  15.288 -0.3084 -0.0332 -0.1923
14648W        W31495  10.585  14.988  11.551 -0.1683  0.0557  0.2687
14649W        W31496   9.538  15.492   1.553 -0.0159  0.0710  0.0029
14650W        W31497   1.053  14.707  12.763  0.0246 -0.0573  0.0106
14651W        W31498  17.571  16.385   3.870 -0.1307 -0.0338  0.3319
14652W        W31499  11.055   3.180  11.959  0.2265 -0.2369 -0.2138
14653W        W31500   8.279  13.155  15.663 -0.2217 -0.1813 -0.1059
14654W        W31501  15.286  11.292   4.221 -0.1123 -0.2904  0.1504
14655W        W31502   0.263   6.884  15.560  0.0635 -0.1374 -0.2320
14656W        W31503   2.871  16.679  14.073  0.3149 -0.3282  0.1107
14657W        W31504   4.027  17.137  14.688 -0.2529 -0.2327  0.1808
14658W        W31505   3.324   4.887  14.789  0.1693 -0.2667  0.0315
14659W        W31506   7.964  17.203   1.208 -0.2299  0.0426  0.3996
14660W        W31507  12.229   3.644  11.547 -0.0891  0.1356 -0.0133
14661W        W31508   9.963   0.224   3.025  0.4075 -0.1403 -0.3514
14662W        W31509  13.483   8.808   0.664 -0.1106 -0.0156  0.2885
14663W        W31510   8.508   6.221  14.562 -0.0411 -0.2188  0.1861
14664W        W31511   4.563   9.933   2.367 -0.2199  0.1427 -0.1170
14665W        W31512  15.279  12.182   5.670 -0.2092  0.0204  0.1149
14666W        W31513  12.894   7.901   2.506  0.0825  0.3139  0.0591
14667W        W31514  10.902   0.002  15.045  0.0916 -0.2295  0.0127
14668W        W31515   5.710  15.214   3.905  0.0704  0.0708  0.2079
14669W        W31516   4.161   2.550   2.063 -0.1416  0.0260 -0.1643
14670W        W31517   3.763  17.085   4.206 -0.1508 -0.0329  0.0322
14671W        W31518  15.952  10.864  12.966  0.1283 -0.1398  0.0344
14672W        W31519  17.107  12.035  14.994  0.1233  0.1154  0.0130
14673W        W31520  11.630  14.820  12.114 -0.4505  0.2263  0.1776
14674W        W31521   9.865  13.965  12.522  0.2815 -0.1641 -0.2162
14675W        W31522  12.222   8.390  15.320 -0.1174  0.2355 -0.0576
14676W        W31523   9.086   7.812   1.202 -0.2952  0.1654  0.0349
14677W        W31524  10.251   9.385   0.369  0.1030  0.2965  0.1166
14678W        W31525  10.292  11.221  14.568 -0.0895  0.0952 -0.2500
14679W        W31526   6.394   4.632   4.298  0.1172 -0.4433  0.3089
14680W        W31527   1.790  13.587   3.684  0.0524 -0.2509 -0.1579
14681W        W31528  12.857  15.747   1.521 -0.0085  0.1326  0.1112
14682W        W31529  13.761   7.412  12.604 -0.0897  0.1747  0.1192
14683W        W31530   0.500  12.399   5.267 -0.1165 -0.0504 -0.1010
14684W        W31531  14.569  11.238   3.827  0.2555  0.1015  0.1303
14685W        W31532   4.010  10.319   4.733 -0.1255 -0.2689 -0.1728
14686W        W31533   7.054   2.045   3.276  0.2397  0.1379 -0.3132
14687W        W31534   7.100  15.859  14.787 -0.0570  0.1226  0.0083
14688W        W31535   4.413   3.350   1.702  0.0887  0.0623 -0.2461
14689W        W31536   2.412   7.480   5.534  0.2037  0.0750 -0.0872
14690W        W31537  13.785   8.620  14.480 -0.0735  0.0241 -0.1296
14691W        W31538  12.868   9.483   3.055 -0.0255  0.2044  0.0146
14692W        W31539   2.880   0.333  12.401 -0.0050 -0.1330 -0.0075
14693W        W31540   8.868   5.392   3.919  0.0577  0.2041 -0.2530
14694W        W31541  13.991  11.843  15.323 -0.1464  0.2184  0.2896
14695W        W31542   1.768   4.810  12.828 -0.1767 -0.0264 -0.0980
14696W        W31543   8.808  16.316   4.061  0.3213 -0.1593 -0.2776
14697W        W31544   0.306   9.682   0.356  0.2555 -0.1235 -0.2652
14698W        W31545   2.992   4.077  16.162  0.1881 -0.1361 -0.0575
14699W        W31546   9.866   9.969  12.026 -0.1088 -0.0590 -0.0714
14700W        W31547   3.526   0.425  15.785 -0.1256 -0.2248 -0.5081
14701W        W31548  16.549   4.865   2.518  0.1694 -0.1045 -0.3597
14702W        W31549   5.779  12.143  14.876 -0.2723  0.0681 -0.0140
14703W        W31550  16.597   6.621   0.229 -0.3797  0.2250  0.0476
14704W        W31551   1.765  14.334  13.977 -0.1273 -0.0292 -0.1203
14705W        W31552   4.152  10.622  15.909  0.1863  0.0130  0.1156
14706W        W31553  11.903   5.538   0.244 -0.2010 -0.1500  0.0280
14707W        W31554   0.957  10.477  13.300  0.3959  0.0768  0.1573
14708W        W31555  10.698   4.863   3.540  0.0103 -0.2729  0.1377
14709W        W31556  12.823   5.988   5.328  0.0112  0.0797  0.1208
14710W        W31557  10.806   2.089  14.300  0.0301 -0.0511 -0.2645
14711W        W31558   0.253   7.397   5.108  0.2196  0.2557 -0.0194
14712W        W31559  12.945  11.143   3.421  0.0038 -0.0707 -0.1356
14713W        W31560   2.321  14.640  14.715  0.2240 -0.5244  0.1592
14714W        W31561  17.653   2.952  16.364  0.0164 -0.3473 -0.1166
14715W        W31562  15.028  17.817  11.086 -0.0932 -0.0038 -0.0559
14716W        W31563   1.318  11.165   5.187 -0.0289  0.0351  0.2014
14717W        W31564   4.180  15.028   4.618 -0.0272  0.2730  0.4263
14718W        W31565   1.289   8.379  15.666  0.2657  0.1414  0.0447
14719W        W31566   6.807   6.198  12.169 -0.1461 -0.0618 -0.1351
14720W        W31567   2.567   4.227  15.663  0.1138  0.4087 -0.1330
14721W        W31568   8.726   1.888  15.197 -0.1371  0.5821 -0.0771
14722W        W31569  17.427   6.763  14.406 -0.0409 -0.1598  0.2704
14723W        W31570  10.365  14.518  13.595 -0.1466  0.0728 -0.0025
14724W        W31571  14.289   4.191   0.238  0.3266  0.2032 -0.1709
14725W        W31572  13.975   6.012  10.848  0.3200  0.2858  0.0311
14726W        W31573   5.529   7.120   1.811  0.2198 -0.1725  0.0281
14727W        W31574   4.535   3.450   2.231  0.0598 -0.0909  0.0530
14728W        W31575  16.736   8.110   2.182 -0.1619 -0.1401  0.2192
14729W        W31576   5.669   6.094   0.629  0.2132 -0.0663 -0.0365
14730W        W31577   2.847   4.710   4.790 -0.2482 -0.1243 -0.0986
14731W        W31578  14.246   6.399   2.137  0.0910 -0.1399 -0.0917
14732W        W31579  15.319  13.677  11.964  0.1016  0.2210  0.2353
14733W        W31580   8.744  12.735  12.791 -0.0715  0.0987  0.0099
14734W        W31581   2.323   7.727  11.962 -0.0296 -0.1037 -0.0320
14735W        W31582   9.707  10.188   5.596 -0.1632  0.2320 -0.1700
14736W        W31583   3.288   9.408   3.664 -0.0132 -0.1355  0.0488
14737W        W31584   1.882  14.302   0.739  0.3010 -0.0470 -0.0356
14738W        W31585   1.289   5.633  15.275  0.0074  0.0587 -0.0299
14739W        W31586  12.268  17.069  14.389  0.0715 -0.0995  0.0892
14740W        W31587  15.554   7.507   5.005 -0.1732 -0.0682 -0.1673
14741W        W31588   1.674  12.616   0.997 -0.1206  0.2157 -0.1225
14742W        W31589   8.060  10.317   4.972 -0.2251 -0.0180 -0.1812
14743W        W31590  16.473   3.886  11.045  0.1169  0.3787 -0.0776
14744W        W31591   8.465   8.515   3.067  0.0125  0.2298 -0.2702
14745W        W31592   1.878   7.567  15.726  0.0352 -0.2571 -0.3040
14746W        W31593  16.879   1.490   3.403 -0.2909  0.1806  0.1077
14747W        W31594  14.670  17.060   3.922  0.1330  0.0053 -0.0264
14748W        W31595   8.937  11.080   6.080 -0.1039 -0.1023 -0.3635
14749W        W31596   1.012  14.328   2.822 -0.0139 -0.1419 -0.1208
14750W        W31597  15.484   9.639   3.340  0.3344  0.0377  0.1649
14751W        W31598  13.449  13.829   0.702 -0.1705 -0.0284  0.0713
14752W        W31599   4.323   7.560   0.450 -0.2998 -0.0611 -0.2406
14753W        W31600   2.916   1.363   4.412  0.0683  0.2211  0.1654
14754W        W31601  10.619   3.309  16.388  0.0163  0.2438  0.0321
14755W        W31602  10.084  13.505  15.879 -0.1201 -0.0418 -0.0523
14756W        W31603   5.160  17.164   2.250  0.2133 -0.0089 -0.3486
14757W        W31604  12.533   9.994  13.141  0.3832 -0.0327 -0.0467
14758W        W31605   5.388  16.243  15.273  0.2307 -0.2036 -0.1279
14759W        W31606   9.598  13.810   0.329 -0.1140  0.1497  0.0717
14760W        W31607  17.694   3.921  16.049 -0.0114 -0.0536 -0.2214
14761W        W31608  11.052   2.265  14.755  0.0149 -0.2473  0.1435
14762W        W31609  16.818   4.182   4.579  0.3471  0.0319  0.1243
14763W        W31610  15.993   6.610  12.851  0.2825  0.1155 -0.1492
14764W        W31611   3.923  15.007  16.482 -0.1014 -0.0677  0.1052
14765W        W31612  13.093   1.154   1.128 -0.1564  0.0371  0.1732
14766W        W31613  13.796   5.657   1.930 -0.0588  0.0871 -0.4839
14767W        W31614  11.765  13.186  16.462  0.1986  0.0414  0.0037
14768W        W31615   6.333  14.728   2.990 -0.1195  0.1187 -0.0609
14769W        W31616  11.383  15.065   4.084 -0.1659 -0.1533  0.1947
14770W        W31617   2.592   0.027   0.749 -0.0422 -0.1377  0.2314
14771W        W31618   3.384  12.307   0.531 -0.1978  0.0264  0.0244
14772W        W31619  11.249   3.933  16.724 -0.0650 -0.0580  0.0663
14773W        W31620  17.939  11.679   3.537  0.2210 -0.1150 -0.1322
14774W        W31621   0.994  16.722  13.903  0.2118  0.1421  0.0363
14775W        W31622   0.283   1.560   3.314  0.3366 -0.1089 -0.1196
14776W        W31623   7.476  13.098  11.528 -0.1780 -0.0451  0.2625
14777W        W31624  12.250   5.968  12.750  0.1902 -0.1995 -0.1207
14778W        W31625   5.480  15.766  15.608 -0.2434 -0.0073  0.1351
14779W        W31626  11.899  14.064  16.718  0.1730  0.0242  0.0446
14780W        W31627   3.095   5.162  12.090 -0.0627 -0.0912 -0.0353
14781W        W31628   2.488   1.178   1.283  0.0220 -0.1121 -0.1233
14782W        W31629  12.211  16.210  15.203 -0.0475  0.0640 -0.0462
14783W        W31630  16.469  17.125   5.759 -0.0377 -0.0422 -0.1297
14784W        W31631  14.542   2.322  16.208 -0.3755  0.1928 -0.6739
14785W        W31632   6.587  12.368   3.374  0.0569 -0.1260 -0.1658
14786W        W31633  10.549  10.294   2.984 -0.0235  0.0542 -0.4104
14787W        W31634   9.402  15.042   0.752  0.0666  0.1681 -0.0371
14788W        W31635  14.263   6.572   0.464 -0.0944  0.1715  0.0599
14789W        W31636   7.355  13.397   2.881 -0.2447 -0.0629 -0.0531
14790W        W31637  15.363   8.194  13.552  0.0885  0.0097  0.2699
14791W        W31638   7.156   3.285  16.599 -0.0502  0.0932  0.0026
14792W        W31639  13.227  17.666  16.129 -0.0564 -0.1029  0.2940
14793W        W31640   5.684   3.118   0.232  0.2108 -0.0879  0.1214
14794W        W31641  11.743   5.858  14.890 -0.2268  0.0124  0.0088
14795W        W31642  13.365  11.207  13.817  0.0552  0.1606 -0.0047
14796W        W31643   6.617  13.899  13.713  0.0930  0.1409 -0.2096
14797W        W31644   9.894  13.646   0.735 -0.1843 -0.0251  0.1575
14798W        W31645  14.586   8.487  13.176  0.2616  0.0548 -0.0545
14799W        W31646   4.489  12.842   1.060  0.4048 -0.2016 -0.0842
14800W        W31647  13.463  12.385   0.106  0.0394 -0.2029  0.1527
14801W        W31648   6.329  12.031   4.042  0.0416  0.0890 -0.0286
14802W        W31649  15.656  14.050   6.177 -0.0049  0.0780 -0.1284
14803W        W31650  12.809   5.807  11.651 -0.0834  0.0284 -0.0304
14804W        W31651  12.322   0.096   5.833  0.1587  0.0671  0.2378
14805W        W31652   3.783   4.826  12.449  0.1810  0.1190  0.1635
14806W        W31653   2.932   0.073   3.176 -0.1381  0.0979 -0.0809
14807W        W31654  10.003  17.452  16.415  0.0599  0.1815  0.0962
14808W        W31655   0.306  17.699   3.940  0.2371  0.0218 -0.0161
14809W        W31656   9.552   7.945   4.891  0.0545  0.1189 -0.1328
14810W        W31657  16.779   0.208  12.138  0.1005  0.0039 -0.2000
14811W        W31658  11.809   1.471  16.014  0.0091 -0.2326  0.0338
14812W        W31659  14.602   0.106   1.089  0.1853  0.0926 -0.0738
14813W        W31660   0.009   8.527   4.146  0.1945 -0.1668 -0.0065
14814W        W31661   3.323   2.216  15.969  0.4180  0.1506 -0.1127
14815W        W31662  17.547  10.739   4.544  0.2810 -0.1062 -0.1465
14816W        W31663   2.110  14.988   2.643 -0.0272  0.1900  0.1199
14817W        W31664   7.887   4.077  14.679 -0.0589 -0.1465  0.2102
14818W        W31665  13.001   6.713  15.982 -0.1244 -0.1097  0.0033
14819W        W31666   4.780   3.896   3.730 -0.1146  0.2167  0.2483
14820W        W31667  11.269  17.840  11.695 -0.3246  0.0016  0.0793
14821W        W31668  14.920  10.155  16.505 -0.3161  0.1421  0.0193
14822W        W31669   5.030  17.525   2.569  0.2093 -0.0338  0.0533
14823W        W31670   6.953   9.686  12.207  0.0040  0.3128 -0.0763
14824W        W31671  17.839  11.397   5.431 -0.1057  0.1418 -0.0031
14825W        W31672   8.142   5.405   0.545 -0.0288 -0.0846  0.1298
14826W        W31673  13.415  11.442   2.722 -0.1738  0.0291  0.2586
14827W        W31674   1.684  15.881  13.075  0.1825  0.1268  0.0379
14828W        W31675  10.606   8.764  12.890  0.0529  0.1343  0.0091
14829W        W31676   3.728   0.145   4.287  0.1266  0.0191  0.1326
14830W        W31677  12.631  11.490  14.992  0.0849 -0.2574 -0.0370
14831W        W31678   0.404  11.314   2.781  0.1530  0.0885  0.0270
14832W        W31679  16.594   1.883   3.323 -0.3601  0.0921  0.0633
14833W        W31680   3.691   4.575   2.673  0.1879  0.0205  0.0645
14834W        W31681   3.583  12.398   1.068 -0.0943  0.2153  0.0862
14835W        W31682  13.369   9.651  13.319 -0.0859 -0.0802 -0.1606
14836W        W31683  10.032   1.741  11.543  0.0607  0.1559  0.0906
14837W        W31684  17.884  16.343   2.388 -0.3906 -0.1323 -0.0320
14838W        W31685  14.945   8.125  13.244  0.2093 -0.2832 -0.2487
14839W        W31686  14.248   7.796  15.818 -0.1909 -0.2538 -0.0852
14840W        W31687   5.744   6.708  12.687  0.1791  0.0927  0.0020
14841W        W31688  15.452   5.328   3.390 -0.1228  0.1938  0.0580
14842W        W31689  16.427   5.064   1.872 -0.1323 -0.0931  0.2831
14843W        W31690   2.839   2.534   5.106 -0.1472  0.0696  0.5716
14844W        W31691  15.986  10.447  12.001  0.0078  0.1343  0.0872
14845W        W31692   7.166   7.789   1.051  0.1301 -0.2105  0.2350
14846W        W31693   7.800  14.047   2.381  0.0064 -0.0478 -0.0004
14847W        W31694   6.006   9.805   2.668 -0.3070  0.0227  0.3675
14848W        W31695   9.209   9.441  13.045 -0.1440  0.2373  0.3661
14849W        W31696  13.477   2.983   1.245 -0.3141 -0.1698  0.0370
14850W        W31697   6.716   7.004   3.762 -0.0219 -0.2033  0.0294
14851W        W31698  12.322   8.714  14.971  0.3435  0.5849  0.0085
14852W        W31699   2.428   0.892  13.070 -0.0151  0.0246 -0.2693
14853W        W31700  16.930  10.933   2.444  0.1388 -0.1203 -0.1700
14854W        W31701  15.071   1.116  12.409 -0.0721  0.0776 -0.1350
14855W        W31702   6.498  12.882   5.975 -0.1993  0.1382  0.0551
14856W        W31703  11.221  11.068  12.674 -0.2837 -0.0985  0.1064
14857W        W31704  16.267   6.744  12.132  0.2335  0.3950 -0.0843
14858W        W31705  14.655   5.147   5.396 -0.0814 -0.1443  0.2973
14859W        W31706   3.945  14.168  13.546 -0.0673  0.2816  0.0323
14860W        W31707   8.442   3.047  12.464  0.1078  0.4310  0.1836
14861W        W31708   8.561   7.516   3.870 -0.2462  0.1411  0.1398
14862W        W31709   8.113   2.037   2.005  0.2063 -0.0863 -0.2006
14863W        W31710  16.516   5.877  16.658 -0.2157  0.2425 -0.2462
14864W        W31711   4.397   4.944   2.489 -0.1718  0.0260 -0.1000
14865W        W31712   5.405   3.218   2.597 -0.0826  0.1106 -0.1083
14866W        W31713   6.460  13.820   0.071  0.0235  0.0049  0.0870
14867W        W31714   1.515   6.425  11.594  0.1383 -0.1340 -0.0767
14868W        W31715  13.717   6.394  13.988  0.1086  0.0085 -0.0778
14869W        W31716   1.239   0.026  13.907  0.0279 -0.0014  0.1029
14870W        W31717   7.908   4.917  12.729 -0.4080  0.1448  0.1020
14871W        W31718  13.611  11.935   2.775 -0.0837  0.2390 -0.1023
14872W        W31719   1.171  10.938   1.872  0.2628  0.1542 -0.0802
14873W        W31720   1.476  14.416   1.465 -0.0681 -0.2510 -0.1871
14874W        W31721   7.139   1.763  13.878 -0.0661  0.1658 -0.1821
14875W        W31722   9.889   3.599  16.193 -0.0638 -0.2185  0.4226
14876W        W31723  16.341   6.175  13.068  0.1447  0.0305 -0.0114
14877W        W31724   1.161   3.275   4.665  0.1571  0.0698  0.1105
14878W        W31725   3.735   0.753   2.000 -0.0463 -0.1579  0.1804
14879W        W31726  11.147  10.510   2.016 -0.0836 -0.2935 -0.1834
14880W        W31727  16.992   4.995  12.899 -0.1380  0.4538  0.0713
14881W        W31728  10.122  14.973   2.727 -0.0592  0.0640  0.2300
14882W        W31729  15.471   3.307   4.422  0.0945 -0.3678  0.3141
14883W        W31730  14.760   9.841  14.696  0.0723 -0.1752 -0.2692
14884W        W31731   0.539  14.407   2.436 -0.3837  0.1096  0.0130
14885W        W31732  15.194   4.241  12.335  0.1501  0.0200 -0.3831
14886W        W31733   8.469  12.447  14.997 -0.0145 -0.0605 -0.0001
14887W        W31734   4.413   3.148  16.654 -0.2127  0.4520 -0.0468
14888W        W31735   4.632   9.775  11.962  0.1198  0.0331 -0.2742
14889W        W31736  11.291  17.236   3.375  0.1126  0.0451  0.0821
14890W        W31737  14.474  11.251  14.641 -0.2883 -0.1936 -0.0939
14891W        W31738   1.340  15.846   0.522  0.0990 -0.0572  0.0676
14892W        W31739  16.407   9.913   5.085 -0.0023  0.0884 -0.0455
14893W        W31740   4.692   6.343  13.934  0.1716  0.3280 -0.0135
14894W        W31741   3.420   8.426  15.234 -0.0911 -0.1672  0.0394
14895W        W31742  11.880   2.710   4.789 -0.0919  0.1822  0.1341
14896W        W31743   9.311   2.848  11.534 -0.1824 -0.1469 -0.2384
14897W        W31744  14.385   8.716  12.721  0.0947 -0.1409 -0.2614
14898W        W31745   5.376  14.271   1.271 -0.0610  0.0464 -0.0347
14899W        W31746  15.398   8.296   5.302  0.0710 -0.2461 -0.0296
14900W        W31747   2.560   4.402  14.357 -0.1199 -0.1545  0.1268
14901W        W31748   1.094  16.449  14.302  0.1292  0.0076 -0.1994
14902W        W31749   4.028  17.280   0.945 -0.0359  0.1479 -0.2065
14903W        W31750   7.026   3.669  12.346 -0.0354 -0.0708  0.0154
14904W        W31751  17.241   7.596   2.808 -0.0410 -0.0548 -0.1494
14905W        W31752   6.484  11.703  16.331  0.0489  0.3787 -0.0846
14906W        W31753   7.208  14.173   0.576  0.3254 -0.1168  0.2705
14907W        W31754  17.929   6.357   4.115  0.1101  0.1672  0.1536
14908W        W31755  11.574  16.250  12.139 -0.0319 -0.1967  0.0233
14909W        W31756   9.744   2.982  15.800  0.0968 -0.0965 -0.0181
14910W        W31757  15.969   9.238  14.375  0.2322  0.0491 -0.1909
14911W        W31758  15.329   9.642  13.041  0.2367 -0.1135  0.1938
14912W        W31759   0.605  16.006   0.763  0.2083  0.0971  0.2435
14913W        W31760   2.786   0.178  11.002  0.0481  0.0367  0.2285
14914W        W31761  14.928  13.101   1.391 -0.0310  0.2766  0.1346
14915W        W31762  15.943   1.205  11.690 -0.1684 -0.1427  0.0918
14916W        W31763   2.941   1.802   4.546  0.0673  0.0031  0.1356
14917W        W31764  14.821  14.420   0.754  0.3228 -0.0136  0.1069
14918W        W31765   5.658  14.555  13.403 -0.1024  0.0299  0.1888
14919W        W31766   6.794   9.440   4.871 -0.1840 -0.0460  0.2576
14920W        W31767  12.111   9.362   5.435  0.0761  0.1145 -0.1999
14921W        W31768   3.077  13.135  15.387  0.1088  0.0832 -0.0034
14922W        W31769  13.479   8.527   5.779 -0.2174 -0.2056  0.1029
14923W        W31770   0.115   1.366  16.176 -0.0866 -0.1281 -0.1403
14924W        W31771   0.109   0.035  14.221  0.1055  0.0307 -0.0124
14925W        W31772  17.536  14.290   1.784 -0.0586 -0.0703 -0.1036
14926W        W31773  10.107   8.003   2.183 -0.0763 -0.0076 -0.4566
14927W        W31774  14.364  11.649   5.653 -0.2672  0.1561  0.1891
14928W        W31775   0.476  10.755  15.539  0.1744  0.0698 -0.2212
14929W        W31776  16.023   0.521  13.814  0.0427 -0.0367  0.1818
14930W        W31777   0.170   2.290   1.205 -0.1894 -0.1925  0.3627
14931W        W31778   6.060   4.718   1.100 -0.1606 -0.1313  0.1900
14932W        W31779  12.534  16.934  14.862  0.2366 -0.2522 -0.0653
14933W        W31780  11.535  10.639  16.440  0.0001 -0.0939  0.1173
14934W        W31781   9.681   7.918  12.737  0.1015  0.1861 -0.4639
14935W        W31782  16.765   9.490  13.967 -0.0247 -0.1550  0.0895
14936W        W31783   3.888   6.860  12.055 -0.1500 -0.1198 -0.1272
14937W        W31784   2.512  16.313   1.849 -0.0664 -0.1919 -0.1151
14938W        W31785   2.738  14.403   4.508  0.0241  0.0375  0.1544
14939W        W31786   4.664   4.535   2.178 -0.1085 -0.2378  0.3898
14940W        W31787   1.892   7.058  12.250  0.0896  0.0323 -0.1021
14941W        W31788   6.735  16.545   0.555  0.1844 -0.0460  0.3254
14942W        W31789   6.591   1.816  13.188 -0.0464 -0.0270  0.1912
14943W        W31790  10.114  15.679  10.596  0.2307 -0.0207 -0.0684
14944W        W31791   5.346  15.562   5.954  0.0861  0.3571  0.0838
14945W        W31792   7.887  13.881  15.910 -0.1073  0.2022 -0.0309
14946W        W31793   9.959  12.305   2.007 -0.0858 -0.1747  0.0595
14947W        W31794  14.441  16.513  15.305 -0.0778  0.1496  0.0991
14948W        W31795   1.942   0.126   3.529  0.5115 -0.2548  0.1213
14949W        W31796   1.039  14.573   1.244 -0.1883  0.0271  0.0935
14950W        W31797  13.518  16.345  14.456 -0.2309 -0.0662  0.1672
14951W        W31798  16.332   6.703  16.613  0.1580 -0.0872  0.1315
14952W        W31799  14.221   4.582  16.672 -0.0450 -0.0307 -0.0662
14953W        W31800  16.153  10.874   0.285 -0.2412  0.1620  0.2832
14954W        W31801  12.830  14.598   0.057  0.1329 -0.0246 -0.0790
14955W        W31802  10.451  10.334  15.272  0.3010 -0.2245 -0.1034
14956W        W31803   6.620  13.227   5.671  0.0145 -0.1623  0.4362
14957W        W31804  12.849   1.076   2.100 -0.1725  0.0490  0.3628
14958W        W31805   6.969   3.504  13.288 -0.0694  0.3396  0.2396
14959W        W31806  15.814   4.020  15.331 -0.0661  0.4425  0.2153
14960W        W31807   9.549   3.503  16.552 -0.3772  0.0527  0.0538
14961W        W31808   9.016  14.385  13.737 -0.0594  0.1377  0.1272
14962W        W31809  15.992   1.790  13.639  0.3601 -0.2066 -0.2968
14963W        W31810   9.958   2.732  12.867  0.2579 -0.0483 -0.2755
14964W        W31811   9.072   2.129   1.715  0.0588 -0.2070 -0.0464
14965W        W31812   0.920   2.126   3.585  0.0965 -0.1662  0.0844
14966W        W31813  15.457  11.992  15.279 -0.0222 -0.3541  0.1245
14967W        W31814   2.912   0.687   1.521 -0.1568 -0.0549  0.0354
14968W        W31815   4.494  14.593   2.896  0.2730  0.1488  0.3173
14969W        W31816  13.624   9.488  16.532 -0.1020 -0.0046  0.4328
14970W        W31817  17.875   6.848  14.214 -0.1142 -0.1176 -0.0584
14971W        W31818   8.633   7.280   4.576 -0.4208 -0.1212 -0.1799
14972W        W31819  16.712  12.879  15.862 -0.1436 -0.1672 -0.1436
14973W        W31820   1.061  17.453   5.244 -0.0551  0.0344 -0.1070
14974W        W31821   6.123  15.537   1.752 -0.4378  0.0071 -0.1227
14975W        W31822   2.892   8.904   4.288  0.1611  0.2818  0.0748
14976W        W31823  13.072  10.441  12.047 -0.1099  0.2008  0.2278
14977W        W31824  16.324   2.665  11.826  0.1684 -0.2168  0.1903
14978W        W31825  15.932  15.874   1.986  0.0289  0.1883 -0.0246
14979W        W31826   0.418  12.956  13.084 -0.1456 -0.0749 -0.0384
14980W        W31827   3.853  11.374  14.665 -0.2063  0.1444  0.3648
14981W        W31828  15.118   6.748  13.385  0.3780 -0.0327  0.2002
14982W        W31829  13.029   6.605   3.378  0.2725  0.0602  0.1999
14983W        W31830  15.281  16.901   2.256 -0.0196  0.2089  0.2142
14984W        W31831   9.090   4.605  15.948  0.0634  0.0641  0.3745
14985W        W31832  12.304  10.961   0.391 -0.0766  0.3144  0.0903
14986W        W31833  10.487   2.526  16.438  0.0763 -0.2378  0.0187
14987W        W31834   1.872   8.352  11.937  0.5579  0.0621  0.0288
14988W        W31835   5.960  13.137   0.073  0.3160  0.0290 -0.3342
14989W        W31836   6.484   4.485  14.230 -0.0756  0.1273 -0.0866
14990W        W31837   5.317   0.708   3.210  0.2576  0.1382 -0.0172
14991W        W31838   0.889   0.987   3.839 -0.3366 -0.0436 -0.1111
14992W        W31839  17.680  14.199  12.286  0.0117 -0.1401  0.1642
14993W        W31840   4.550  10.022  12.520 -0.0728 -0.1971  0.3021
14994W        W31841   5.084   8.976  12.821  0.1691  0.1068 -0.0117
14995W        W31842   1.238  17.550  16.612 -0.2142  0.0884 -0.0582
14996W        W31843  16.049  13.966  13.115 -0.1411  0.1729  0.1915
14997W        W31844   3.192   8.024   0.737 -0.1424 -0.0413 -0.1779
14998W        W31845   3.906   1.486   4.389  0.1363  0.1937  0.0135
14999W        W31846  15.442  15.706  15.284  0.0150 -0.1008  0.0147
15000W        W31847   4.767   9.839  16.533 -0.4311  0.0123  0.0016
15001W        W31848   1.516  14.051   3.721 -0.1235 -0.0628  0.2033
15002W        W31849  15.188   7.178  13.136 -0.1342  0.2988 -0.0512
15003W        W31850  13.741   5.539  15.816  0.2385  0.1343 -0.0497
15004W        W31851   6.649  17.907   1.368  0.1406 -0.1110  0.0417
15005W        W31852  12.004   9.730  15.785  0.1222 -0.1920  0.0849
15006W        W31853   5.236  11.715  11.592  0.1280  0.0167  0.0103
15007W        W31854  17.640  11.114   1.313 -0.1005  0.0013 -0.0830
15008W        W31855  16.148   8.929   3.469 -0.1631  0.2346  0.2987
15009W        W31856   3.497   0.176  12.794  0.0023  0.3136  0.1411
15010W        W31857   4.438   3.513   0.218  0.1177 -0.1270 -0.2773
15011W        W31858  10.293   9.280   2.104  0.4036  0.2178  0.1739
15012W        W31859  16.168  10.688  16.270 -0.0443 -0.1508 -0.1986
15013W        W31860  16.125   6.530   5.344  0.1679 -0.0285  0.1368
15014W        W31861   9.306  11.793   4.487  0.2489  0.1446 -0.0373
15015W        W31862   8.893   7.280  12.653 -0.1193  0.2024 -0.0387
15016W        W31863  15.664   1.055   4.631  0.1536  0.2508 -0.0736
15017W        W31864   8.826  13.700   2.449  0.0673  0.0011  0.1411
15018W        W31865   6.547  10.885   5.121  0.0559  0.1348  0.4036
15019W        W31866   3.343   6.013  12.374  0.0282 -0.3023 -0.0068
15020W        W31867   3.143   7.137   2.407  0.0713 -0.2600  0.1561
15021W        W31868   1.182   6.692  14.251 -0.2882 -0.2203  0.2244
15022W        W31869   7.056   6.741   4.825 -0.2341 -0.0167 -0.0839
15023W        W31870   1.992   7.283  16.438  0.1174 -0.2128 -0.0107
15024W        W31871   7.029   8.122   4.703  0.0311  0.1259  0.1039
15025W        W31872  17.178   9.783   5.686  0.0628  0.2198  0.0118
15026W        W31873  11.184   4.685   4.851  0.0929  0.0134  0.3018
15027W        W31874  12.084  12.815  16.771 -0.0548  0.0924  0.1142
15028W        W31875  16.987   2.085  11.682 -0.3787 -0.2089 -0.1829
15029W        W31876   2.534  11.167  12.220 -0.0441 -0.1072 -0.0266
15030W        W31877   9.414   0.412  12.403 -0.1000 -0.2681  0.1010
15031W        W31878  16.687   2.981   0.535  0.0413 -0.1510 -0.0047
15032W        W31879  11.831   6.754   1.595 -0.0046 -0.0169 -0.3107
15033W        W31880  14.625   1.593   5.189  0.0198 -0.0305 -0.0387
15034W        W31881  17.325   5.161   4.190  0.2495  0.1066  0.0923
15035W        W31882   2.463   1.424  16.452 -0.1224 -0.3780  0.0636
15036W        W31883   0.088   2.523   2.912  0.0820 -0.1656  0.2091
15037W        W31884   7.438  10.917   0.811  0.0643 -0.0574 -0.0056
15038W        W31885  13.225   2.955   5.110  0.2166  0.0344  0.3210
15039W        W31886   4.666  15.981  13.231  0.1081  0.2309 -0.2321
15040W        W31887  11.881   0.292   1.327 -0.0311  0.0594 -0.1819
15041W        W31888  17.056   0.217   1.223 -0.0978  0.1002 -0.0885
15042W        W31889  14.961   3.784  12.199  0.0755  0.0338 -0.0996
15043W        W31890   1.700  10.108   4.341 -0.1354  0.1619 -0.1872
15044W        W31891   6.456   1.284  16.451 -0.0075 -0.0643 -0.0511
15045W        W31892   5.902   4.626  14.689 -0.1693 -0.0752 -0.2499
15046W        W31893   0.569  10.102   2.397 -0.2583 -0.1000 -0.0284
15047W        W31894   0.335  11.125  11.777  0.3534 -0.2694  0.0823
15048W        W31895   1.911   7.558  12.178 -0.0834 -0.0541 -0.2948
15049W        W31896   0.809  16.991  11.789  0.0601  0.0447 -0.1713
15050W        W31897   1.548  11.319  12.283 -0.0684 -0.5932  0.0560
15051W        W31898  12.156   9.410  11.817 -0.0949 -0.1565  0.0620
15052W        W31899   0.529   9.384   0.020  0.1500 -0.1881  0.1754
15053W        W31900   9.635  12.383  15.048 -0.0020 -0.0397  0.0496
15054W        W31901   4.214   9.142  13.129  0.0136  0.0772 -0.0199
15055W        W31902   0.891   5.825   1.549  0.0510 -0.3498  0.0284
15056W        W31903   8.838  14.150  16.067  0.0738 -0.1337  0.0068
15057W        W31904   6.511   7.519   3.899  0.2929 -0.1630 -0.1728
15058W        W31905  11.686   4.697  13.880  0.0133  0.0366 -0.2130
15059W        W31906  13.844  13.807  13.648  0.1389 -0.1891  0.2819
15060W        W31907  15.680   2.678   1.168  0.0600 -0.2784 -0.1608
15061W        W31908   8.603   1.411  11.633 -0.0396  0.0282 -0.2506
15062W        W31909  13.504   7.850  12.428  0.1173 -0.0268 -0.0182
15063W        W31910  11.400  16.141  13.884 -0.3347  0.0078  0.0530
15064W        W31911  12.487   0.759  12.360 -0.2471  0.3719 -0.1784
15065W        W31912   0.546  15.734   3.154  0.0290  0.1864  0.0184
15066W        W31913  15.721  12.157  12.570 -0.0558  0.1783  0.0561
15067W        W31914  11.235   3.725   1.188 -0.1062  0.0232 -0.0954
15068W        W31915   9.477   1.375   1.968 -0.1321  0.3882 -0.2733
15069W        W31916   0.686  14.296  12.244 -0.0422 -0.2047 -0.0099
15070W        W31917   0.104   0.783  14.761  0.0275 -0.1031  0.0397
15071W        W31918   4.637  16.784  15.569  0.2224  0.1450  0.2503
15072W        W31919  16.725  14.928  12.829 -0.2910  0.2444 -0.0146
15073W        W31920   5.079  13.959   2.711  0.0031 -0.0613 -0.3180
15074W        W31921   4.802  15.925   3.224  0.0100 -0.0937 -0.1208
15075W        W31922  15.366  10.370   2.399 -0.0426 -0.0180  0.0881
15076W        W31923   1.249   7.403   2.776  0.1920 -0.2156  0.3059
15077W        W31924   0.415  17.873  12.049  0.0151 -0.1320 -0.0069
15078W        W31925   9.551   5.553   1.070  0.2094 -0.2535 -0.0345
15079W        W31926  17.080   7.119  15.091 -0.2630 -0.1897 -0.1864
15080W        W31927   0.077  15.287  15.018  0.2892  0.3152 -0.1910
15081W        W31928   7.747  16.845   2.757  0.0202 -0.0825 -0.4405
15082W        W31929   3.614  15.593  11.935  0.0834 -0.0185  0.1241
15083W        W31930  11.128   5.996   4.128  0.1243  0.0234  0.2980
15084W        W31931  10.408  13.490  14.594 -0.1498 -0.0203  0.0703
15085W        W31932   4.340  15.608  14.772  0.2973  0.1504  0.2151
15086W        W31933   1.925   0.978  14.361  0.1576  0.0572 -0.0118
15087W        W31934  16.328  15.028   1.497  0.2485  0.0323 -0.2258
15088W        W31935  12.339   5.941   1.796  0.1176 -0.1139 -0.0822
15089W        W31936  10.918  15.755  11.862  0.0156  0.0352  0.2399
15090W        W31937   1.478   5.961   2.876 -0.2252  0.2392 -0.1796
15091W        W31938  16.795  17.104  13.383  0.0691  0.2064 -0.1151
15092W        W31939   2.918  10.072   1.784 -0.0128  0.1721 -0.1410
15093W        W31940   9.524   9.684   3.618 -0.1797 -0.1110  0.2836
15094W        W31941   4.669   9.348  13.264 -0.0924 -0.1752  0.0864
15095W        W31942  13.515   9.839  11.551 -0.0081 -0.0391 -0.3137
15096W        W31943   5.248   4.572  13.522 -0.1540 -0.2707  0.0364
15097W        W31944  11.745  11.372   5.295  0.1455 -0.0832  0.1413
15098W        W31945   0.610   1.372   4.020  0.1246 -0.3397 -0.0410
15099W        W31946   5.410  12.110  12.619 -0.3507  0.0296 -0.1598
15100W        W31947  17.842   3.976   1.401  0.0065  0.1086  0.1090
15101W        W31948   6.716   6.421   1.648  0.1416  0.0818  0.0717
15102W        W31949   1.558   8.580  13.865  0.0013 -0.1675  0.1116
15103W        W31950  14.699   9.319   4.264 -0.0124 -0.2013  0.2677
15104W        W31951  15.660  13.313  15.039 -0.2316 -0.1310 -0.0840
15105W        W31952  15.965   8.507  11.818  0.0241 -0.1152  0.1618
15106W        W31953  10.886   4.545  13.272 -0.0012 -0.0616 -0.1145
15107W        W31954   0.332  14.800  13.401 -0.2872 -0.0396 -0.0857
15108W        W31955  11.304  14.492  12.465  0.0863  0.3641 -0.1650
15109W        W31956  17.710  13.420   1.184  0.1828  0.0655 -0.2207
15110W        W31957  14.079  13.491  15.460 -0.2925  0.3353  0.0336
15111W        W31958  14.100   6.509   3.750  0.0951 -0.2484  0.1869
15112W        W31959  17.042   3.003   0.921 -0.3926 -0.1422  0.0295
15113W        W31960  11.839  11.308   1.108  0.0313  0.2756 -0.1158
15114W        W31961   0.388  16.481  15.856 -0.0358  0.1431 -0.0306
15115W        W31962  14.370  17.754   0.143  0.0946  0.3580  0.1655
15116W        W31963  15.014   1.284   5.645 -0.1157 -0.0819  0.0682
15117W        W31964  15.140   4.920   4.768 -0.1178  0.1889  0.2438
15118W        W31965  15.739  15.459   3.673  0.0776 -0.2087  0.2052
15119W        W31966  10.099  12.335  15.901 -0.0178  0.0593  0.1440
15120W        W31967   6.286   1.145   5.120  0.3574  0.0834 -0.0757
15121W        W31968  11.332   4.924   1.376 -0.0435 -0.1048  0.0912
15122W        W31969   1.252  11.985  14.505  0.0279 -0.0601 -0.0464
15123W        W31970   1.472  14.781  11.892 -0.0206 -0.1319 -0.3392
15124W        W31971  15.710   3.574   0.910 -0.1068 -0.4124  0.1308
15125W        W31972  14.554  12.236   4.562 -0.0777  0.0002  0.2763
15126W        W31973  13.417   8.041  14.781 -0.1326 -0.0593 -0.0118
15127W        W31974  10.779  11.101   3.988 -0.1159  0.0699  0.0803
15128W        W31975  11.311  12.218  13.587 -0.2810 -0.1482 -0.0029
15129W        W31976   8.282  12.767   0.885 -0.1762  0.1375 -0.0175
15130W        W31977   2.214   4.463  16.258 -0.2082  0.0418 -0.1467
15131W        W31978  11.839  17.380   1.942 -0.0538  0.1088  0.1207
15132W        W31979   8.821   3.655   3.756  0.0258 -0.1812  0.3266
15133W        W31980   7.476   1.246  11.086  0.1437  0.1862  0.0645
15134W        W31981  17.550  15.374   2.486  0.1414 -0.0910 -0.0624
15135W        W31982  15.378  16.971   0.869 -0.0822  0.0645  0.3530
15136W        W31983   1.425   9.420   3.603 -0.2825  0.1676 -0.0908
15137W        W31984  16.590   6.492  15.026 -0.0182 -0.1315 -0.1206
15138W        W31985   4.421  12.826   4.116  0.2311  0.0633  0.2019
15139W        W31986  11.168  15.602  16.152 -0.1174  0.1579 -0.0125
15140W        W31987   5.606   1.682   3.639 -0.1761 -0.1432 -0.0710
15141W        W31988   0.783   5.864   4.773 -0.2349  0.1918  0.1476
15142W        W31989  10.646  13.371   2.369 -0.1696  0.3641  0.1356
15143W        W31990  17.375   9.800  16.009 -0.1005  0.0650 -0.0452
15144W        W31991   3.771  14.202   5.340 -0.2041 -0.0387 -0.3690
15145W        W31992  12.471   9.932   4.755 -0.0763 -0.0314  0.0966
15146W        W31993  15.281   1.996  16.314 -0.1451  0.4096 -0.1295
15147W        W31994   1.912   9.465  15.749 -0.4507 -0.0885 -0.3310
15148W        W31995   2.048  10.434  14.581 -0.5727  0.2054 -0.0331
15149W        W31996  12.491   6.924  11.647 -0.0134  0.2401  0.0251
15150W        W31997  14.831   5.937  14.520  0.3738 -0.0976 -0.0484
15151W        W31998  15.114   3.197  13.713 -0.3237  0.2423  0.0401
15152W        W31999  12.213   1.994  11.785 -0.0301  0.2991 -0.0198
15153W        W32000   5.242   4.744   2.007 -0.0971 -0.1556  0.0105
15154W        W32001  14.790   6.824   0.340 -0.0017  0.1280 -0.1301
15155W        W32002   1.726  13.355   2.123  0.1351 -0.2016 -0.0914
15156W        W32003  12.665  12.865   2.111  0.2885 -0.0086  0.1666
15157W        W32004   7.358   5.029  13.543 -0.0523  0.0228  0.4077
15158W        W32005   8.864   4.184  15.097 -0.0786  0.0328  0.0037
15159W        W32006   8.145  16.256  11.482  0.1812  0.1156  0.2772
15160W        W32007  15.438  17.888  13.450 -0.0236  0.3366 -0.4418
15161W        W32008   0.440  10.634  12.896  0.1011  0.0104 -0.4981
15162W        W32009  15.004  12.380  12.061 -0.1775 -0.3790 -0.2442
15163W        W32010   7.726   1.871  15.526  0.0292 -0.1355 -0.2505
15164W        W32011  16.655  17.800  11.865 -0.2189  0.0015  0.0988
15165W        W32012   6.561  17.939   4.113  0.1115  0.2920 -0.1737
15166W        W32013   8.216   8.780   1.691 -0.2036  0.1096  0.2713
15167W        W32014   2.251  12.156  13.506 -0.0295  0.3251 -0.2956
15168W        W32015   4.404  11.912   1.266 -0.3549 -0.0106 -0.3184
15169W        W32016   3.873  10.131   2.921 -0.3782  0.1757  0.1131
15170W        W32017   6.244   1.604   2.393  0.3899  0.2925 -0.1732
15171W        W32018   3.173   0.202   1.652 -0.2642  0.1304 -0.1456
15172W        W32019   0.888  10.865  12.973 -0.0648 -0.1232 -0.3564
15173W        W32020  11.956   4.080  13.306  0.0966  0.2801  0.1788
15174W        W32021   9.704  13.713  16.368  0.0438  0.0338 -0.0537
15175W        W32022  12.203   1.878  16.657  0.0807 -0.1843  0.1531
15176W        W32023   7.418  17.155   0.591 -0.0883  0.0470 -0.0073
15177W        W32024  16.453   0.682  14.044 -0.1803 -0.1445 -0.2981
15178W        W32025   0.662   0.884   2.206 -0.0287 -0.1690 -0.0754
15179W        W32026  14.448  15.146  16.521 -0.1285  0.1003 -0.1341
15180W        W32027  14.368  14.531  12.516 -0.2501  0.0801 -0.4535
15181W        W32028  13.123   6.746  14.550  0.1180  0.3818 -0.0733
15182W        W32029   0.136   0.982   2.130  0.0457 -0.1838  0.1950
15183W        W32030  11.380  16.577   5.886 -0.2285 -0.1496  0.1322
15184W        W32031   2.248  10.856   3.128  0.0306  0.0004 -0.0350
15185W        W32032   5.540  16.512  11.789  0.0220  0.1099 -0.1498
15186W        W32033   1.372   8.828  11.790  0.0637  0.0891 -0.1937
15187W        W32034   5.841   0.318  12.796  0.1878 -0.0819 -0.1431
15188W        W32035   3.209  16.303  15.330  0.0924  0.2280 -0.3010
15189W        W32036   3.144   9.296  14.010 -0.1795 -0.0849 -0.0289
15190W        W32037   8.684  16.446   3.570  0.1304 -0.1056  0.0640
15191W        W32038   7.849  15.066  12.500 -0.4045 -0.0504  0.1304
15192W        W32039   2.925   2.440  12.455  0.2061  0.1204 -0.0006
15193W        W32040   6.096   5.399  14.101 -0.0979 -0.1877 -0.0822
15194W        W32041  17.850   7.297   0.280  0.0900  0.0983 -0.1141
15195W        W32042  16.215  12.128   2.796 -0.1150 -0.2089 -0.1485
15196W        W32043  16.050  15.018   4.152  0.0745  0.0895 -0.3242
15197W        W32044   5.953   6.450   5.972 -0.0806  0.1063 -0.0742
15198W        W32045  16.648  13.358  11.986  0.1856  0.3185 -0.0669
15199W        W32046   3.732  16.896  15.794  0.3044  0.1715  0.0192
15200W        W32047  13.129  16.698  13.325  0.4306 -0.2068  0.1504
15201W        W32048   3.152  10.590  14.169  0.1069  0.2177  0.0864
15202W        W32049   1.194  14.855   5.540  0.1672 -0.1179 -0.0103
15203W        W32050  12.283  16.491   0.468  0.1182 -0.0172 -0.0075
15204W        W32051   0.700   5.227   3.206 -0.0304  0.0926 -0.0742
15205W        W32052  14.088  15.264  14.665  0.1639  0.2289  0.1287
15206W        W32053  13.391  10.624   1.722 -0.0319  0.0839  0.0993
15207W        W32054  10.279   6.021  15.301  0.1340 -0.1829  0.3694
15208W        W32055   8.959  14.589   3.372 -0.2345  0.0675 -0.3338
15209W        W32056  12.042  13.903   4.822 -0.0345  0.0112  0.1653
15210W        W32057  17.160   8.011  11.947 -0.1713  0.0096 -0.1806
15211W        W32058   3.765  16.347  14.698 -0.2323  0.0162 -0.4219
15212W        W32059   7.375   0.496  14.418 -0.3576  0.1438 -0.0013
15213W        W32060  10.281   6.519   2.300 -0.2487 -0.0939 -0.0089
15214W        W32061   6.168   9.621   1.811 -0.0354 -0.2077  0.0905
15215W        W32062  10.142  12.205   4.928  0.0598  0.0516  0.1632
15216W        W32063   5.976   0.592   2.980  0.0669  0.2232  0.0197
15217W        W32064   7.614  12.559  16.270  0.0266 -0.1222 -0.4184
15218W        W32065   0.160   3.985   0.169  0.0548 -0.1028 -0.2379
15219W        W32066   2.494  10.843   1.294  0.1552  0.1161 -0.1357
15220W        W32067  17.470   1.625  12.736 -0.3112  0.2101  0.0614
15221W        W32068   2.159  13.383  16.426 -0.0176 -0.0481  0.1015
15222W        W32069   5.348  12.224  13.250  0.1960  0.0570 -0.1630
15223W        W32070  10.830  12.007  12.777 -0.1681 -0.0873 -0.2107
15224W        W32071  16.364  16.988   6.488 -0.0715  0.0372  0.2225
15225W        W32072   9.323  10.810   4.787  0.2452  0.1514  0.1219
15226W        W32073   7.168   8.106   5.575 -0.1191 -0.0611  0.1083
15227W        W32074   5.946   6.817   4.217  0.1285 -0.0844  0.2923
15228W        W32075  10.039  16.999  16.729  0.1213  0.0077 -0.2240
15229W        W32076   2.519   8.786   3.520 -0.0631  0.0194 -0.1839
15230W        W32077  15.950  12.064  14.320  0.2332 -0.0207 -0.2721
15231W        W32078  14.069   4.227   0.750  0.0620  0.1901  0.1609
15232W        W32079   6.578   7.025   5.159 -0.0792  0.1266 -0.3332
15233W        W32080   0.672  11.415  15.377 -0.2180 -0.1353 -0.2527
15234W        W32081  17.868  14.218  13.333  0.0640 -0.2932 -0.1438
15235W        W32082   7.245   9.350  13.399 -0.2061 -0.1277  0.0823
15236W        W32083  12.306   4.468  10.521  0.0678  0.1095 -0.3390
15237W        W32084   3.972   5.250  16.090  0.1994 -0.0441 -0.3063
15238W        W32085  13.154   1.528  16.648 -0.0011  0.0822 -0.3052
15239W        W32086  15.959  13.864  12.170  0.0381  0.0026 -0.1046
15240W        W32087   2.695  13.078   1.792 -0.0885 -0.0061 -0.2493
15241W        W32088  14.561   0.986  12.389 -0.0192 -0.0302 -0.1727
15242W        W32089  12.166  10.444   0.184  0.4631 -0.0104 -0.0049
15243W        W32090   7.126  12.072   5.451  0.2445 -0.2576  0.0260
15244W        W32091  12.481   3.043  15.978  0.0702  0.1669 -0.3076
15245W        W32092   2.863   6.197   4.456 -0.0585 -0.0139 -0.1964
15246W        W32093   3.808   0.606  14.510 -0.0101  0.1700 -0.1827
15247W        W32094   1.941  16.343   0.715 -0.0415 -0.1856  0.0402
15248W        W32095   7.240   5.335   0.920 -0.2042 -0.0026  0.0091
15249W        W32096   5.405  12.997  15.606 -0.1580 -0.0232  0.3204
15250W        W32097   1.441   2.964  12.805  0.1100 -0.0942  0.1494
15251W        W32098   2.925  12.273  15.618 -0.0523 -0.0940 -0.1655
15252W        W32099  16.058  12.689   5.394  0.1370  0.0282  0.3488
15253W        W32100  10.587   9.804   0.113  0.1754  0.1125  0.0508
15254W        W32101  14.949  13.565  15.274 -0.0884 -0.2835  0.3827
15255W        W32102   4.026  11.684  15.644 -0.0228 -0.0603  0.0725
15256W        W32103  13.808   5.308   4.869 -0.0707  0.1723 -0.0354
15257W        W32104  12.473  16.868   2.392  0.0450  0.0960 -0.1027
15258W        W32105   6.075  13.180   3.889  0.2343 -0.0543  0.0435
15259W        W32106  13.423   1.919   1.411 -0.3574  0.2776 -0.1901
15260W        W32107  16.278  12.302  16.697 -0.0146  0.1918  0.1472
15261W        W32108   3.199   3.528   2.186  0.3158 -0.0711  0.1129
15262W        W32109   6.192   6.379   5.256  0.0864  0.2580  0.5031
15263W        W32110  15.132  16.386   6.241 -0.2422  0.0567  0.0857
15264W        W32111  13.351  11.160   4.227  0.0154 -0.0344 -0.3051
15265W        W32112  10.582  11.534  15.241 -0.2391 -0.1014 -0.2942
15266W        W32113   3.336   9.049  12.367  0.0260  0.1114  0.1712
15267W        W32114   0.823   1.764  16.084  0.0593 -0.1965  0.0527
15268W        W32115  10.547  11.436  16.478  0.0399  0.0280 -0.0183
15269W        W32116  16.135   2.584  15.256  0.2763  0.1602  0.2799
15270W        W32117   9.547  15.257   4.132  0.0144  0.0955  0.1718
15271W        W32118  14.444   0.400  15.125 -0.0350 -0.0395 -0.1195
15272W        W32119  16.558   0.437  16.483  0.1638  0.0420  0.0678
15273W        W32120  13.550  14.277  13.257 -0.0497  0.0736 -0.0872
15274W        W32121   5.997  14.524   5.097 -0.0495  0.1089 -0.1103
15275W        W32122  12.401   0.176  16.699 -0.1369  0.4153  0.4237
15276W        W32123   4.304   6.542  11.902 -0.2002  0.1932  0.0731
15277W        W32124   1.483   3.493  15.480  0.2900 -0.1276  0.1292
15278W        W32125   3.194  10.236   0.519  0.0055 -0.0902 -0.0971
15279W        W32126   9.795  10.444   2.656 -0.1215 -0.2263  0.0069
15280W        W32127   2.746  12.325  12.793 -0.1007 -0.1322 -0.0880
15281W        W32128  16.005   2.631   5.608 -0.1099 -0.0521 -0.0536
15282W        W32129   4.515   9.951  14.065  0.1184 -0.0213 -0.3847
15283W        W32130   4.258  15.480   3.131  0.1533  0.0484  0.0519
15284W        W32131   9.407  17.832  11.462 -0.2222  0.0159 -0.2643
15285W        W32132  10.453  10.455  16.391  0.3207  0.0426  0.0185
15286W        W32133  13.067  12.618   0.103 -0.2168  0.1139 -0.0998
15287W        W32134   9.156   3.657  12.801  0.2053 -0.3636 -0.2481
15288W        W32135  15.378  14.245   3.982  0.4131  0.4591 -0.0810
15289W        W32136   2.573  17.208   1.021 -0.1344 -0.0472 -0.2273
15290W        W32137   8.254  12.858  15.203 -0.1117 -0.2377 -0.1344
15291W        W32138  13.807  13.176   1.898  0.1080 -0.0988 -0.1617
15292W        W32139   4.888   1.113   3.206 -0.0175 -0.2455 -0.0159
15293W        W32140   9.630   9.033   0.279  0.3570 -0.0941  0.4317
15294W        W32141  17.800   4.446   4.229  0.1275  0.0134  0.0819
15295W        W32142  17.542   1.240   2.567  0.1582 -0.0496  0.0083
15296W        W32143  16.920   6.156   3.800  0.0480  0.2516  0.1453
15297W        W32144  17.923  10.876  15.600  0.1828  0.2433  0.1743
15298W        W32145   3.802  12.946   5.827 -0.1396 -0.0830 -0.4154
15299W        W32146   7.785  14.788   4.272  0.0637 -0.0166  0.0948
15300W        W32147   8.230   5.775   2.549  0.1531 -0.0668  0.0640
15301W        W32148   3.251  17.804  16.200 -0.0615 -0.3261  0.1581
15302W        W32149   8.993   1.332  15.766 -0.1246 -0.1723  0.1147
15303W        W32150   3.835   8.972  14.597 -0.1279 -0.2493  0.1691
15304W        W32151   2.401  14.555   6.059 -0.0067 -0.2009 -0.0229
15305W        W32152  10.965  11.351   0.606 -0.2211  0.1408  0.1277
15306W        W32153  13.761   2.721   4.394  0.1676 -0.1370 -0.0266
15307W        W32154  11.037  17.211  14.020 -0.1725  0.0723  0.5324
15308W        W32155   2.108   1.782  16.304  0.1778 -0.1733 -0.0030
15309W        W32156   8.599  11.357   2.569 -0.0040  0.2190 -0.0906
15310W        W32157   2.985  16.398  14.517 -0.0668  0.2509  0.1502
15311W        W32158   0.022  12.606  13.993 -0.0631 -0.3061 -0.1296
15312W        W32159  13.503  17.218  12.653 -0.0691 -0.0687 -0.1947
15313W        W32160   8.181  14.526   3.000  0.1451 -0.2783 -0.1453
15314W        W32161  14.592  15.177  14.873 -0.0442 -0.1604 -0.2514
15315W        W32162  17.603  17.221  14.594  0.1696 -0.2304  0.1194
15316W        W32163   2.576   1.288   2.716  0.3641  0.0074  0.1874
15317W        W32164  14.472  15.917   3.416  0.2226 -0.1894 -0.3416
15318W        W32165   5.178   8.922   3.382 -0.0114 -0.0057 -0.1268
15319W        W32166  15.251  17.455   3.418 -0.1308 -0.0628  0.2008
15320W        W32167  15.017   9.210  13.454  0.1130  0.0547  0.1503
15321W        W32168  16.154  12.225  13.411  0.1600 -0.1362  0.1837
15322W        W32169   1.278  10.871   0.255 -0.1562 -0.0813 -0.2175
15323W        W32170   7.119   3.379  11.005  0.1852 -0.2596  0.0144
15324W        W32171  15.139   5.674   3.563 -0.1309 -0.1068 -0.1201
15325W        W32172   5.937  12.368   1.797 -0.4259 -0.1070 -0.5002
15326W        W32173  16.757  13.265   2.036  0.1278  0.0339 -0.1707
15327W        W32174  16.279   8.631  13.231  0.1332  0.2028  0.2071
15328W        W32175   2.379   8.184  16.425 -0.0096  0.2201 -0.1408
15329W        W32176   6.588   5.650  16.452 -0.0631  0.0761  0.2349
15330W        W32177  12.862  15.969   1.058 -0.0780 -0.0946  0.0447
15331W        W32178  11.509   5.939   4.998  0.2504 -0.1973  0.2631
15332W        W32179   6.514  12.430   1.610 -0.0529 -0.2953 -0.1058
15333W        W32180   4.408   7.930   2.759  0.1379 -0.2978 -0.1011
15334W        W32181  17.945  17.737   2.416  0.2315 -0.1535  0.0364
15335W        W32182   1.380  13.433   4.636 -0.2427 -0.3432  0.2319
15336W        W32183   9.926   2.164  15.248  0.2464  0.0154  0.1063
15337W        W32184  15.355   3.774  15.177 -0.2940 -0.1467 -0.0230
15338W        W32185  16.195   3.954  14.307 -0.1155 -0.0467  0.2233
15339W        W32186   6.859   0.625  15.062 -0.1084 -0.1640  0.0843
15340W        W32187  14.429   9.160  16.241 -0.2059  0.1895 -0.3000
15341W        W32188  10.881  16.359   1.836  0.0512 -0.3958  0.2378
15342W        W32189  11.128  17.100  15.030  0.0282 -0.0843 -0.1395
15343W        W32190  16.917  13.010   4.423  0.1803 -0.1592 -0.2085
15344W        W32191   8.614   2.745  12.068 -0.1732 -0.1481 -0.3139
15345W        W32192   1.765  12.220  13.403 -0.1961  0.0596 -0.2037
15346W        W32193  15.528  17.771   4.231 -0.0645  0.1790 -0.0781
15347W        W32194   4.216   5.548   5.923 -0.2000  0.0471  0.0714
15348W        W32195  16.586  14.194  14.829 -0.0575  0.2221  0.1993
15349W        W32196   1.334   0.760   3.705  0.1844  0.1061 -0.1949
15350W        W32197  15.321   2.681  11.224  0.0300  0.0496  0.0156
15351W        W32198  12.043   8.157   3.856  0.0339  0.0911 -0.0867
15352W        W32199   3.520  14.055   4.208 -0.1378  0.3296 -0.2685
15353W        W32200   7.268   2.815  15.728 -0.3971  0.1106 -0.0182
15354W        W32201  16.900  14.534   3.872  0.0947  0.0479  0.1094
15355W        W32202  17.471   2.716  16.788 -0.0966  0.1030  0.1372
15356W        W32203   8.915   2.009   2.513 -0.0641  0.2079  0.1965
15357W        W32204   3.439   0.672   1.606  0.1867  0.1558 -0.0931
15358W        W32205  16.854   2.550  11.832 -0.1088  0.0436  0.1557
15359W        W32206   3.405   2.303   3.261 -0.0012 -0.0502 -0.0793
15360W        W32207   8.773   4.723  12.625  0.0950 -0.0984  0.1037
15361W        W32208   9.972   7.503  14.804 -0.0502  0.2322 -0.0269
15362W        W32209  17.217  15.270   0.817 -0.1195  0.2704  0.3595
15363W        W32210   0.916  13.852  12.007 -0.2328  0.0251  0.2452
15364W        W32211  13.857   9.601   6.130  0.0060  0.1109 -0.2734
15365W        W32212  11.212   5.184   5.102 -0.0784  0.2428 -0.1241
15366W        W32213  12.834  17.798   3.394 -0.0137  0.0360 -0.2676
15367W        W32214  15.707   7.745   5.870 -0.0080 -0.0278 -0.0462
15368W        W32215   6.856  17.101   0.728  0.4866 -0.4945 -0.0736
15369W        W32216   7.146  17.442   0.950  0.1475 -0.3975  0.1399
15370W        W32217   1.680  15.573  16.141  0.0464  0.1594  0.2606
15371W        W32218   6.757   4.225   0.988  0.1725 -0.0541  0.2189
15372W        W32219   1.990   0.594   1.657 -0.0105 -0.0721 -0.0560
15373W        W32220  14.905  17.936  14.537  0.1549  0.3306 -0.0060
15374W        W32221   7.705  12.178   0.826  0.3526 -0.2500 -0.2586
15375W        W32222   4.702  14.856  13.027  0.2158 -0.1119 -0.1705
15376W        W32223   7.546   7.696  16.313  0.1808  0.1974  0.0178
15377W        W32224   5.072  12.350   5.860  0.0063  0.0294  0.4498
15378W        W32225   0.338  11.659   1.200 -0.0409  0.0067  0.0055
15379W        W32226   7.659   7.253  16.508 -0.1331  0.2018 -0.0229
15380W        W32227  15.366  13.272  15.502 -0.0667 -0.2251 -0.2305
15381W        W32228  17.917  16.173  13.147 -0.1785  0.0558 -0.0889
15382W        W32229   0.558   4.124   4.518 -0.1278 -0.1699  0.3863
15383W        W32230   3.821   4.964  11.518  0.1140  0.0451 -0.2114
15384W        W32231  16.386  13.405   1.701  0.0655  0.2530  0.2390
15385W        W32232   1.880  16.735  13.796  0.0103 -0.1740 -0.0659
15386W        W32233   0.367   7.151   4.690 -0.2683  0.2238  0.0787
15387W        W32234   7.001  16.201   3.592 -0.3262 -0.6902 -0.0450
15388W        W32235  15.407   9.023  16.154 -0.1906  0.2017 -0.2095
15389W        W32236  13.877   5.128  11.846 -0.0318 -0.4411 -0.0146
15390W        W32237  12.201  13.628   3.231 -0.1807 -0.0211  0.2272
15391W        W32238  16.870  17.074   1.728 -0.1711  0.2305  0.0503
15392W        W32239   5.638   7.490   2.132  0.0129  0.2013  0.0260
15393W        W32240   0.818  16.516  15.638 -0.0145  0.0929 -0.1741
15394W        W32241   4.070   0.839  13.575  0.0369  0.0428  0.1655
15395W        W32242  11.360  17.875   0.730 -0.1260 -0.0312  0.1619
15396W        W32243   4.285   5.442   4.103  0.1950 -0.1192 -0.1333
15397W        W32244  14.602   5.654  16.437  0.0852 -0.0305 -0.0074
15398W        W32245   2.085   9.470  14.830  0.0633 -0.2494  0.1526
15399W        W32246   4.996  11.115   2.678 -0.1937 -0.0043  0.0805
15400W        W32247   7.244   5.644   4.531 -0.2008  0.0350  0.0044
15401W        W32248   1.505  12.361  16.146 -0.1210 -0.0414 -0.2593
15402W        W32249   3.654  10.416  13.276  0.0698 -0.0813 -0.1482
15403W        W32250   9.486   0.012  16.262  0.0928  0.0330  0.0781
15404W        W32251   9.152  13.739  15.414  0.0090 -0.1792  0.1175
15405W        W32252  12.249  17.141  15.324 -0.0340  0.0014  0.1282
15406W        W32253   3.026   2.419  16.342 -0.0402 -0.2546 -0.1037
15407W        W32254   8.929   4.960  13.621  0.2179 -0.0222  0.1781
15408W        W32255  10.328   3.398   1.312 -0.2059 -0.1624  0.1601
15409W        W32256   2.823  12.365  16.474  0.3140  0.0150  0.2660
15410W        W32257   9.148   1.291  16.759 -0.1498 -0.0008  0.2368
15411W        W32258  11.367   2.517   6.009  0.2548  0.1324 -0.2769
15412W        W32259  10.125   6.110   0.774  0.3317  0.1226 -0.2091
15413W        W32260  13.415   5.111   1.782  0.0975 -0.0643  0.0626
15414W        W32261   9.868  17.158  12.466  0.1729 -0.0527  0.0277
15415W        W32262   3.469   5.720  12.850  0.0810  0.0349  0.1657
15416W        W32263  14.165   1.512  10.456 -0.1718  0.1677 -0.0610
15417W        W32264  16.525  11.253  15.171  0.0058  0.0223  0.2704
15418W        W32265   6.403   3.185   2.874  0.1462  0.2099  0.0585
15419W        W32266   4.002   1.438  16.590  0.0406 -0.0515 -0.0747
15420W        W32267  17.327   4.165   1.561  0.2091 -0.1492  0.1212
15421W        W32268   5.182   2.882   2.866  0.1549  0.0585 -0.1151
15422W        W32269  17.076  17.756  14.950  0.0820 -0.0231  0.1804
15423W        W32270  15.320  14.566   2.467  0.0510  0.2568  0.0071
15424W        W32271  14.970  14.827   1.040 -0.0275 -0.0005 -0.2054
15425W        W32272   5.552  14.238  14.143  0.0745 -0.2550 -0.2702
15426W        W32273   3.802   8.896   3.903 -0.1119 -0.0067  0.2352
15427W        W32274   3.149  11.583   4.144 -0.1567 -0.1995 -0.1909
15428W        W32275  17.076  13.607  16.021  0.0274 -0.1116 -0.2172
15429W        W32276  14.560  14.131   3.506 -0.0381 -0.1163 -0.1221
15430W        W32277  12.727   8.643  15.332 -0.0945 -0.0706 -0.0595
15431W        W32278  10.921  10.067  12.235 -0.0366  0.0357  0.3480
15432W        W32279   3.802  14.795  12.565  0.2267  0.0059  0.0101
15433W        W32280  10.827  16.833  11.797 -0.1412 -0.0744 -0.0315
15434W        W32281  16.299   8.483   1.582  0.0233 -0.0457  0.2557
15435W        W32282   0.400   4.804  12.580 -0.1147 -0.0680 -0.3885
15436W        W32283   1.227  15.782   3.715  0.1611 -0.3012  0.2170
15437W        W32284  14.623  17.498   1.214  0.1947 -0.3254 -0.1498
15438W        W32285  15.422  17.451   0.727  0.0888  0.0094 -0.1707
15439W        W32286   2.947  17.669  15.363 -0.0165  0.2582 -0.1684
15440W        W32287  15.334  11.922   5.230 -0.0827 -0.0232  0.0573
15441W        W32288  17.929   7.828  14.352  0.1337  0.0549 -0.1096
15442W        W32289   7.515   1.156  15.054  0.1051  0.1912  0.0671
15443W        W32290  12.531   7.845  12.947  0.1629  0.0723 -0.1422
15444W        W32291   1.930  12.363  13.849  0.1742 -0.0336 -0.0628
15445W        W32292  11.540   5.686   3.202  0.1546  0.5339 -0.2578
15446W        W32293   7.270  11.471   0.961 -0.0715  0.2485  0.0392
15447W        W32294   9.437  16.647  16.239  0.2098 -0.1677  0.1696
15448W        W32295   5.934  14.528  14.360  0.1171  0.0108 -0.0107
15449W        W32296   9.169   0.004   3.368  0.0456 -0.0248  0.0611
15450W        W32297  11.152   0.647   3.572 -0.2709  0.3729 -0.6166
15451W        W32298  14.206  14.781   2.270  0.3075 -0.3044 -0.1065
15452W        W32299  15.788   2.965   2.410  0.0970 -0.1489 -0.3419
15453W        W32300   5.917  13.022  14.718  0.1562  0.1014 -0.2626
15454W        W32301  11.040  12.204   0.094 -0.0125 -0.3155 -0.2070
15455W        W32302   0.536  14.565  15.639 -0.0867  0.1426  0.1272
15456W        W32303  15.789   8.616   4.244 -0.1628 -0.1063 -0.2637
15457W        W32304  15.979   7.913  14.245 -0.2567 -0.2256  0.1086
15458W        W32305  16.541  10.402   0.864 -0.0045 -0.1546  0.1355
15459W        W32306  15.907  12.852  14.264  0.0256 -0.0029  0.0087
15460W        W32307   0.677   7.391  12.169 -0.1519 -0.0917  0.2123
15461W        W32308  10.838   6.964  12.224  0.2578 -0.4211  0.0305
15462W        W32309   2.515  14.731   0.945 -0.0602  0.3555  0.0201
15463W        W32310  12.025  13.548   2.741  0.1145 -0.0518  0.5090
15464W        W32311   8.344   8.906  14.846 -0.0063  0.1183  0.1526
15465W        W32312   8.337  11.460  15.973  0.3480  0.1061  0.2834
15466W        W32313  10.269   4.299   2.774 -0.0268 -0.0274  0.3619
15467W        W32314  14.103  15.753   1.615  0.3077  0.1669  0.1909
15468W        W32315   5.404   8.675  13.144  0.0993  0.2794  0.1094
15469W        W32316  16.550   8.154   1.111  0.0546 -0.1028 -0.3301
15470W        W32317  17.708  13.996   4.489 -0.0066 -0.1306 -0.5830
15471W        W32318  13.074   3.391  16.471 -0.2285  0.2026  0.1748
15472W        W32319   2.394  13.767   5.399  0.0413 -0.1059 -0.0257
15473W        W32320  10.665   6.488   5.147  0.0580  0.0458  0.0969
15474W        W32321  10.999   9.418   4.402 -0.0296  0.1630  0.2098
15475W        W32322   0.439   5.957  14.205 -0.2918 -0.1638 -0.0296
15476W        W32323   0.544  10.088   4.542  0.1775 -0.1281  0.1625
15477W        W32324  14.530   9.192   5.296  0.0763 -0.0628 -0.0924
15478W        W32325   2.343   3.017   0.199  0.0141 -0.0569  0.0418
15479W        W32326  13.083  13.197  11.752  0.1203  0.2306 -0.1587
15480W        W32327   3.269  15.912  11.075 -0.0390  0.1147 -0.2137
15481W        W32328  15.015  10.708   4.831 -0.1325 -0.1117  0.2697
15482W        W32329  13.070  17.259  12.380 -0.3323 -0.2369  0.1982
15483W        W32330   9.135   7.620  15.632 -0.1390 -0.2830 -0.0057
15484W        W32331   9.990   1.174  16.049 -0.0223  0.2526  0.1492
15485W        W32332  12.102   7.515  14.308 -0.2508  0.0344  0.2775
15486W        W32333  17.925   8.190   0.041  0.1988  0.0516  0.1339
15487W        W32334   1.595   3.072   2.428 -0.2013 -0.0013  0.0996
15488W        W32335  12.492   4.916   0.399 -0.1917 -0.0120  0.1643
15489W        W32336  14.600   1.935   3.457 -0.0919 -0.0203  0.1097
15490W        W32337   5.841   5.425   4.723  0.0886  0.0037  0.1377
15491W        W32338   7.696   5.819  14.555  0.1734 -0.2896  0.1072
15492W        W32339  12.107  10.056  13.506 -0.0877  0.1141 -0.2428
15493W        W32340  12.453   5.749  15.178 -0.1192 -0.0726  0.0969
15494W        W32341  14.644   3.081  15.323  0.0097 -0.4239 -0.0665
15495W        W32342  13.597   8.724   1.325 -0.1840 -0.0006  0.3117
15496W        W32343   0.745   8.407  14.600 -0.1551 -0.0899  0.1196
15497W        W32344  16.799  12.081  11.894 -0.0873  0.1272  0.2323
15498W        W32345  13.289   8.790  12.708  0.1521 -0.1304 -0.0749
15499W        W32346   4.939   6.698  14.223  0.0106 -0.0009  0.2244
15500W        W32347   9.784   6.947   0.609 -0.2269 -0.1169  0.2178
15501W        W32348  10.777  13.689   3.233 -0.1120  0.0582  0.1425
15502W        W32349   9.725   0.625   0.896 -0.4145 -0.0531 -0.1470
15503W        W32350   5.835   5.118  16.236 -0.0946 -0.2537 -0.2060
15504W        W32351  14.103  10.059   2.909  0.1605 -0.3967  0.3478
15505W        W32352   6.624   7.887  15.260 -0.0256 -0.0475 -0.0468
15506W        W32353   5.340   9.038  15.393  0.1817 -0.0761 -0.1499
15507W        W32354   0.896   8.876   5.318  0.0436  0.1318  0.1436
15508W        W32355   0.144   8.694  16.333 -0.5118  0.1055  0.0957
15509W        W32356  11.628  17.152  12.233 -0.3285  0.0729  0.0878
15510W        W32357   1.397  16.266  12.872 -0.0073 -0.1510  0.1144
15511W        W32358  10.113  17.261  11.355 -0.0145 -0.1490 -0.0003
15512W        W32359  14.663  12.515  15.326 -0.0650  0.1002  0.2381
15513W        W32360  16.837  13.817   1.403 -0.0557  0.0059  0.0724
15514W        W32361   8.034  15.887  14.816 -0.3158  0.1131  0.0537
15515W        W32362  10.699  14.448   0.801  0.2762 -0.1136 -0.1517
15516W        W32363   4.962  13.045   3.240  0.1587 -0.1067  0.1945
15517W        W32364   9.969   1.199  13.783 -0.0362 -0.0104 -0.0467
15518W        W32365   5.331   4.985   1.043 -0.2637 -0.1621 -0.1795
15519W        W32366  12.296   1.767  14.704  0.0159 -0.1286  0.3701
15520W        W32367  15.982  14.725   4.572 -0.3267  0.3819  0.0542
15521W        W32368  13.657   8.158  13.394 -0.2052 -0.2382  0.0407
15522W        W32369  14.129   8.609   4.089 -0.0377  0.0041  0.1606
15523W        W32370   1.953   9.294  11.738  0.1208  0.0709 -0.0117
15524W        W32371  15.487   7.980   4.186 -0.1728  0.0285  0.2238
15525W        W32372   8.452   0.603  16.704 -0.1920  0.2826  0.0799
15526W        W32373  12.707   4.422   3.246 -0.1262  0.2122  0.0194
15527W        W32374   6.876  13.917  11.149  0.4066 -0.2347 -0.0838
15528W        W32375   7.686   6.651  13.346 -0.0535  0.1774  0.0805
15529W        W32376   0.830   2.834   3.215 -0.0592  0.4510 -0.1445
15530W        W32377   0.763   3.467  13.628  0.0927  0.3084 -0.1496
15531W        W32378   5.332   4.231   3.125 -0.1311 -0.0096 -0.0882
15532W        W32379   5.047   9.623   2.296  0.1705  0.0983  0.1786
15533W        W32380   3.698   8.690  16.139 -0.0470 -0.1728 -0.2514
15534W        W32381   1.648  12.428   2.072  0.0040  0.1095  0.2572
15535W        W32382   9.188   9.044  16.177  0.0708  0.0358 -0.2407
15536W        W32383  10.664   8.114  15.102  0.0852 -0.1007  0.0374
15537W        W32384  17.444   2.479   4.540  0.1641 -0.1553 -0.1646
15538W        W32385   1.685  17.846  13.536  0.0473 -0.3194  0.0210
15539W        W32386  16.965  12.111  16.733  0.1191  0.0613 -0.1172
15540W        W32387  13.473   9.477  11.938 -0.3868  0.1245 -0.1508
15541W        W32388  16.336   0.828   1.155  0.0254  0.0208  0.0454
15542W        W32389  12.420  11.132  15.233 -0.2348  0.1235  0.0597
15543W        W32390  15.007  17.623   3.035 -0.3324  0.0731  0.2120
15544W        W32391   0.486   6.623   0.903  0.2669 -0.0095 -0.1829
15545W        W32392   8.934   2.908   4.320 -0.4020 -0.0130  0.1291
15546W        W32393   6.695  16.805  11.234 -0.0967 -0.1132  0.1477
15547W        W32394   6.713   1.044   3.140  0.1719 -0.0361 -0.1228
15548W        W32395   0.797  13.456   3.785 -0.0857  0.0430 -0.0761
15549W        W32396   7.573   3.649   3.436 -0.2040  0.0634 -0.0431
15550W        W32397   8.568  17.634   4.605 -0.1196  0.0254 -0.0206
15551W        W32398   1.402   8.034   4.142  0.1022  0.0863  0.1350
15552W        W32399  16.560  13.412  15.948 -0.1089  0.1873  0.2757
15553W        W32400  13.720   4.781   5.647  0.0346 -0.0113  0.2199
15554W        W32401   7.360   5.355  11.961 -0.0734 -0.0030 -0.0675
15555W        W32402  17.055   3.447   4.715  0.1440 -0.0784  0.0746
15556W        W32403   4.811  11.999  12.194  0.0488 -0.0742  0.0482
15557W        W32404  14.943  11.999  15.395 -0.0213 -0.0831  0.2511
15558W        W32405  13.522   8.797  14.053  0.0238 -0.3833 -0.0098
15559W        W32406  14.090  10.045  13.657  0.0095 -0.0631  0.2214
15560W        W32407  10.831   9.471  13.038  0.1200 -0.4223  0.0835
15561W        W32408  15.121  16.549   5.457  0.2423  0.1193 -0.2526
15562W        W32409  13.661  14.757   1.508  0.0131 -0.2470  0.0628
15563W        W32410  14.772   6.879  12.877 -0.0472  0.0568 -0.0714
15564W        W32411  11.870   4.830   3.560  0.1122  0.0691  0.1210
15565W        W32412   7.213  15.053   0.236 -0.2935  0.1276  0.1633
15566W        W32413  11.417  11.278   1.427  0.0438  0.1132 -0.2175
15567W        W32414  11.965  17.636   3.872 -0.0930  0.1011  0.1493
15568W        W32415  10.978  11.134   3.338 -0.0429 -0.0731 -0.1059
15569W        W32416  12.923  16.842  13.768  0.1178  0.0233  0.0913
15570W        W32417  16.416   7.700  16.136 -0.0123  0.0114 -0.2294
15571W        W32418   5.340   1.527  15.060 -0.3842 -0.0913  0.0528
15572W        W32419   8.639   2.058  11.207 -0.3084 -0.2272  0.1024
15573W        W32420  16.106   5.263  13.263  0.0253 -0.1567 -0.2987
15574W        W32421  17.922  16.749   4.017 -0.1766  0.1240 -0.1192
15575W        W32422   3.357  13.523   1.512  0.1120  0.1765 -0.2216
15576W        W32423  12.431   3.732   0.025 -0.1939  0.2522  0.0512
15577W        W32424   6.604   3.573   1.616  0.0748  0.1007  0.0005
15578W        W32425  15.635  15.404   1.910  0.3388  0.1095  0.2143
15579W        W32426   0.200   2.721  11.830  0.1135 -0.0855 -0.0917
15580W        W32427  16.127  11.460  12.824 -0.1188  0.0886 -0.1616
15581W        W32428   0.715  10.221   2.862 -0.0164  0.3549 -0.0218
15582W        W32429  16.174  13.077   4.952  0.1782  0.0518  0.0357
15583W        W32430  17.792   6.269  12.174 -0.2798 -0.0776 -0.1033
15584W        W32431   8.971  12.858  14.336 -0.1232  0.0916  0.4126
15585W        W32432   8.432  15.597  13.178 -0.1608  0.2687 -0.0260
15586W        W32433   1.870   9.657   3.574 -0.0489 -0.3516  0.0284
15587W        W32434  16.881   4.510  14.455 -0.0586 -0.0740 -0.3482
15588W        W32435   0.059   5.185  12.647  0.1068  0.1633  0.1350
15589W        W32436  14.869   2.552  15.104 -0.0263 -0.1792 -0.3140
15590W        W32437   0.400   0.382  15.961  0.0526  0.0351 -0.2282
15591W        W32438   0.891   6.788   5.360 -0.0409  0.1478 -0.0012
15592W        W32439  11.971  15.747   3.500  0.0989 -0.1444 -0.0702
15593W        W32440  14.436  11.337  14.095 -0.1144 -0.3968  0.0523
15594W        W32441  16.719   3.018   5.138  0.0114 -0.2140  0.0278
15595W        W32442  13.793   3.847   5.308  0.1997  0.0027 -0.0267
15596W        W32443  10.643  15.021  13.835 -0.0539 -0.2037 -0.0158
15597W        W32444  16.861  16.982   5.476 -0.0190 -0.3907 -0.1725
15598W        W32445   7.240   2.356   3.658 -0.1714  0.0307 -0.0172
15599W        W32446  12.120  11.042  12.975 -0.0996 -0.0911  0.0544
15600W        W32447   0.604  13.892  13.885  0.0979  0.0142 -0.3749
15601W        W32448  11.913  16.478  13.061  0.2823 -0.2929 -0.0332
15602W        W32449  10.180   8.865   5.726 -0.0159 -0.0210 -0.0140
15603W        W32450   5.846  16.765  11.457 -0.0134  0.1100  0.0426
15604W        W32451   9.818  11.891   1.815  0.1009  0.0480  0.0550
15605W        W32452   1.208   0.845  12.807 -0.3375  0.1454  0.1452
15606W        W32453   3.383   2.430  11.258  0.0414  0.1093  0.3287
15607W        W32454   7.190   0.290   3.555 -0.1396 -0.1379  0.1867
15608W        W32455   2.714   7.647   3.514  0.3060 -0.1922  0.0037
15609W        W32456   0.754  12.495  15.382 -0.1974  0.0824  0.0314
15610W        W32457  14.249   2.131  13.044  0.0210 -0.0064 -0.1000
15611W        W32458   4.234  13.257   5.889 -0.1354  0.0627  0.1462
15612W        W32459   3.284   3.754  16.490  0.0628 -0.0794  0.0989
15613W        W32460  10.382  10.225   2.002 -0.1926 -0.0788  0.1432
15614W        W32461  13.455   3.939   3.580  0.1964  0.1881  0.1056
15615W        W32462   6.131  14.997  16.159 -0.1019  0.2004  0.1757
15616W        W32463  14.966  15.795   3.111 -0.2501 -0.2377  0.0145
15617W        W32464   7.443  14.954   4.672 -0.1115  0.3188  0.3585
15618W        W32465   9.602   2.587  16.105  0.2331 -0.0945  0.0746
15619W        W32466   6.685   3.988  16.642  0.0003 -0.0989  0.0971
15620W        W32467   3.593  11.919  13.985 -0.1942 -0.0047 -0.2276
15621W        W32468  13.751   6.948  13.120  0.2140 -0.0334  0.0527
15622W        W32469   0.646  13.728  12.742 -0.3322  0.1521 -0.1884
15623W        W32470  16.054   5.705   1.621  0.2120  0.1268 -0.0363
15624W        W32471   8.522  15.688  14.218  0.1741  0.2297 -0.2259
15625W        W32472   8.826  17.915  15.656  0.1977 -0.0370  0.0361
15626W        W32473  12.921  17.392   0.383 -0.5842  0.3084  0.3089
15627W        W32474  17.901  15.524   4.921 -0.0705  0.0151 -0.1770
15628W        W32475   8.820  12.398  13.500 -0.4368 -0.1486  0.0294
15629W        W32476  17.518  12.710   5.597 -0.3037  0.1727  0.0907
15630W        W32477  12.685   2.369   3.685  0.0341 -0.0096  0.2780
15631W        W32478  14.611   1.466  14.477  0.1266  0.1870 -0.1626
15632W        W32479   1.905  13.159   2.890  0.1750 -0.2063 -0.0635
15633W        W32480   1.400  11.948  12.346 -0.0895  0.2697 -0.1448
15634W        W32481   2.269  16.096  11.797  0.0705 -0.1685 -0.3721
15635W        W32482   2.032   9.274   2.432  0.3116  0.2336 -0.0190
15636W        W32483   6.303   1.401   0.495  0.2950  0.0630 -0.1552
15637W        W32484  16.253   5.295   3.012 -0.1798 -0.0336  0.2702
15638W        W32485   6.323   6.200   5.703  0.1988  0.2167 -0.2063
15639W        W32486   3.842  17.927  15.361  0.2965 -0.0165  0.0224
15640W        W32487   9.462   0.491  12.954  0.1870 -0.1401 -0.0270
15641W        W32488  14.324  10.883  15.576 -0.0679 -0.1692  0.2941
15642W        W32489   1.400  13.712  12.658  0.1688 -0.2025 -0.1165
15643W        W32490  13.332   3.478   0.966 -0.3174  0.1870  0.4048
15644W        W32491  16.400   3.583   5.180  0.0721  0.1599 -0.2078
15645W        W32492   1.310  17.526  13.689  0.0157 -0.3465 -0.0728
15646W        W32493   0.748  12.160   4.430  0.2413 -0.1967 -0.0860
15647W        W32494  17.623   6.391   2.624  0.1065 -0.1345 -0.5629
15648W        W32495  16.989  14.103  16.033 -0.1331  0.0670 -0.3081
15649W        W32496  16.938   1.827  14.762  0.0316 -0.3040 -0.1145
15650W        W32497   2.339   4.421  12.250 -0.0024 -0.0248 -0.2251
15651W        W32498  15.608  11.515   2.915  0.1189 -0.0028 -0.3377
15652W        W32499   2.890  15.883  14.407  0.1621  0.0559 -0.3844
15653W        W32500   5.738   4.775   0.726 -0.0611 -0.2983  0.1350
15654W        W32501   9.570  17.373   1.663  0.1754  0.0305  0.0088
15655W        W32502   9.670  14.053  10.828 -0.1996 -0.0898  0.1174
15656W        W32503   1.034   4.610   1.794 -0.0012  0.1012  0.2835
15657W        W32504   2.340   0.894  13.974 -0.3465 -0.1390  0.1944
15658W        W32505   0.298   0.239  12.485  0.1358 -0.1564 -0.0239
15659W        W32506   5.344   1.096  16.158 -0.0771  0.1117  0.0666
15660W        W32507  10.737   2.544   1.222 -0.3269 -0.2101 -0.0257
15661W        W32508   3.255  14.902  11.476  0.1098  0.2771  0.2096
15662W        W32509  15.202  14.768   3.198 -0.1325  0.0754 -0.0212
15663W        W32510   0.941  17.917   3.697  0.5809 -0.1475  0.1961
15664W        W32511   6.271  17.735   3.664 -0.0204 -0.0376  0.2453
15665W        W32512   8.941  16.380  13.490 -0.1077  0.0202  0.0381
15666W        W32513  12.481  14.823  15.213  0.0113  0.2594  0.3288
15667W        W32514  15.948  15.092   5.421  0.0902 -0.2609 -0.0766
15668W        W32515  16.303   7.743   0.895  0.0557 -0.1610 -0.1288
15669W        W32516   9.334  13.968   3.964  0.2113  0.0009 -0.2022
15670W        W32517  12.968  16.071  14.999  0.0748 -0.2409 -0.3640
15671W        W32518   5.068  16.164   3.740 -0.1614 -0.2722  0.1671
15672W        W32519  12.479  15.514  16.375 -0.2969 -0.1424  0.0551
15673W        W32520  10.800   8.077  16.536 -0.0201  0.1229 -0.2842
15674W        W32521  14.140  17.155   3.674 -0.0679 -0.1002 -0.2237
15675W        W32522  13.448  11.401  10.758 -0.0269  0.2564 -0.1758
15676W        W32523  16.014  13.181   5.537  0.1137  0.2138  0.0359
15677W        W32524   6.019   7.372  16.069 -0.2030  0.3305 -0.2531
15678W        W32525   9.766   0.866   5.429 -0.0795 -0.0358  0.0475
15679W        W32526   7.459  16.037   1.359  0.1714 -0.1605 -0.0438
15680W        W32527   6.448   6.114   1.218 -0.0082  0.1966 -0.3738
15681W        W32528   2.268   1.170  13.526  0.1296  0.3302 -0.1309
15682W        W32529   5.215   2.132   4.873  0.1071  0.1737  0.0123
15683W        W32530   4.786   7.161  13.958 -0.1784 -0.0559 -0.3270
15684W        W32531   5.192  12.845  12.095  0.1517  0.2913  0.3541
15685W        W32532   8.608  15.559  11.723 -0.0665 -0.0259 -0.1737
15686W        W32533   7.404   3.049   2.094 -0.1311 -0.0231 -0.0650
15687W        W32534  14.315  13.317   1.877  0.2755  0.0810 -0.0341
15688W        W32535   0.855   0.273   0.975  0.0678 -0.2536  0.0261
15689W        W32536  12.447  13.593  11.343 -0.1380 -0.2414  0.0037
15690W        W32537   7.978  12.409  15.246  0.2186 -0.2240  0.4193
15691W        W32538   8.328  11.426   2.144  0.4212 -0.3348  0.0098
15692W        W32539  17.795   0.764   2.531  0.1155  0.1287  0.0751
15693W        W32540  12.601   3.691   4.675 -0.3074 -0.2256 -0.2942
15694W        W32541  10.303  12.787  12.932  0.0897 -0.1045 -0.2079
15695W        W32542   1.711  12.097  15.774  0.0724  0.0037 -0.0712
15696W        W32543   6.682   5.776   6.222  0.0472  0.0341 -0.3488
15697W        W32544  15.247  14.764   3.943  0.2381 -0.3371  0.2895
15698W        W32545   3.056  16.862   5.037  0.0297 -0.1138  0.0289
15699W        W32546   7.345   5.723  14.211  0.0233 -0.2798  0.0376
15700W        W32547   9.755   1.829  16.142 -0.1722  0.0973  0.0973
15701W        W32548  14.233  10.164   4.150 -0.0200  0.2502  0.0322
15702W        W32549  10.295  16.528   2.807 -0.1536 -0.1883  0.2134
15703W        W32550   9.620   7.727  15.720  0.1076 -0.1417  0.1069
15704W        W32551  11.083  11.893  13.297 -0.0893  0.2387 -0.0688
15705W        W32552   2.486   3.674   4.058 -0.0258 -0.1597 -0.1347
15706W        W32553   7.567  13.890  14.977  0.0393  0.2155  0.1882
15707W        W32554   1.391  11.818   0.755 -0.1371 -0.1476  0.1726
15708W        W32555   9.299   6.991   3.787 -0.0918 -0.1926 -0.3158
15709W        W32556   9.958   1.733  12.291  0.1511  0.0753 -0.4519
15710W        W32557  11.124   3.907   2.598  0.0877  0.1184  0.0027
15711W        W32558   1.822  12.502   5.566  0.3693 -0.4809 -0.0688
15712W        W32559  16.815  12.861  11.921  0.3257  0.1080  0.0892
15713W        W32560   5.467  13.226  12.249 -0.0766  0.3083  0.0880
15714W        W32561  15.756   9.762   1.711  0.0878 -0.2165 -0.1388
15715W        W32562  14.252  15.774   2.978  0.0229 -0.1355  0.4029
15716W        W32563  12.428  14.213  16.737 -0.0980  0.0290  0.2026
15717W        W32564  13.932   2.595   3.323 -0.1771 -0.2201  0.0068
15718W        W32565  14.949  16.876   0.311 -0.1553  0.0488  0.0351
15719W        W32566   5.293  14.536  12.938 -0.0705 -0.0453  0.0151
15720W        W32567   9.143   1.430  13.909  0.0113  0.0542  0.0579
15721W        W32568   7.945   6.250   2.464  0.4043 -0.1784 -0.0044
15722W        W32569   0.577  11.035  12.639 -0.0902 -0.3371 -0.0432
15723W        W32570   8.874  17.172   2.875  0.1047  0.1734 -0.0505
15724W        W32571   5.778   4.909   2.014  0.2918 -0.4154  0.1401
15725W        W32572   7.878   4.243   2.924 -0.0846  0.0995  0.0993
15726W        W32573  16.506  16.650  13.520 -0.0680  0.2084  0.0880
15727W        W32574  14.789  15.492   2.732 -0.1326  0.1397 -0.0375
15728W        W32575  13.702  14.162   0.309  0.1822 -0.0815 -0.0942
15729W        W32576   8.777  16.911   4.047 -0.1696  0.0308  0.0871
15730W        W32577   5.601   0.568   1.981 -0.4240  0.1877  0.2481
15731W        W32578  14.401   7.355   3.517 -0.1882 -0.0137  0.2780
15732W        W32579  14.255   3.774  13.309  0.0906 -0.0226  0.3503
15733W        W32580  14.714  15.669  13.168  0.1414  0.2131  0.3775
15734W        W32581  16.740   7.936  11.698 -0.3944  0.1083 -0.2367
15735W        W32582  11.375   4.753  11.734 -0.0901 -0.1192 -0.1212
15736W        W32583   8.689   9.930  12.943 -0.1190  0.2861  0.0535
15737W        W32584  11.296   1.814   0.108 -0.1504 -0.0950  0.0100
15738W        W32585  14.610   6.775   2.030  0.5995  0.1071 -0.2565
15739W        W32586   4.199   2.903  12.961  0.1332  0.3086 -0.1643
15740W        W32587  16.223  16.883  16.506 -0.0225  0.2086  0.1088
15741W        W32588   0.817   2.266  13.420  0.1713  0.1293  0.1409
15742W        W32589   3.986   7.773  15.892  0.2475 -0.3264 -0.0344
15743W        W32590  12.961   0.198   4.575  0.1830  0.1771  0.1560
15744W        W32591  17.870   1.844  16.162 -0.1644 -0.0336  0.0312
15745W        W32592   8.577  16.769   3.127 -0.1220  0.0329 -0.1048
15746W        W32593  14.385  16.540   5.570 -0.0718 -0.0610  0.0812
15747W        W32594   1.272   3.900  14.451 -0.1968  0.2057  0.3182
15748W        W32595   8.526  16.438  11.718 -0.0841  0.1948 -0.0598
15749W        W32596  17.355  11.975  11.864  0.1449 -0.5760 -0.1375
15750W        W32597   5.062  11.539  16.706 -0.0841  0.0120  0.2217
15751W        W32598   1.123   0.468  13.133  0.3927 -0.0598 -0.0095
15752W        W32599   6.275   2.077   2.511 -0.3413 -0.0796 -0.2598
15753W        W32600   6.443  14.708   2.454 -0.0071  0.0107  0.2620
15754W        W32601  17.202  12.218  12.866 -0.3103  0.1149  0.1856
15755W        W32602   0.427  16.055  14.873 -0.0215  0.0160 -0.0530
15756W        W32603  12.239  13.086  14.506 -0.1188 -0.2504 -0.0391
15757W        W32604  16.472   7.616  16.692 -0.2450 -0.3391 -0.0158
15758W        W32605   2.175  11.037  12.923  0.0814 -0.1457  0.0637
15759W        W32606  12.822  15.987   3.607  0.2144 -0.0727  0.2377
15760W        W32607   7.917   1.698  12.771 -0.0848  0.2033  0.0888
15761W        W32608  16.406   2.106   2.553 -0.0053 -0.1159 -0.0157
15762W        W32609  10.587  15.792  13.785 -0.1910  0.2066  0.0228
15763W        W32610   0.049   2.736  16.669 -0.2521 -0.1033 -0.1052
15764W        W32611   6.271  17.087  11.225 -0.0358  0.1537  0.1839
15765W        W32612   6.490   2.627  12.215 -0.2331  0.2428 -0.1750
15766W        W32613  14.690  13.994   1.339  0.4554  0.1121  0.0707
15767W        W32614   5.257  10.475  13.813  0.2928 -0.1170 -0.0304
15768W        W32615   3.274  17.469  11.406 -0.3218  0.1638 -0.2928
15769W        W32616   8.284  14.038   6.049  0.0461 -0.2737 -0.0100
15770W        W32617   0.472   5.680  15.174 -0.0391 -0.4130  0.0463
15771W        W32618   9.321  10.309  15.647  0.0855 -0.0082 -0.0239
15772W        W32619  12.105   7.307   2.580 -0.1942  0.1825  0.1361
15773W        W32620  13.632   9.074  11.670  0.0958  0.1251  0.0492
15774W        W32621   8.105  17.595  12.917 -0.2707 -0.0930 -0.2834
15775W        W32622   9.795   0.574   2.129  0.0320  0.1079  0.0651
15776W        W32623   2.585  16.139   2.631  0.0231 -0.1839  0.1185
15777W        W32624  17.298   8.942   4.486 -0.3320  0.0417 -0.1543
15778W        W32625  10.450   2.378   1.718  0.0727 -0.0385  0.2415
15779W        W32626  15.863  13.369   4.225  0.4718  0.0747 -0.1860
15780W        W32627  16.587   2.295  11.458  0.0549  0.3238  0.1080
15781W        W32628   7.237   8.746   3.998  0.4290  0.0177  0.0357
15782W        W32629  11.123  10.769   4.176 -0.0864 -0.0402 -0.4620
15783W        W32630   8.090   1.520  11.512 -0.0472 -0.0638 -0.0921
15784W        W32631  10.950   1.305  14.541 -0.2162  0.1194 -0.0172
15785W        W32632   0.125   2.596   1.981 -0.2146 -0.2399 -0.1894
15786W        W32633  13.655  16.354   3.742 -0.2366  0.0963 -0.0481
15787W        W32634   8.958   3.559  13.207  0.0012  0.0338 -0.0838
15788W        W32635  16.081   2.322   4.737 -0.2528 -0.4056  0.1063
15789W        W32636  13.971   0.247   3.777 -0.0987  0.1377  0.2135
15790W        W32637   6.124   8.897   6.257 -0.1568  0.0875  0.2641
15791W        W32638   1.033  16.586  12.667 -0.0295  0.1762  0.0513
15792W        W32639  17.179   1.785   5.258  0.0314  0.2388 -0.0964
15793W        W32640  17.646   0.848   3.425 -0.0888  0.0317 -0.3557
15794W        W32641  15.397  14.605  15.182 -0.3472  0.3009  0.2659
15795W        W32642   1.474   2.162   0.485  0.0432 -0.0361 -0.2605
15796W        W32643  10.572   5.135  11.372  0.2555  0.0158 -0.0503
15797W        W32644   6.590   9.182   3.124 -0.0782  0.0178 -0.0340
15798W        W32645  17.592  16.608  13.312 -0.2445 -0.0544  0.0359
15799W        W32646  13.479  11.059  15.077  0.1914  0.0214 -0.3662
15800W        W32647   4.129  17.330  11.755  0.1113  0.1946  0.3313
15801W        W32648   7.856   0.262   1.574  0.0631  0.0138 -0.0645
15802W        W32649  10.314   1.728   2.903 -0.1583  0.0203  0.1778
15803W        W32650  11.407  16.174   4.186 -0.1702  0.2415 -0.0085
15804W        W32651   8.827   0.666  14.040  0.0109 -0.3035 -0.0263
15805W        W32652  10.670  10.979  16.618 -0.0573  0.2269  0.2575
15806W        W32653  10.908   3.672   4.830  0.1698  0.1170 -0.1393
15807W        W32654  16.228   4.319  11.197  0.1843 -0.2329 -0.1431
15808W        W32655  16.740  12.431  12.636 -0.1573  0.1052 -0.0139
15809W        W32656  14.025  16.586   3.546 -0.1905  0.1067 -0.2154
15810W        W32657  17.929   0.407  13.592 -0.1533  0.2808 -0.2073
15811W        W32658   5.460   3.771   4.176 -0.1740  0.1900  0.1634
15812W        W32659   7.045  13.756   4.847  0.1623  0.2522  0.1339
15813W        W32660   0.240   4.053  14.244  0.0611  0.1963 -0.1282
15814W        W32661   1.822  14.970  15.848 -0.1238  0.0854  0.0288
15815W        W32662   9.425  17.336   2.262 -0.0684 -0.2837 -0.0397
15816W        W32663   1.714  17.886  15.419  0.2874  0.2716 -0.0045
15817W        W32664   3.926   5.933  13.926  0.0430  0.0186 -0.0508
15818W        W32665  10.901   5.013   1.239  0.2749  0.1164 -0.1222
15819W        W32666   0.276  17.885  13.753  0.0514  0.0925  0.1770
15820W        W32667   0.848  12.531  13.720  0.1068  0.1087 -0.0041
15821W        W32668  14.802   5.781   1.774 -0.0788  0.4228 -0.3530
15822W        W32669  17.518  14.785   5.506  0.0798  0.1871 -0.0546
15823W        W32670  17.116   4.917  16.709  0.1275  0.0599 -0.0536
15824W        W32671   7.566  10.358  14.852 -0.0661 -0.0337  0.0400
15825W        W32672  17.784  10.514   0.344  0.1344 -0.1615  0.0237
15826W        W32673   8.816  10.127   4.115  0.0574  0.2102 -0.0624
15827W        W32674   3.519   1.275  14.308  0.0892  0.1349 -0.1407
15828W        W32675  10.533  11.062   3.129 -0.2316 -0.1564 -0.0295
15829W        W32676  10.248  16.049  11.905  0.1062 -0.4087  0.1905
15830W        W32677  12.171   8.781   2.542 -0.3406  0.0378 -0.0427
15831W        W32678  16.349   0.436   4.081 -0.0671  0.4674 -0.1672
15832W        W32679  13.311  11.803   1.271 -0.2056  0.0262 -0.0034
15833W        W32680  10.387  17.094   0.777 -0.1800  0.0233 -0.0443
15834W        W32681  14.523  17.735   3.001 -0.2494 -0.1896  0.3193
15835W        W32682  14.367   3.886   1.041 -0.1617  0.1348 -0.1395
15836W        W32683   4.882   8.216  15.871 -0.0348  0.3881  0.0669
15837W        W32684  10.334   7.938  13.754  0.1163  0.0305 -0.1759
15838W        W32685  11.402  15.536  13.760  0.2742  0.0952  0.1019
15839W        W32686   0.285   4.554   4.548  0.0193 -0.1458 -0.0586
15840W        W32687  12.253   8.483   1.450 -0.0799 -0.1705 -0.2163
15841W        W32688  14.460   9.431  12.136  0.1540 -0.1128  0.2336
15842W        W32689   1.524  15.478   0.944 -0.0084 -0.1962 -0.0261
15843W        W32690  14.068  12.479  12.310  0.2091  0.0849 -0.1263
15844W        W32691  13.343   7.814  15.803 -0.1333 -0.0734 -0.0374
15845W        W32692   9.579  13.091  16.115  0.0972  0.2896  0.2189
15846W        W32693   3.058  12.039  14.189 -0.0887  0.2386  0.1570
15847W        W32694   2.819   7.622  14.097  0.2766  0.2413 -0.0838
15848W        W32695  11.480   6.086  14.176 -0.1382  0.2401 -0.2482
15849W        W32696  10.523   2.102   4.452  0.0885  0.2496  0.1152
15850W        W32697   0.006   7.696  15.284  0.1108  0.0510  0.1664
15851W        W32698  11.583  14.857   2.601 -0.2577  0.1470  0.0128
15852W        W32699   3.598  11.975   0.807 -0.1732 -0.1384 -0.1634
15853W        W32700   4.662   9.886   4.135  0.2130  0.3290  0.2366
15854W        W32701  16.291   9.710   5.565 -0.1420  0.2157  0.0908
15855W        W32702  17.829  15.598   0.266  0.1284  0.0158 -0.4958
15856W        W32703  14.698  13.749   0.728 -0.0954  0.1011  0.1614
15857W        W32704   1.423   6.065   1.693  0.1493 -0.1369  0.3606
15858W        W32705   4.520   3.101  15.682  0.2422 -0.0747 -0.1628
15859W        W32706  13.324  17.287  15.122 -0.3959 -0.1890 -0.2269
15860W        W32707  14.228  14.127   1.751 -0.1629  0.3691 -0.0450
15861W        W32708   8.439   8.329  12.000 -0.2310 -0.0409  0.1394
15862W        W32709  16.300   0.195  12.050  0.0158  0.1643 -0.0853
15863W        W32710  16.069  10.833   2.186  0.0410  0.1714  0.1885
15864W        W32711  10.338   6.918   5.244 -0.2639  0.1085 -0.0123
15865W        W32712  16.635   7.252  14.453  0.0064  0.0077  0.0129
15866W        W32713  15.440  16.060   0.752  0.2114 -0.1121  0.0012
15867W        W32714  16.534   6.682   4.640 -0.1367  0.1950  0.0258
15868W        W32715  11.155  12.585  14.770 -0.1589 -0.1628 -0.2853
15869W        W32716  13.976   7.316  13.427  0.0997 -0.1698 -0.6128
15870W        W32717  11.010  15.137   1.537 -0.3810  0.2008  0.0930
15871W        W32718   8.333  11.889   2.361 -0.1313 -0.0149  0.1466
15872W        W32719   8.298  13.047  13.612 -0.2784  0.2513  0.1344
15873W        W32720   3.806  11.138  12.797 -0.0555 -0.3110 -0.0778
15874W        W32721   8.092   0.187   4.077 -0.0164 -0.0854  0.1915
15875W        W32722   7.397   8.387  14.716 -0.0933  0.2618 -0.1279
15876W        W32723   0.609   7.835  12.567 -0.2188 -0.0251 -0.1556
15877W        W32724  13.650   7.115   1.217  0.2228  0.0488 -0.0844
15878W        W32725   6.729   5.185   3.138 -0.0882  0.1439 -0.0486
15879W        W32726  11.911  15.090   4.637 -0.0830  0.1096 -0.2305
15880W        W32727  16.598   3.878  12.048 -0.2989 -0.0229 -0.1787
15881W        W32728  10.741   6.416  16.408  0.0085 -0.0155  0.1393
15882W        W32729   5.702   2.164   2.669  0.0905  0.1094  0.0380
15883W        W32730   4.098   0.112  13.574 -0.0157  0.2033  0.1127
15884W        W32731  16.989   9.281   5.657  0.0369 -0.1202 -0.0636
15885W        W32732   5.368   0.178  13.049  0.4050 -0.1300 -0.0319
15886W        W32733  15.103   7.201  14.195  0.0679  0.0484  0.1552
15887W        W32734   3.745   0.542   0.688  0.0643  0.0269 -0.3404
15888W        W32735   9.141   0.941   0.403  0.0474 -0.1790 -0.0522
15889W        W32736   7.393   5.348  16.095 -0.0398 -0.0435 -0.0292
15890W        W32737  16.825   8.391   5.232  0.1573 -0.2171 -0.1209
15891W        W32738   2.902   5.522  14.425 -0.1036 -0.1157  0.3366
15892W        W32739   4.861  16.537   5.345 -0.1275  0.2940 -0.0801
15893W        W32740   0.005   5.119  16.664  0.0562 -0.0836 -0.0301
15894W        W32741  14.654   8.887  14.999 -0.0416 -0.1657  0.0649
15895W        W32742  13.094   4.729  13.888 -0.2224 -0.1635 -0.2353
15896W        W32743   9.190   2.355  12.834 -0.0688  0.0278 -0.0029
15897W        W32744   4.870  16.441   4.357 -0.0242  0.2440  0.2487
15898W        W32745   7.730   0.056  14.501 -0.0787  0.1940 -0.2691
15899W        W32746   8.756   4.341   1.926  0.1341 -0.1687 -0.2054
15900W        W32747   6.747   4.084   2.963  0.0204  0.2566 -0.1374
15901W        W32748   0.563  14.279   2.921 -0.0094 -0.2246  0.0407
15902W        W32749   3.719  13.354   0.353 -0.0709 -0.1585  0.1239
15903W        W32750   7.123   4.034   4.147 -0.0271 -0.1586  0.1033
15904W        W32751   8.253  16.315   3.299 -0.2824  0.1324 -0.0426
15905W        W32752   5.575   9.099  12.864 -0.1480  0.0346  0.0047
15906W        W32753  12.845   1.370   3.409 -0.1418  0.0880  0.2488
15907W        W32754  14.358  12.817  13.896  0.0128 -0.0717  0.3256
15908W        W32755  10.567  12.367   0.423 -0.1689  0.0165 -0.2182
15909W        W32756   4.028   0.286   2.252  0.0194 -0.0944 -0.0308
15910W        W32757  17.732   9.471  11.415 -0.1466  0.2935 -0.0151
15911W        W32758  10.104   2.187  12.187 -0.1861 -0.1941  0.0007
15912W        W32759   2.970   0.541   4.994 -0.1719  0.0488 -0.0448
15913W        W32760   4.841  13.823  16.423 -0.1020 -0.1530 -0.0393
15914W        W32761  17.347  14.369   4.664  0.0220 -0.1501 -0.0357
15915W        W32762  12.545   8.867   4.670  0.1662 -0.0828  0.1874
15916W        W32763  12.660  13.143   0.765  0.1564  0.1422 -0.0030
15917W        W32764   2.035   3.159   2.626 -0.0728 -0.2627  0.3112
15918W        W32765  16.640   5.928  15.838 -0.1194  0.3090 -0.2322
15919W        W32766  12.743   4.690   0.843 -0.2633 -0.1633  0.0981
15920W        W32767   6.758   3.929   4.927  0.2067  0.2069 -0.0837
15921W        W32768   2.862  12.228   5.218  0.1451 -0.1148  0.2818
15922W        W32769  16.768   5.944  14.112  0.1897 -0.1412 -0.3256
15923W        W32770   3.258  11.848  12.203  0.2662  0.1977  0.0211
15924W        W32771  11.031  15.122   0.070  0.0047 -0.0662  0.2317
15925W        W32772   3.855   9.250   2.322 -0.0560 -0.3352 -0.0974
15926W        W32773  12.729   3.766  12.957  0.0370 -0.2855  0.2226
15927W        W32774   1.092   7.547   4.317 -0.1025 -0.2792 -0.1404
15928W        W32775   7.363  17.575   4.647 -0.3254  0.3517 -0.0927
15929W        W32776  15.800   3.147   4.755 -0.1284  0.0069  0.2369
15930W        W32777  10.743   1.316  15.571 -0.2314  0.0024  0.0649
15931W        W32778  14.384   1.493   4.264  0.1278  0.0392 -0.1467
15932W        W32779   8.095   0.269   5.134  0.0890  0.0068 -0.2262
15933W        W32780   9.083   5.792  13.522  0.0028 -0.2723 -0.2544
15934W        W32781   4.778  10.575  13.278  0.0025 -0.2649 -0.2162
15935W        W32782  15.623   1.996   4.876  0.0692  0.2378  0.1783
15936W        W32783  15.617  14.003   5.189 -0.1720  0.0975  0.0446
15937W        W32784  13.078  16.962  12.786  0.0198  0.0622  0.0553
15938W        W32785   7.526   5.978  13.596 -0.2002  0.1629 -0.1539
15939W        W32786  17.464   2.155  12.725  0.2473  0.1330 -0.0915
15940W        W32787  11.398  12.452   0.899  0.4610 -0.1105  0.0344
15941W        W32788  16.532  15.087   2.528  0.4351 -0.2201  0.1573
15942W        W32789   0.920   0.512  11.535 -0.0162 -0.0877  0.1516
15943W        W32790  13.163   8.840   6.118  0.0725  0.2502 -0.1217
15944W        W32791   2.352  11.943  12.524  0.2799  0.1721 -0.2754
15945W        W32792   6.138   8.577  15.420 -0.0708  0.1397  0.2144
15946W        W32793  15.603   5.858  13.922  0.2930  0.3452  0.0522
15947W        W32794   5.859  15.042   4.823 -0.1806  0.2739 -0.0180
15948W        W32795   0.956  16.962  13.343  0.0226 -0.1123  0.2856
15949W        W32796   3.720  14.430  15.846  0.1478 -0.1768 -0.1202
15950W        W32797   4.556  13.654   1.341 -0.0645 -0.0988  0.3052
15951W        W32798   3.597  12.558  13.023  0.2177 -0.0422 -0.1759
15952W        W32799   5.464   6.429  16.222  0.0086  0.3970  0.1232
15953W        W32800   3.356  15.191   0.427 -0.2214 -0.0391 -0.4125
15954W        W32801   6.765   5.914  15.068  0.0498  0.1254 -0.0286
15955W        W32802   2.010   3.080  10.937  0.0819  0.0247 -0.0715
15956W        W32803   4.237   4.625  12.606  0.2032 -0.0323  0.0150
15957W        W32804   9.124   3.837  11.193  0.0348  0.0148  0.1228
15958W        W32805   6.470   3.686  14.894 -0.1980  0.0179  0.2611
15959W        W32806  15.739  14.055  16.757 -0.0848  0.1571  0.0198
15960W        W32807   3.215  10.939  16.116 -0.1301  0.1810 -0.0178
15961W        W32808   9.629  10.523  16.636  0.1207 -0.0923  0.0710
15962W        W32809   5.974  13.230   1.125  0.2340  0.0930  0.1888
15963W        W32810  17.416   9.699  15.165  0.1858 -0.1785  0.3032
15964W        W32811  10.255   2.323   1.262 -0.0450 -0.2016  0.1394
15965W        W32812  14.392  13.358   4.032  0.0886 -0.1064  0.1740
15966W        W32813   2.082   2.269  16.691 -0.0281 -0.3821  0.1893
15967W        W32814  13.846   2.380   5.533  0.2253  0.2737 -0.4794
15968W        W32815   3.094   5.830  15.420  0.1540 -0.1458 -0.0791
15969W        W32816   3.331   4.611  13.808  0.1629 -0.0652 -0.0297
15970W        W32817   2.154  13.706   5.904  0.0943 -0.0605 -0.0581
15971W        W32818  15.355  13.325   4.937 -0.1201 -0.0500  0.1877
15972W        W32819  12.084  15.128   2.474  0.1191 -0.1757  0.0445
15973W        W32820   9.459  15.593  15.177 -0.0533  0.0865  0.0809
15974W        W32821   4.027   3.849  14.574  0.2329  0.0847  0.1390
15975W        W32822   4.930  16.059  14.007 -0.0500  0.0455  0.1994
15976W        W32823   3.331   2.980   5.373 -0.1148 -0.0846  0.0932
15977W        W32824  17.915  11.841   0.792 -0.1569  0.4422  0.0040
15978W        W32825  12.972  15.297   0.510  0.2914  0.2860  0.1051
15979W        W32826  11.140   1.023  14.928 -0.1141 -0.0934 -0.0006
15980W        W32827   4.096  13.502  14.473 -0.0696  0.0825  0.1821
15981W        W32828   0.897  13.716   5.475  0.0913 -0.0057  0.3332
15982W        W32829   8.607  11.028   2.110  0.0458 -0.1641  0.1606
15983W        W32830  10.240   2.925   0.510 -0.1065  0.2362  0.2678
15984W        W32831  15.545   1.325  14.757  0.0903 -0.0594 -0.0818
15985W        W32832   5.468  15.366  14.860  0.2339  0.0394 -0.1130
15986W        W32833   2.255  11.440   3.809  0.0203  0.3600  0.1811
15987W        W32834  13.564   2.182   0.469  0.2277 -0.2207  0.2678
15988W        W32835   3.809   9.168   0.294 -0.1270  0.0824 -0.1767
15989W        W32836   0.197   4.717  11.212 -0.1092  0.1119 -0.0783
15990W        W32837   9.952   1.776   5.962 -0.0963  0.0691 -0.1263
15991W        W32838   6.334   4.024  12.185 -0.0503 -0.1642 -0.2838
15992W        W32839   1.455   2.140  14.852  0.0318 -0.1491  0.2222
15993W        W32840   2.680   6.137   3.465  0.0009 -0.0533  0.0579
15994W        W32841  12.823   2.476  16.539 -0.0108 -0.2283 -0.0597
15995W        W32842  11.748   3.169  12.824 -0.1806  0.2049 -0.1053
15996W        W32843   8.326   1.882  10.777 -0.0907 -0.0553 -0.0396
15997W        W32844  17.709   9.736   2.555 -0.0004  0.1422 -0.2381
15998W        W32845  16.868  15.412  16.194  0.1581 -0.3819 -0.0929
15999W        W32846   3.060   0.801  16.435  0.1725  0.2779 -0.1753
16000W        W32847  17.916   6.053   2.401  0.2358 -0.0425  0.3434
16001W        W32848   4.679   2.638  14.057  0.2666 -0.1911  0.0743
16002W        W32849  13.009   2.292  15.078  0.1166 -0.0345 -0.2850
16003W        W32850  16.605  16.736   2.542  0.1345 -0.0759 -0.1256
16004W        W32851  11.688  14.766  13.366 -0.1637  0.3386  0.1208
16005W        W32852  10.497  15.740   5.907 -0.1205  0.0458  0.1873
16006W        W32853   3.556   1.077  13.558 -0.0620 -0.1737  0.0849
16007W        W32854  13.333  10.190   5.502 -0.0055  0.2136  0.0149
16008W        W32855  17.365   3.242   5.553 -0.0441 -0.1612  0.0181
16009W        W32856  12.013   1.113  11.317  0.2032 -0.0764  0.2309
16010W        W32857   4.047   6.007   1.387 -0.1305  0.0186  0.0419
16011W        W32858  13.905   2.686   3.921 -0.3662  0.0070  0.2133
16012W        W32859  17.542   2.591   5.015 -0.0114  0.2705  0.1532
16013W        W32860  12.381   9.301  15.729 -0.0741 -0.0120  0.2356
16014W        W32861  10.150   9.809  15.250 -0.3693  0.0683  0.1793
16015W        W32862  16.371  16.812   0.263  0.2605 -0.2356 -0.1835
16016W        W32863  10.667   2.297  11.703 -0.0059  0.1949 -0.0234
16017W        W32864   1.501  13.186   2.544 -0.1575  0.1339  0.0920
16018W        W32865   9.515   5.836  14.517 -0.3494 -0.2969 -0.0463
16019W        W32866   5.300   8.109  15.348 -0.1949 -0.0313 -0.2007
16020W        W32867  15.943   5.812  13.029  0.1254  0.0552 -0.1518
16021W        W32868   6.789   4.740  15.653  0.2986 -0.2073 -0.0083
16022W        W32869   6.882  11.800  16.708 -0.1823  0.0226 -0.2957
16023W        W32870   2.519  14.507  13.370  0.1871 -0.0279 -0.2092
16024W        W32871   8.292   5.308  16.613  0.2247 -0.0812 -0.0421
16025W        W32872   0.284  15.078  16.522 -0.1793  0.1648 -0.0597
16026W        W32873  16.114   9.702   3.414  0.1750  0.1586  0.3470
16027W        W32874   9.736   1.556  15.570 -0.2547  0.2856 -0.0380
16028W        W32875   1.631   7.637  16.668 -0.0450  0.1825  0.1005
16029W        W32876  13.909   9.476  11.562 -0.2613 -0.3152  0.0594
16030W        W32877  10.555  14.755   2.993  0.0923  0.0488 -0.2484
16031W        W32878   4.672  15.142   5.756  0.1373  0.3783  0.4031
16032W        W32879  13.349   9.462   3.167 -0.1150  0.0971  0.0222
16033W        W32880  11.457   4.467   0.595 -0.2382 -0.1523 -0.1895
16034W        W32881   1.604   2.943  11.274 -0.0833  0.1209  0.1065
16035W        W32882   1.674   9.163  15.007  0.0415 -0.0602 -0.0865
16036W        W32883  15.572  12.361   3.377  0.3491 -0.0144 -0.1220
16037W        W32884  11.496  17.590   3.740 -0.0582  0.4936 -0.0879
16038W        W32885  10.070  15.218   4.136  0.3122  0.1993 -0.3012
16039W        W32886  16.841   2.266   2.251 -0.0059  0.2484 -0.1200
16040W        W32887   4.752  12.696  16.177  0.1226 -0.3313  0.3265
16041W        W32888  15.509  13.974   3.112 -0.0404 -0.1143 -0.2726
16042W        W32889   3.766  12.608   1.480  0.1598  0.0606  0.1454
16043W        W32890  15.575   1.416   4.965  0.0974 -0.0853 -0.0525
16044W        W32891  17.457  12.769   0.803  0.1315 -0.2071  0.3880
16045W        W32892   5.454   9.213   1.022 -0.0444  0.0419 -0.2082
16046W        W32893   9.620  15.940  14.638  0.1072 -0.2638 -0.0044
16047W        W32894  11.754   0.405   4.314 -0.1705 -0.0479  0.0304
16048W        W32895   7.879   5.372  15.872  0.0106 -0.0871  0.3106
16049W        W32896   6.351  17.479  12.870  0.1814  0.0242  0.1585
16050W        W32897  13.500   0.743   5.643  0.1465 -0.1523 -0.1748
16051W        W32898   5.362   5.050   0.525 -0.0012  0.3277 -0.1243
16052W        W32899   6.186  13.709  11.765 -0.1385 -0.2557 -0.0812
16053W        W32900   2.194   7.066  13.389 -0.0218 -0.0155  0.1655
16054W        W32901  12.101  11.981  14.748  0.3004 -0.0199  0.0893
16055W        W32902   8.531  16.309   2.600  0.1323  0.1283  0.0071
16056W        W32903   0.752   8.952   4.891 -0.0060  0.3780 -0.0104
16057W        W32904  11.956  14.016   3.493  0.0498 -0.0272  0.1744
16058W        W32905   8.441  12.373  15.497  0.0664 -0.0062 -0.0667
16059W        W32906   1.778  17.217   3.034 -0.1208  0.2083 -0.2290
16060W        W32907   9.375  11.652  13.538  0.0594  0.4689  0.0820
16061W        W32908  12.439   9.304   0.529  0.1402 -0.0610  0.1177
16062W        W32909   1.903   9.298  10.564  0.0957 -0.1106 -0.0554
16063W        W32910  17.864   9.130   1.775  0.1590 -0.0278 -0.0496
16064W        W32911   3.148  13.867   1.088 -0.0440  0.0704 -0.2750
16065W        W32912   9.863   7.291   2.257 -0.0584 -0.2313 -0.1604
16066W        W32913   0.609  13.356   5.228  0.0080 -0.3871  0.3771
16067W        W32914  17.876   8.197  16.229 -0.3235  0.2433 -0.0341
16068W        W32915  11.667  16.394   4.602 -0.1033  0.0148  0.1556
16069W        W32916   6.621  15.431   3.638  0.0651  0.0014 -0.1565
16070W        W32917  10.261   5.032  14.255  0.2904  0.0222 -0.0692
16071W        W32918  13.953   4.122  14.777  0.1902  0.0924  0.2004
16072W        W32919   3.812  15.583   5.858  0.1068  0.3016  0.0737
16073W        W32920   2.615   3.374   1.447 -0.2892 -0.5174 -0.0761
16074W        W32921  16.122   4.775   2.729  0.1404 -0.0434 -0.1471
16075W        W32922  17.029   2.083   0.901 -0.1237 -0.0762  0.1805
16076W        W32923   1.363   5.111   3.033  0.0206 -0.1285  0.4694
16077W        W32924  17.455   8.561   4.205 -0.1238 -0.1876  0.0289
16078W        W32925   8.869   2.396   0.889  0.5436  0.1501  0.0139
16079W        W32926   4.815  14.148  13.411 -0.1700  0.0528 -0.0857
16080W        W32927   4.843  12.871  12.460 -0.3477  0.2730  0.0817
16081W        W32928  14.762   9.494   0.763  0.1070 -0.0331 -0.3109
16082W        W32929  10.661  11.411   0.176  0.1129  0.1669  0.0324
16083W        W32930   2.412  16.148   0.764  0.1021 -0.1303 -0.0941
16084W        W32931   6.897  13.115  15.809  0.1289 -0.2832  0.0706
16085W        W32932   4.324   6.051   5.013  0.0588  0.0286  0.1579
16086W        W32933  13.452   9.719   1.224  0.3259  0.5163  0.0095
16087W        W32934  17.531   8.737  13.953 -0.2282  0.1389  0.1296
16088W        W32935   7.345  12.593  12.754  0.2551  0.0288 -0.1684
16089W        W32936   1.287   0.067   0.768  0.3389 -0.3206 -0.1144
16090W        W32937  12.798  12.710   4.095 -0.0030  0.2396  0.1979
16091W        W32938   2.509   4.144   2.319 -0.1482  0.1258  0.1679
16092W        W32939  14.736  17.191   3.022  0.1410  0.0665  0.0688
16093W        W32940   4.629   8.678   1.006 -0.0408  0.0991  0.0258
16094W        W32941   6.721   9.817  12.673  0.0698  0.0696 -0.1859
16095W        W32942  15.866  15.648   2.946  0.2316  0.0696  0.1747
16096W        W32943   0.092   1.110   3.243  0.0373  0.1882  0.1363
16097W        W32944  10.360   4.949   1.992  0.2003 -0.1051 -0.2437
16098W        W32945  13.361   2.769   4.088 -0.1187  0.0900  0.2478
16099W        W32946   7.193  12.031  14.351 -0.0335  0.0002 -0.2188
16100W        W32947   7.461   7.064   1.687 -0.1950  0.0647  0.0947
16101W        W32948   4.913   0.953   0.512 -0.1531 -0.0748 -0.0409
16102W        W32949   8.297   6.268   3.914  0.2705  0.0127 -0.0859
16103W        W32950  15.014  14.379  15.817 -0.0258  0.0491  0.0408
16104W        W32951   5.962   9.180   0.389  0.0671  0.0730 -0.0765
16105W        W32952   0.262   7.061  16.543  0.2672  0.1230 -0.0202
16106W        W32953  13.808  13.545   0.552 -0.3275 -0.3527  0.0088
16107W        W32954   7.628  17.020  14.018  0.0771 -0.0470  0.0507
16108W        W32955   8.935  16.598  16.145  0.0260 -0.2959  0.0979
16109W        W32956   2.456  12.762   5.149 -0.1455  0.3683 -0.1494
16110W        W32957   5.575   1.906   3.065 -0.0386  0.2323 -0.2452
16111W        W32958   7.317   4.947  11.550  0.0427 -0.0378 -0.1702
16112W        W32959   5.503   9.369   4.852  0.0669 -0.0212 -0.0200
16113W        W32960  15.354   3.232   4.976  0.0014  0.0623 -0.1064
16114W        W32961   1.519  14.134  12.320 -0.0331 -0.1663 -0.0432
16115W        W32962   5.132   1.338   2.580 -0.0035 -0.3239  0.0974
16116W        W32963  12.774  16.905   0.541  0.2017  0.3219  0.2281
16117W        W32964   5.021  16.977  12.926  0.0953  0.0686 -0.0571
16118W        W32965   5.763   9.616  14.495 -0.1032 -0.0978  0.0525
16119W        W32966   7.513   5.714   5.049  0.2092  0.0135 -0.0687
16120W        W32967   1.839   8.773   5.622 -0.2998  0.1649  0.2196
16121W        W32968   5.151   7.427  13.781 -0.0086 -0.1325  0.1513
16122W        W32969   4.738   9.382  16.713 -0.2111  0.0572  0.3856
16123W        W32970  15.850   2.418   4.293  0.0093 -0.0921 -0.1390
16124W        W32971  17.257  15.290  13.795  0.2514 -0.1077 -0.1971
16125W        W32972   0.669  14.757  16.037  0.1241  0.0298 -0.2972
16126W        W32973   4.665   7.319   2.404  0.0137  0.0583  0.0439
16127W        W32974   3.043   6.523   1.597 -0.1226  0.0331 -0.1656
16128W        W32975   4.205   4.504  15.618  0.0007  0.0898 -0.3372
16129W        W32976  11.820  15.756  14.593  0.2357 -0.0728  0.1537
16130W        W32977   1.294  14.077   1.124  0.0887 -0.1304  0.0711
16131W        W32978  15.167  12.491  13.340 -0.2991 -0.2026  0.2225
16132W        W32979  17.486   2.629  15.799  0.2098 -0.0006 -0.1171
16133W        W32980   1.478  14.020   0.623  0.2455  0.3062  0.2958
16134W        W32981   8.740   9.218  14.987  0.0550  0.0179 -0.2837
16135W        W32982  17.574  12.299  14.871  0.0174  0.3084 -0.0338
16136W        W32983   9.372  15.247  14.088  0.0098 -0.1895 -0.0043
16137W        W32984   8.131  13.400   1.197  0.0238 -0.1568  0.0907
16138W        W32985   2.095   0.735  14.816 -0.0104  0.2024  0.1597
16139W        W32986   9.758   9.294   5.154  0.0764  0.2773  0.1911
16140W        W32987   7.282   9.257   3.953 -0.1732  0.1468 -0.2940
16141W        W32988  15.371  11.440   0.674 -0.0967 -0.1298 -0.2498
16142W        W32989  14.239  12.464   0.863  0.1314  0.1367 -0.0554
16143W        W32990  16.434   5.799   1.327  0.0791 -0.2595  0.0021
16144W        W32991   2.348  15.713   0.608 -0.0042 -0.0620  0.3818
16145W        W32992   1.137  13.962   5.099 -0.2608  0.1831 -0.2532
16146W        W32993  14.050  16.985  13.969 -0.2323 -0.2264 -0.0643
16147W        W32994   0.285   3.147  12.831 -0.0342  0.0981  0.1137
16148W        W32995  13.087   3.752  12.526  0.0041 -0.2804 -0.0326
16149W        W32996   3.347   8.690   5.451 -0.1544 -0.2782  0.1949
16150W        W32997   7.204   7.142  13.621 -0.0927 -0.1532  0.3383
16151W        W32998  12.315   6.449   2.421 -0.0780  0.2297  0.1688
16152W        W32999  15.073  15.527   3.507  0.0623 -0.0202 -0.0047
16153W        W33000   7.639   0.902  14.231  0.3020  0.1954 -0.1068
16154W        W33001  17.764   3.319  11.185  0.0524  0.0216 -0.0036
16155W        W33002  13.228   6.742   2.059  0.0783 -0.2351 -0.2173
16156W        W33003  10.453   3.515  14.484 -0.2060  0.1141 -0.0861
16157W        W33004  14.613   8.593   0.838  0.1085  0.0977  0.1099
16158W        W33005   7.073  12.352  14.816 -0.2753 -0.0999 -0.2787
16159W        W33006  16.757  13.555   3.185 -0.2149  0.1428  0.1842
16160W        W33007  17.404  11.991   0.920 -0.0682 -0.2825  0.1307
16161W        W33008   6.150   6.009  16.491 -0.1926  0.1637 -0.0375
16162W        W33009   8.411  13.412  13.947 -0.1632  0.1310  0.0624
16163W        W33010  15.868  16.303  12.906  0.1638 -0.2530  0.0313
16164W        W33011   7.941  15.131   3.886  0.1404 -0.0448 -0.0593
16165W        W33012   0.974  12.880  13.217 -0.2459  0.4460 -0.1457
16166W        W33013   7.389  11.631  12.874  0.0547  0.1967 -0.0170
16167W        W33014   0.373   3.763   1.264 -0.1350  0.1050  0.3520
16168W        W33015  15.608  10.589  12.702 -0.2438  0.0430  0.0509
16169W        W33016   4.515   1.169   3.517  0.1368 -0.0662  0.0085
16170W        W33017   4.255  14.015   0.397  0.0287  0.0533  0.0721
16171W        W33018   8.526   6.233   0.241  0.2004 -0.0720  0.3725
16172W        W33019   4.124   9.300   3.953  0.0230 -0.3072  0.1392
16173W        W33020  12.137   3.262   5.448  0.0059  0.0185 -0.1679
16174W        W33021  13.915   6.252   3.343 -0.1918 -0.0713  0.3631
16175W        W33022   1.314   4.524  16.329  0.1774 -0.3550  0.1355
16176W        W33023   0.081  12.997   2.853  0.0133 -0.3706  0.1053
16177W        W33024  13.210  17.637   6.485  0.4089 -0.0533 -0.1930
16178W        W33025  12.908  12.456  16.330  0.2606 -0.3122 -0.1677
16179W        W33026   1.596   4.097  14.095  0.2823  0.0665  0.2611
16180W        W33027   5.657   2.399  12.552  0.0131 -0.1425 -0.1610
16181W        W33028  16.584  14.104   1.784  0.0021  0.1203  0.2572
16182W        W33029   5.064   1.958  15.125 -0.1163  0.0279 -0.3621
16183W        W33030   1.095  10.498  13.798  0.1185 -0.1734  0.0940
16184W        W33031  13.072  12.339  15.862  0.3300 -0.0262 -0.0044
16185W        W33032  14.118   8.365  13.560  0.3559  0.0691  0.0490
16186W        W33033  11.403   6.321   0.838 -0.0682  0.1393  0.0887
16187W        W33034   8.803   8.585  11.633 -0.2314  0.2915  0.1487
16188W        W33035   2.842   4.363  11.653  0.0250 -0.0571  0.3596
16189W        W33036  11.103  17.580  14.719 -0.0272 -0.5114 -0.0176
16190W        W33037  17.314   5.701   5.095  0.2482 -0.1755 -0.0902
16191W        W33038  12.176   7.758  11.775  0.2751 -0.0331  0.1874
16192W        W33039   8.284   3.192   1.197 -0.2125 -0.0166  0.0240
16193W        W33040   9.316  12.288   4.753  0.2220 -0.3414  0.0912
16194W        W33041  10.671   5.837   0.460  0.1227  0.2241 -0.1540
16195W        W33042   1.498   3.336  15.993  0.1165  0.0145  0.2453
16196W        W33043   6.742   8.127  16.660 -0.0402 -0.2906  0.1540
16197W        W33044  13.217   3.740  15.124 -0.1003  0.0510 -0.1327
16198W        W33045   0.558  15.945  12.107  0.1246  0.0998  0.1217
16199W        W33046   3.138  12.426   4.048  0.2114  0.0448 -0.1471
16200W        W33047   2.639  15.090  13.466 -0.1466 -0.0190 -0.1499
16201W        W33048  16.078  15.769   5.061  0.0200 -0.4129  0.0621
16202W        W33049   4.632   6.313   3.234 -0.0889 -0.0669 -0.1279
16203W        W33050  16.710   3.802   5.909  0.2386  0.1821 -0.0032
16204W        W33051   4.844   3.286  15.368 -0.1441  0.1453  0.4926
16205W        W33052  17.111   9.192  14.138 -0.0586 -0.2399  0.0274
16206W        W33053   0.417   8.828  11.612  0.0417 -0.5019  0.0979
16207W        W33054  13.767  12.415   2.682  0.0931  0.0834 -0.1982
16208W        W33055  10.452   9.341  15.505  0.1046  0.1576  0.2688
16209W        W33056   9.330  10.478  14.706  0.1571 -0.2142  0.0918
16210W        W33057   1.711   8.339  11.482  0.0844  0.2546  0.0266
16211W        W33058  13.578  15.652   3.291 -0.1335  0.0024  0.0381
16212W        W33059   5.656  17.907   3.806  0.0136 -0.0249  0.2301
16213W        W33060  15.743   8.682   5.428 -0.1919  0.0613  0.2678
16214W        W33061  17.707   3.060   1.355  0.1359  0.1654 -0.2716
16215W        W33062   0.537  11.957  14.510 -0.0848  0.0309 -0.1242
16216W        W33063   3.492   1.841   3.412 -0.0060  0.3381  0.0002
16217W        W33064  12.244  10.491  11.841  0.1655 -0.1910  0.4361
16218W        W33065   8.655   8.743   1.412  0.2412  0.0589 -0.2695
16219W        W33066   3.608  17.297   0.172  0.1096  0.0680 -0.0081
16220W        W33067   6.966   1.500   0.491  0.2587  0.0377 -0.1152
16221W        W33068   7.981  13.338   2.195  0.0407  0.0891  0.3031
16222W        W33069  10.725   7.859  14.073 -0.0860 -0.1621 -0.0449
16223W        W33070   3.761  15.880   4.487  0.0624 -0.1886 -0.2586
16224W        W33071   9.663  11.825   4.148 -0.1201 -0.0518 -0.1976
16225W        W33072   9.468   7.558   4.072 -0.3974  0.2598 -0.2701
16226W        W33073  12.290   3.194   0.221  0.0302 -0.0331 -0.0652
16227W        W33074  17.738  11.181   4.760 -0.0244 -0.0130  0.1608
16228W        W33075  13.191  11.920   3.066 -0.2162  0.1404 -0.2861
16229W        W33076   0.968   5.475   1.215  0.0420 -0.1823 -0.2095
16230W        W33077   8.774   2.068  12.629 -0.3413  0.0044  0.0115
16231W        W33078   6.141   5.232  15.815 -0.2562  0.0535 -0.2419
16232W        W33079   5.441  14.974  15.178  0.1009 -0.2548  0.0678
16233W        W33080   2.807   1.484   3.511  0.0842 -0.0759  0.2627
16234W        W33081   0.419   2.427   4.868 -0.2418 -0.0952 -0.3147
16235W        W33082  12.109   4.467  12.780 -0.0033  0.0717  0.0511
16236W        W33083   6.253   4.179   2.239  0.2581 -0.2258  0.0454
16237W        W33084  11.252  11.256   5.028 -0.0640  0.1323  0.0269
16238W        W33085   1.390   1.487   3.217  0.0494 -0.1055 -0.0928
16239W        W33086   2.477   1.418  12.750 -0.0069  0.1022  0.0700
16240W        W33087  15.166   7.847   3.210 -0.2307  0.2801 -0.2119
16241W        W33088  15.278  14.799  14.211  0.1115 -0.1019  0.1462
16242W        W33089  11.418  17.547   1.182 -0.0736  0.2903  0.1177
16243W        W33090   7.418   4.743  12.078  0.1186 -0.1696  0.0369
16244W        W33091  16.435  14.623   2.356  0.1744 -0.2841 -0.0042
16245W        W33092  16.053   7.479  12.672 -0.0787 -0.1801  0.2780
16246W        W33093  10.231   0.517  14.251 -0.2617 -0.1623 -0.2203
16247W        W33094   2.844  16.781  12.240  0.3385  0.2021 -0.1101
16248W        W33095   6.365  10.029   4.970  0.2928  0.3044 -0.0106
16249W        W33096  14.994  13.727  13.901  0.2267 -0.1038  0.0240
16250W        W33097  13.945  15.322  13.520 -0.3528  0.1823 -0.0550
16251W        W33098  15.515  14.636   3.550  0.1585 -0.2654  0.0574
16252W        W33099   0.592   2.631  12.182 -0.0920  0.0215 -0.2228
16253W        W33100  11.908   7.527  15.487 -0.1521  0.1289  0.4622
16254W        W33101   8.958  17.444   2.454 -0.0366  0.1011  0.2851
16255W        W33102  17.115   6.615   4.666  0.0899  0.0258  0.0077
16256W        W33103  14.086   6.461  12.471 -0.1150 -0.2272 -0.0847
16257W        W33104   1.435  15.107  16.199 -0.3204 -0.2273 -0.0359
16258W        W33105  17.328   1.412   4.403 -0.0324  0.0607 -0.1164
16259W        W33106  13.256  13.337   0.043 -0.0431 -0.2539 -0.0263
16260W        W33107  17.758  15.491   5.959  0.1997  0.2734  0.0362
16261W        W33108   1.453   8.939   1.968 -0.3298  0.2508 -0.3244
16262W        W33109  13.339   2.970   4.584 -0.3188 -0.1426 -0.0321
16263W        W33110  10.231  14.560   1.015  0.0108  0.0293  0.0882
16264W        W33111   2.757  10.443  16.007  0.1036 -0.1867  0.2502
16265W        W33112   9.951   9.408  15.554  0.0217  0.3144 -0.2234
16266W        W33113  10.698   3.037   4.362 -0.2298 -0.0779 -0.1921
16267W        W33114  17.345   6.962  12.452  0.4238  0.0764  0.0775
16268W        W33115   8.481   9.264   5.963  0.0126  0.0528  0.1572
16269W        W33116  17.509  13.533   4.350 -0.0793 -0.2078 -0.3451
16270W        W33117   5.162   9.152   5.269 -0.1982  0.1400 -0.1010
16271W        W33118   6.994   3.545   1.269 -0.2746  0.2946  0.0983
16272W        W33119   1.839  11.219   5.145  0.2081  0.1762 -0.0118
16273W        W33120   0.805   9.007   1.315  0.0250 -0.0394  0.1627
16274W        W33121   1.724  13.652   2.491  0.1473 -0.0007  0.0519
16275W        W33122   6.946   5.677   0.596  0.0766  0.1000  0.0849
16276W        W33123   4.772  12.297  16.561  0.0623  0.2137  0.1754
16277W        W33124  12.267  11.198  14.439  0.3258  0.0083 -0.0284
16278W        W33125  15.915  17.222  15.277  0.2096 -0.0355 -0.1359
16279W        W33126   8.321  12.500  12.432  0.0869  0.0012  0.1057
16280W        W33127   8.373  11.117  13.362 -0.0831 -0.1319 -0.1482
16281W        W33128  10.188  13.110  14.838 -0.0083  0.2617  0.2645
16282W        W33129   1.585  12.964   5.458  0.0963  0.0125  0.1540
16283W        W33130  15.742  17.181   5.405 -0.1530 -0.1760 -0.1138
16284W        W33131   2.425   2.334   4.796  0.4416  0.1635 -0.0597
16285W        W33132   8.905   6.819  16.248 -0.0355  0.1441  0.0871
16286W        W33133   2.166  14.903   4.051  0.0079 -0.1586 -0.1566
16287W        W33134   9.129   9.018   1.236 -0.0724 -0.0695 -0.1397
16288W        W33135  14.777  14.829  13.448  0.2067 -0.1022 -0.1231
16289W        W33136  10.862   6.193  14.321  0.2136  0.1756 -0.1306
16290W        W33137   4.402  15.856   5.292 -0.2537 -0.1844  0.1415
16291W        W33138   4.864   5.793   0.658 -0.1545  0.3119  0.1491
16292W        W33139   2.367  10.900  14.814  0.2985  0.3208 -0.0410
16293W        W33140  16.291   6.946   5.587 -0.2037 -0.3169 -0.1927
16294W        W33141   3.216   9.144   0.117 -0.0611 -0.0988 -0.1502
16295W        W33142   8.206   5.070  16.073  0.0579  0.0807 -0.3298
16296W        W33143  12.012   0.137  16.332 -0.2763 -0.0086 -0.1165
16297W        W33144  10.184  14.944   4.591  0.0662 -0.1321 -0.0842
16298W        W33145   6.779  13.361   2.833  0.1077  0.1539 -0.1758
16299W        W33146   7.024  12.805  13.050 -0.5126 -0.1073 -0.2471
16300W        W33147   7.838   6.061   3.829 -0.2480  0.1900  0.1146
16301W        W33148  15.929  16.456   3.432 -0.0418  0.0612 -0.0543
16302W        W33149   4.332  15.542   3.641  0.1682  0.0237  0.0601
16303W        W33150   5.965  13.957   5.516 -0.0579 -0.0033  0.2224
16304W        W33151   8.171   5.561   3.893 -0.0624 -0.2629 -0.1909
16305W        W33152  12.064  15.949   4.878 -0.1215 -0.0784 -0.1901
16306W        W33153  17.121   2.086  12.379 -0.0544  0.0882  0.0955
16307W        W33154  11.126  13.184  14.530 -0.1102  0.1705 -0.1217
16308W        W33155   1.729   9.791  16.162  0.1946 -0.1592  0.0440
16309W        W33156  14.043  15.851  13.787 -0.0337  0.3735 -0.0673
16310W        W33157  11.170   5.373  13.165 -0.1766 -0.0546 -0.3569
16311W        W33158   6.821   4.315  12.948  0.1757  0.0054 -0.0030
16312W        W33159  13.720   7.783  16.610 -0.1852  0.0721  0.0007
16313W        W33160   6.442   1.761  12.231  0.1360  0.0349  0.0524
16314W        W33161  14.538   4.191  14.893  0.1429  0.3392 -0.2494
16315W        W33162   7.104   0.342   5.347 -0.1373 -0.2593  0.2737
16316W        W33163   6.593  13.188  14.263 -0.1282  0.2944  0.2155
16317W        W33164  12.784   1.214   0.691 -0.0698  0.1346 -0.0104
16318W        W33165  15.897  17.313   2.791  0.1192 -0.1119 -0.0176
16319W        W33166  15.007  16.880   3.339  0.1133  0.0776  0.0657
16320W        W33167   4.270  15.412   4.926  0.1057 -0.1515  0.0828
16321W        W33168  17.575  11.756   1.779 -0.2722 -0.1797  0.0647
16322W        W33169  12.773   4.980   5.128  0.1081 -0.0203 -0.0699
16323W        W33170  14.185  16.303   4.474 -0.1542 -0.1042 -0.0065
16324W        W33171   3.114   5.003   4.316  0.0170  0.0165 -0.3751
16325W        W33172   9.568  11.535  11.746  0.1191  0.2265 -0.1309
16326W        W33173  16.036   1.778   4.800 -0.0107  0.1120 -0.1162
16327W        W33174   8.772   0.208  16.551  0.0896  0.0899 -0.0799
16328W        W33175  15.678   3.381  12.886  0.1881 -0.0137  0.0425
16329W        W33176   9.989   5.785   3.121 -0.0602 -0.1676 -0.1763
16330W        W33177  10.369  16.142   1.924 -0.0963  0.1468  0.0281
16331W        W33178   1.566   6.868   3.417 -0.2022  0.0255 -0.2929
16332W        W33179  11.225   8.668  16.225  0.1692  0.1711  0.0943
16333W        W33180  17.258   6.589  13.424 -0.4633 -0.3353  0.1233
16334W        W33181   1.455   8.362   1.222 -0.4441 -0.0636  0.0412
16335W        W33182   5.645   8.897   2.067  0.0020 -0.1149  0.0194
16336W        W33183   8.426   0.320  15.810 -0.3401  0.1554 -0.3233
16337W        W33184   6.410   3.426   5.708 -0.1160 -0.0347  0.0782
16338W        W33185   8.988  17.172   1.982  0.1708  0.0138 -0.2803
16339W        W33186   9.383   0.079  13.237 -0.1863  0.0737  0.1277
16340W        W33187   3.071   3.882  11.626  0.1953 -0.2435  0.0530
16341W        W33188  14.869   6.150   3.239 -0.0745 -0.1279 -0.0661
16342W        W33189   1.340   9.468  15.268 -0.0297 -0.1176 -0.1071
16343W        W33190  16.710  17.931  14.481 -0.1582  0.0943 -0.2438
16344W        W33191   0.073  11.043  14.426  0.0986 -0.1306 -0.0402
16345W        W33192   8.961  12.584  15.770  0.3046  0.0602  0.0457
16346W        W33193   5.464   0.654  12.903  0.2296  0.3109 -0.3179
16347W        W33194  13.880  15.100   1.937 -0.0817  0.3239  0.0585
16348W        W33195   3.412   0.949   3.835  0.0473 -0.0963 -0.1862
16349W        W33196  10.651   1.108  13.014 -0.0411  0.1389 -0.2935
16350W        W33197   0.261   4.238   4.024  0.1009  0.0511 -0.0093
16351W        W33198   0.960  17.192   2.413  0.0757 -0.1023 -0.0901
16352W        W33199  14.340   2.433  14.266 -0.2525 -0.2240  0.0547
16353W        W33200   1.478  10.997  15.696 -0.1077  0.5494 -0.0667
16354W        W33201   1.539   9.627  11.828  0.3132 -0.1452 -0.0630
16355W        W33202   0.975   5.346   4.035 -0.1070  0.1937  0.1910
16356W        W33203  10.099  17.662  13.294  0.1106 -0.4563 -0.1817
16357W        W33204   3.639  13.563  16.414  0.2072  0.2170 -0.0638
16358W        W33205  10.441   4.246   0.883  0.0220 -0.3956 -0.0870
16359W        W33206  14.967   8.251  15.454 -0.0999  0.2528 -0.3704
16360W        W33207   4.316  12.946  16.342  0.1462  0.1517 -0.2484
16361W        W33208  16.738  15.015  12.295  0.0040 -0.4330  0.0066
16362W        W33209   6.095  10.359  14.825  0.2282 -0.0781  0.0626
16363W        W33210   9.955   4.012   4.894  0.2708 -0.1089 -0.1858
16364W        W33211   4.167   4.327   3.509 -0.0668 -0.0256 -0.0409
16365W        W33212  10.755  14.111   4.781  0.2650  0.1274  0.0218
16366W        W33213   4.932   1.800   4.102 -0.0754  0.1271 -0.5362
16367W        W33214  13.736   8.285   5.378 -0.1557  0.0804  0.0211
16368W        W33215   4.952   5.009   5.618 -0.1679  0.0658  0.1809
16369W        W33216  10.703   2.173   2.787 -0.0214 -0.0238  0.0906
16370W        W33217   6.178  14.270  13.534 -0.0289 -0.2370  0.3212
16371W        W33218  11.201   1.671   2.524 -0.1121 -0.1192  0.2908
16372W        W33219   3.582   2.460   2.794 -0.0518 -0.0528  0.3201
16373W        W33220  16.103  10.153  13.509 -0.0891  0.3994 -0.1430
16374W        W33221  10.613   9.485  16.375 -0.0861  0.2191 -0.3054
16375W        W33222   8.618  12.482  14.498 -0.0730  0.0447  0.0539
16376W        W33223  11.760  12.103  11.968 -0.2320  0.0012  0.0098
16377W        W33224  16.011  11.134   2.826  0.0345 -0.0929  0.3214
16378W        W33225   7.934  13.660   5.462 -0.2837  0.2467  0.0869
16379W        W33226  14.038   9.061   3.688 -0.0374 -0.0706 -0.0422
16380W        W33227  16.649  14.994   1.048 -0.0017 -0.2512 -0.0876
16381W        W33228   9.857   0.425  12.079 -0.2661 -0.1506  0.2167
16382W        W33229   2.125  17.184  12.132 -0.1234  0.1329 -0.2118
16383W        W33230   3.498   1.796   4.418 -0.0221  0.1758 -0.0883
16384W        W33231   1.559   4.901  12.356 -0.1686  0.1856  0.1688
16385W        W33232  14.599  10.543   5.034  0.0757 -0.2877 -0.0155
16386W        W33233   9.448   4.346  15.709 -0.0841  0.0371 -0.0512
16387W        W33234  11.907   2.902   3.632  0.3204  0.0344 -0.1365
16388W        W33235   5.131  15.880   0.178 -0.2861  0.0186  0.2248
16389W        W33236   0.535  12.277  14.058 -0.2945  0.0675 -0.0050
16390W        W33237  15.360   8.374   3.936  0.0500 -0.0787  0.2550
16391W        W33238   8.414   3.936   3.772  0.4319  0.2303  0.3170
16392W        W33239  11.066  14.202   3.127 -0.0795  0.0692 -0.1405
16393W        W33240   0.822   4.821   4.282 -0.0548 -0.0566 -0.2010
16394W        W33241   7.930  16.118   2.813 -0.0897  0.1336 -0.0510
16395W        W33242   5.865   6.841  14.607 -0.0877 -0.2444 -0.2378
16396W        W33243   7.176   1.091   4.945  0.1897  0.3099 -0.0796
16397W        W33244   9.259   0.718  11.583 -0.0336  0.1152 -0.0238
16398W        W33245   3.322  15.510  16.583 -0.3052  0.2705 -0.1756
16399W        W33246   7.962   4.006  13.332 -0.0726 -0.1559  0.0842
16400W        W33247   4.595   0.542   5.076 -0.0831 -0.2272 -0.0537
16401W        W33248   8.797  10.951  15.380 -0.0568 -0.0473  0.1384
16402W        W33249  13.432  15.702   2.636 -0.2318  0.0548  0.2626
16403W        W33250  11.393   9.103   2.076  0.1616 -0.1961 -0.1882
16404W        W33251   1.697   2.145   4.067 -0.2176 -0.3311 -0.0442
16405W        W33252  16.897  15.603   4.975  0.1731 -0.1419 -0.0191
16406W        W33253  16.557   7.392  13.824  0.1257  0.1450  0.1084
16407W        W33254   6.908  17.387   5.405 -0.0591  0.3531 -0.1618
16408W        W33255   3.847   7.511   4.835 -0.0529 -0.0499 -0.0994
16409W        W33256   0.310  12.381  14.568  0.0084  0.1240 -0.0963
16410W        W33257  15.074  16.834   1.319  0.2451 -0.1859  0.0552
16411W        W33258  14.583   1.505  11.736 -0.1638 -0.3259  0.0725
16412W        W33259   5.071   6.053   5.753 -0.0014  0.0326 -0.0495
16413W        W33260  10.688  15.247   3.759 -0.1878  0.0436  0.0866
16414W        W33261   8.388   4.395   3.996 -0.1914  0.0916 -0.1238
16415W        W33262  13.725  17.102   0.746  0.1446 -0.4634 -0.1202
16416W        W33263  13.770  15.318   3.707 -0.1197  0.1208 -0.1142
16417W        W33264  17.487  15.823  14.474 -0.3440 -0.2320  0.1742
16418W        W33265  15.133   1.342   5.207  0.5023  0.0855  0.3617
16419W        W33266   7.193   9.657  14.770 -0.2903  0.0205  0.1902
16420W        W33267   8.980   0.761  12.987 -0.2178 -0.0175  0.0106
16421W        W33268  15.412   7.414   0.343 -0.1014  0.0565 -0.0236
16422W        W33269   7.821   6.662  15.714 -0.1423  0.0668  0.0467
16423W        W33270   2.732  13.548  13.841 -0.2218  0.0557  0.2497
16424W        W33271  13.068  11.619  13.698 -0.0558 -0.1987 -0.0699
16425W        W33272   6.014   9.535  11.973  0.1127  0.0913  0.0713
16426W        W33273  14.455   6.441  14.307 -0.2487 -0.3966  0.2104
16427W        W33274  12.951  13.208   5.991  0.0974  0.2314 -0.0833
16428W        W33275   4.830  15.650  13.658  0.1483 -0.0860  0.0165
16429W        W33276  17.751   9.154   4.656 -0.3764  0.2174 -0.2131
16430W        W33277   9.176   5.868  14.108  0.0689  0.1866  0.0563
16431W        W33278  11.226  10.324   4.938  0.1822  0.2077  0.1369
16432W        W33279  16.899   8.848  15.385  0.0468 -0.0249 -0.4057
16433W        W33280   7.536  13.319  14.874 -0.0879  0.1004 -0.0410
16434W        W33281  12.102  13.389  12.279  0.1861 -0.2246  0.0939
16435W        W33282  17.493   0.789  15.498 -0.0683  0.1354  0.0258
16436W        W33283   4.373   0.161  15.436  0.1281 -0.2605  0.2895
16437W        W33284  12.489  14.525  12.699 -0.0181  0.0577 -0.0463
16438W        W33285  17.431   5.276  16.450 -0.2029 -0.0660  0.0792
16439W        W33286  10.027   6.325   4.830 -0.0560 -0.0572 -0.1454
16440W        W33287   4.986   6.469   4.615  0.2496 -0.1817  0.0455
16441W        W33288  14.649   8.878   2.350 -0.3513  0.0613 -0.0397
16442W        W33289  13.743  13.524  15.138  0.2112  0.1367 -0.1107
16443W        W33290  16.469   9.873   2.256 -0.2138 -0.2842 -0.1432
16444W        W33291  10.283  12.549  12.084  0.2812  0.1042  0.2595
16445W        W33292   3.046  17.421  14.780 -0.1397 -0.1454  0.0606
16446W        W33293   4.299  13.636  15.773  0.0230 -0.0440  0.1243
16447W        W33294   3.014  11.048   4.213 -0.1759 -0.1591  0.2672
16448W        W33295   8.129  15.735  13.696  0.0672  0.0855 -0.0720
16449W        W33296   4.684  11.718  11.725  0.1337 -0.2588  0.0034
16450W        W33297  15.551  10.040  12.867 -0.3989 -0.1578  0.2614
16451W        W33298   2.649   9.877   3.974  0.2069 -0.1449  0.1965
16452W        W33299  13.221   3.037   3.178  0.0169  0.0124 -0.0875
16453W        W33300  14.484  17.364  16.605 -0.1165 -0.1129  0.0162
16454W        W33301  11.815   0.039  14.960  0.1840 -0.1126 -0.1381
16455W        W33302  13.150   6.846  15.528  0.0152  0.2276  0.2600
16456W        W33303  14.282  15.728  16.676  0.1745  0.1356  0.0205
16457W        W33304  17.740   5.629   2.527  0.0957  0.0821  0.1997
16458W        W33305   8.296   7.563   2.912 -0.1556 -0.0735  0.1352
16459W        W33306  14.647   0.599   2.051  0.0462  0.2443  0.2534
16460W        W33307   1.811   8.054   1.606  0.0168 -0.0852 -0.3527
16461W        W33308   8.255   7.956   1.411 -0.1563 -0.2207  0.0140
16462W        W33309   3.264   1.991   1.195 -0.2782  0.1321  0.1370
16463W        W33310   2.865  12.613  13.733  0.2659 -0.2804 -0.1557
16464W        W33311  10.407   0.110  14.931  0.0826  0.5202 -0.0078
16465W        W33312  16.322   3.112   4.870  0.0329  0.1746  0.0967
16466W        W33313   5.356  15.869  12.917 -0.1520  0.1261  0.2456
16467W        W33314   3.569   9.665  16.008  0.0492 -0.0353 -0.0539
16468W        W33315   8.136   9.442   5.619 -0.1468  0.0909 -0.0003
16469W        W33316  12.497   7.688   2.714  0.1381 -0.0370  0.0896
16470W        W33317   4.648  14.794  12.167  0.4069 -0.1751  0.3572
16471W        W33318  14.614   2.452   6.130  0.1743 -0.0381 -0.0574
16472W        W33319  17.572  13.496  12.441 -0.1915 -0.1303 -0.1344
16473W        W33320  10.649  14.251   5.762  0.2469  0.0766 -0.1043
16474W        W33321  14.843  11.242  13.791  0.0110  0.0775  0.1793
16475W        W33322   5.417  12.996   2.528 -0.3172  0.0378  0.0819
16476W        W33323   7.558   4.470   1.894 -0.2499  0.2872  0.1788
16477W        W33324  16.257   9.396   0.243 -0.2618  0.0014 -0.1089
16478W        W33325  14.520  12.966   5.809  0.3481  0.1836 -0.2699
16479W        W33326   8.959  17.666  12.560  0.0290 -0.0123  0.1070
16480W        W33327  15.217   0.662   3.253  0.1980  0.2389  0.1498
16481W        W33328   4.890  11.119  16.443 -0.0552  0.0640 -0.0498
16482W        W33329   9.941  17.613  12.321 -0.2666  0.1104  0.1640
16483W        W33330   5.593   1.810   1.830  0.0120  0.2990 -0.2673
16484W        W33331   6.283  14.608   1.668  0.1382 -0.0591 -0.0272
16485W        W33332   1.327   0.247  15.421  0.2228 -0.0774 -0.0583
16486W        W33333   0.458  11.058   4.770 -0.2362 -0.3557 -0.0326
16487W        W33334  11.557   9.594  14.854 -0.1437 -0.0092 -0.2255
16488W        W33335   1.810  15.192  12.406 -0.0125 -0.0117  0.1473
16489W        W33336   8.849   2.407  15.133 -0.1191 -0.0535  0.4253
16490W        W33337  15.428   1.162  13.421  0.3204  0.0367 -0.4938
16491W        W33338   1.963   0.765   0.756 -0.1080 -0.1165 -0.2510
16492W        W33339  10.150   9.897   4.282  0.1539 -0.0768  0.2341
16493W        W33340   8.337  13.741   4.711  0.0105 -0.0123 -0.0010
16494W        W33341  10.966   9.063  11.502  0.0656 -0.2426 -0.0949
16495W        W33342   6.795  15.332   1.231 -0.0615 -0.0273  0.0077
16496W        W33343   7.158  10.848   2.488  0.1759  0.3035 -0.0389
16497W        W33344  13.265   2.448   4.444 -0.1350 -0.0160 -0.2757
16498W        W33345   8.741   6.607  11.934  0.1858  0.0191  0.0540
16499W        W33346   0.683  17.273   2.018 -0.1676 -0.4854 -0.1604
16500W        W33347   2.697  14.547  15.997  0.1750 -0.0329 -0.1786
16501W        W33348   5.733  16.088   5.404  0.1836 -0.2433  0.0580
16502W        W33349   8.731  15.312  14.529  0.0868  0.1332  0.1737
16503W        W33350   1.797  13.796  14.760  0.0883 -0.2931  0.3056
16504W        W33351   9.942   0.704   3.123  0.1514 -0.0097 -0.1132
16505W        W33352   3.064   3.190  14.457 -0.1509 -0.1576  0.2008
16506W        W33353   4.354   7.644   6.012  0.0212  0.3147 -0.0782
16507W        W33354  15.335  17.326  14.672  0.1165  0.0466 -0.1013
16508W        W33355  13.548  10.184  15.796 -0.0991 -0.2575 -0.0888
16509W        W33356  12.428  15.917   4.250  0.1731  0.1588  0.0614
16510W        W33357   8.188   5.767  16.783  0.2234 -0.1111  0.0150
16511W        W33358  15.610  15.152   4.055 -0.0705  0.1187  0.0336
16512W        W33359  10.803   4.547  10.641  0.1282  0.0512  0.3449
16513W        W33360  14.771  17.360  15.051 -0.0970 -0.2097  0.3415
16514W        W33361   4.640   5.475  12.428  0.1173 -0.0657  0.0165
16515W        W33362   9.255  13.522  12.774  0.3019 -0.1624 -0.0990
16516W        W33363  17.440   9.943  12.976 -0.0023  0.0502 -0.0141
16517W        W33364  17.063   5.889  14.540  0.2958 -0.1259  0.2316
16518W        W33365   0.980  10.477   1.154 -0.0092 -0.0825 -0.2034
16519W        W33366   3.769  13.812   0.061 -0.1856 -0.0574  0.2353
16520W        W33367   9.728   3.918  14.418  0.0174 -0.0450  0.0091
16521W        W33368  13.248   4.196   0.277  0.0331 -0.0147 -0.0062
16522W        W33369  14.144   0.354  12.164  0.0653  0.0854 -0.0760
16523W        W33370   6.958   2.717   1.085  0.1417 -0.1253 -0.2042
16524W        W33371   1.893   4.517  12.398 -0.2629  0.1229 -0.1499
16525W        W33372   0.022   0.296   2.581 -0.2392  0.2436  0.0435
16526W        W33373  14.563   3.800   3.260 -0.2671  0.1084  0.1432
16527W        W33374  16.890   2.943  14.595 -0.0648 -0.3792 -0.2123
16528W        W33375  14.060   6.294  13.577 -0.0247 -0.1170 -0.1024
16529W        W33376   1.422   0.393  13.509 -0.1497  0.0994 -0.1313
16530W        W33377  11.456   5.735  14.495  0.0373 -0.1312  0.1892
16531W        W33378  16.420   6.931   5.097 -0.3458 -0.1335 -0.3633
16532W        W33379  14.288  15.012   0.553 -0.2716 -0.0769 -0.1122
16533W        W33380  16.105  14.223   1.501 -0.0352  0.1979  0.2692
16534W        W33381  16.466  13.518   0.094  0.0550  0.1045  0.1243
16535W        W33382   6.100   7.614  12.343  0.0220 -0.0748 -0.1709
16536W        W33383  14.635  12.091  12.827 -0.1504 -0.0378 -0.2413
16537W        W33384  11.364   5.124  15.390 -0.3946  0.2962 -0.2173
16538W        W33385   9.260   0.719   4.207 -0.0554  0.3523 -0.2592
16539W        W33386   4.542   9.882  16.095 -0.2368 -0.0872  0.0514
16540W        W33387  15.919   9.109   0.427  0.2904 -0.0245 -0.0192
16541W        W33388  12.423   6.431   5.636  0.2213 -0.0095 -0.0376
16542W        W33389   2.110   2.571  16.108 -0.1794  0.0443 -0.2070
16543W        W33390   7.202   1.934   0.522  0.1426 -0.2567  0.3458
16544W        W33391  17.379   1.995  16.038  0.0349 -0.0961 -0.2480
16545W        W33392   2.620  12.549   3.888  0.0965  0.0486  0.1624
16546W        W33393  15.773  11.653   0.903  0.0132  0.0390  0.0062
16547W        W33394   4.494   2.856  12.414 -0.0074 -0.0254 -0.4529
16548W        W33395   9.704   5.435   6.292 -0.0543 -0.1289  0.1292
16549W        W33396  11.714   8.311  16.312 -0.1262 -0.0440 -0.6358
16550W        W33397   0.281  12.859   1.530 -0.2269 -0.0023  0.1667
16551W        W33398  16.606   5.083   4.763  0.1125  0.1077 -0.0616
16552W        W33399   8.448  14.541  13.077 -0.1004  0.0279  0.2056
16553W        W33400   3.578  16.238  12.468  0.0045 -0.0025  0.1766
16554W        W33401   6.509  10.600   2.641  0.1944 -0.3397  0.2481
16555W        W33402   6.360   5.233   2.680 -0.0808  0.0107 -0.2051
16556W        W33403   4.821  11.980   5.053 -0.4169  0.2776  0.1993
16557W        W33404  16.046   3.237   3.633  0.4571  0.1517  0.0947
16558W        W33405   4.019  14.252   0.031  0.0039  0.0285  0.3308
16559W        W33406   9.596  13.540  12.381 -0.0606  0.1580 -0.0378
16560W        W33407   1.061  10.773  16.624 -0.1946 -0.4761 -0.0314
16561W        W33408  10.962   7.306   4.316  0.0281 -0.0681  0.0113
16562W        W33409   9.533   6.946   2.348 -0.0160  0.1965 -0.3189
16563W        W33410   5.616   4.473   1.249  0.0526 -0.0852  0.0570
16564W        W33411  13.728  14.537   3.678  0.2404 -0.2027 -0.2650
16565W        W33412   0.956   6.447  15.561 -0.1831  0.3020  0.3226
16566W        W33413   2.127   2.019   1.468  0.1449 -0.4870 -0.1380
16567W        W33414  11.207   8.940   4.501  0.0046  0.1882 -0.1225
16568W        W33415  10.006   5.673   5.403 -0.2651 -0.1565 -0.4598
16569W        W33416  10.293  11.600   1.716  0.0810  0.0545 -0.0735
16570W        W33417   6.058   9.730   0.070 -0.1884 -0.4311 -0.0059
16571W        W33418   8.439  16.506   5.938 -0.0982  0.0473  0.2893
16572W        W33419   2.170   9.913   4.221  0.2036 -0.0438 -0.3563
16573W        W33420  10.260  15.612   0.175  0.0702 -0.2179  0.1554
16574W        W33421   1.297   3.376   2.181  0.2798 -0.2518 -0.1079
16575W        W33422  14.344   6.256  12.102 -0.0141 -0.2467 -0.0154
16576W        W33423  12.197   4.736  16.319 -0.1024 -0.0535  0.2942
16577W        W33424  13.993   1.591  13.699 -0.2609 -0.1421  0.0151
16578W        W33425  12.036   5.082   2.271 -0.0940 -0.1550 -0.0072
16579W        W33426   4.544  15.754  14.160 -0.0192  0.3535  0.2064
16580W        W33427  16.054   1.614  13.141  0.0677  0.2266  0.1478
16581W        W33428   0.973   4.505   1.301  0.1169 -0.0473 -0.1215
16582W        W33429  14.189   0.726  13.275  0.1527 -0.0476 -0.0753
16583W        W33430  16.709   3.614  15.209 -0.0424 -0.2247 -0.4123
16584W        W33431   1.105  11.820  13.123 -0.0556 -0.0619  0.0124
16585W        W33432   8.995  12.666   4.737  0.1414  0.1184 -0.3020
16586W        W33433   7.819   3.652  15.566 -0.3006  0.1201 -0.0422
16587W        W33434  10.694   6.353  15.365 -0.1605  0.2600  0.0801
16588W        W33435  15.286   7.489  13.597 -0.0070  0.1919  0.0579
16589W        W33436   9.086  16.964  13.188 -0.0356  0.3731  0.0854
16590W        W33437   4.866  17.509  16.668  0.2460  0.1459  0.0438
16591W        W33438   2.942   1.626   2.722 -0.2992  0.0044 -0.0170
16592W        W33439  16.421   5.110   5.214 -0.0116 -0.1856 -0.0792
16593W        W33440  12.525  12.371  13.383 -0.4587  0.1347 -0.1186
16594W        W33441  17.951   2.891  10.975  0.0929  0.1554 -0.2825
16595W        W33442  10.713  12.165  16.182 -0.0750 -0.1000 -0.1202
16596W        W33443   5.736  13.473   5.778  0.0203  0.0470  0.0337
16597W        W33444  15.070  16.204  11.829  0.3309  0.2436  0.0044
16598W        W33445   6.162   9.300   4.078  0.0631  0.0058  0.3263
16599W        W33446   5.896   8.309   0.602 -0.1190  0.2491  0.1415
16600W        W33447   5.961   9.170   4.990 -0.3783  0.1547 -0.1476
16601W        W33448   8.505  16.780  12.792 -0.1332  0.1908 -0.0322
16602W        W33449   6.480  17.144   2.455 -0.0054  0.0041  0.2521
16603W        W33450  11.864   8.058  15.500  0.0597 -0.0541 -0.2602
16604W        W33451   7.411   0.800   4.423 -0.1610 -0.2177  0.0720
16605W        W33452   2.125   0.021  14.205  0.0915 -0.1129  0.1896
16606W        W33453  14.404   3.069  11.685 -0.0840  0.1183 -0.0937
16607W        W33454   5.759   4.040   4.440  0.2529  0.1684  0.0975
16608W        W33455  12.941   8.353   3.538 -0.2229  0.0814 -0.0349
16609W        W33456   0.427  10.689  14.434  0.0215 -0.0249 -0.0157
16610W        W33457  15.669  12.251  16.332 -0.2956 -0.1300 -0.1948
16611W        W33458   3.726  16.381  15.241  0.2109  0.1632 -0.0207
16612W        W33459  14.234   9.399   0.694 -0.0527 -0.1642 -0.0325
16613W        W33460  17.071  14.274  13.820  0.2881 -0.3294  0.0258
16614W        W33461  13.764  14.515  15.184  0.0354 -0.0166 -0.0781
16615W        W33462   7.217   5.687   5.458  0.1902  0.1607  0.0971
16616W        W33463   0.879   0.455  15.669  0.1195  0.2277 -0.0344
16617W        W33464  11.743  17.322  10.906 -0.1879  0.0708  0.0440
16618W        W33465  12.082   8.223  14.855 -0.0649 -0.0918  0.0246
16619W        W33466   2.154  13.393   2.403 -0.2447 -0.0419  0.4208
16620W        W33467  13.787  11.785   4.868 -0.0463 -0.0657  0.0355
16621W        W33468  12.495  17.321  16.772 -0.3069  0.1791 -0.2437
16622W        W33469  15.673  17.087  13.400 -0.2503  0.1050 -0.4440
16623W        W33470  10.722   4.581  15.915 -0.0022 -0.1946  0.0191
16624W        W33471   0.842  17.772  13.707 -0.1031 -0.0084  0.0602
16625W        W33472   1.927  15.392  12.995 -0.1385 -0.0667 -0.0121
16626W        W33473  10.021   6.274   3.129  0.3504 -0.0064 -0.0578
16627W        W33474  12.487   4.139  16.571  0.1829 -0.1279  0.2365
16628W        W33475   1.167  15.953  13.273  0.0146  0.1915 -0.2528
16629W        W33476  15.035  14.703   5.225  0.1549  0.0279  0.0970
16630W        W33477   5.485   0.221   2.343 -0.1053  0.3979 -0.1540
16631W        W33478   7.617   2.128  14.660  0.1757 -0.0219  0.2413
16632W        W33479  15.236  10.612  15.957 -0.0850  0.1991  0.3964
16633W        W33480  17.285   3.683  16.103 -0.1716  0.0285  0.0161
16634W        W33481  16.451   4.133   5.170  0.0324  0.1166  0.2764
16635W        W33482   9.940  17.345   1.159  0.2888  0.1018 -0.0119
16636W        W33483   4.192  12.736   6.072 -0.1566  0.4224  0.0621
16637W        W33484   4.841   8.008  12.477 -0.2648  0.2317 -0.0636
16638W        W33485   6.398   0.282  16.385 -0.6033  0.0786 -0.1178
16639W        W33486   9.949   1.778  16.592 -0.0597  0.0361 -0.1093
16640W        W33487  14.381   8.618   4.699  0.1380 -0.0722  0.2236
16641W        W33488  15.331   0.608   4.678 -0.0846  0.0123 -0.0561
16642W        W33489   6.633  17.798  13.628  0.1244  0.2126  0.3956
16643W        W33490  16.892  12.494   1.735 -0.1112 -0.1353  0.1436
16644W        W33491   4.341   7.042  12.126  0.1858 -0.3227 -0.0667
16645W        W33492   1.519  14.269   5.706 -0.2671 -0.1843  0.4136
16646W        W33493   8.996  17.169  14.043 -0.2671 -0.2635  0.1729
16647W        W33494  11.844   7.631  13.460 -0.0688  0.1306  0.1554
16648W        W33495  11.590  12.942  11.882  0.2484 -0.0727 -0.3092
16649W        W33496  13.831   2.227   0.892  0.0568  0.2978 -0.2588
16650W        W33497   4.235   9.542   4.374  0.4081  0.3072 -0.3744
16651W        W33498   3.770   6.416  13.426  0.1844 -0.0054 -0.0072
16652W        W33499   9.215   3.268  11.940 -0.0526 -0.1930  0.2116
16653W        W33500   1.139  11.764   1.506 -0.1556  0.1059  0.0384
16654W        W33501  14.871  13.355   3.646 -0.1745  0.2814  0.1851
16655W        W33502   2.303   0.290   1.892 -0.0113  0.1142  0.2237
16656W        W33503   8.952  14.605  15.208  0.0961  0.3229  0.0820
16657W        W33504  14.914   3.408  11.633  0.2230  0.2268  0.0301
16658W        W33505  12.693   5.257   2.866  0.0286  0.0939  0.2902
16659W        W33506   0.714   7.453   1.948  0.0745 -0.3138 -0.0181
16660W        W33507   3.735  10.581   1.953  0.1441 -0.0565  0.0082
16661W        W33508  11.171   7.136  16.225 -0.0795 -0.0511 -0.2784
16662W        W33509  12.322   4.966  13.408 -0.2258 -0.1317  0.0910
16663W        W33510  11.699  13.141  14.412 -0.2203  0.0065  0.0208
16664W        W33511  10.118  17.932   2.315 -0.1649 -0.1131 -0.0128
16665W        W33512   1.502  10.038   0.782  0.1402 -0.0531 -0.1176
16666W        W33513  12.261  16.893   0.718  0.4392 -0.0943  0.0722
16667W        W33514   5.751  14.046   3.648 -0.0792 -0.2799 -0.0657
16668W        W33515   5.368   7.216   5.611  0.0863  0.0122 -0.2102
16669W        W33516   9.329  13.589  14.122  0.0618  0.2030 -0.1194
16670W        W33517  14.220  16.293   1.666  0.0170 -0.0604 -0.0369
16671W        W33518  14.335  17.872  11.351  0.1541 -0.1066 -0.0982
16672W        W33519  13.486   6.950  11.769 -0.3939 -0.1132 -0.1526
16673W        W33520  15.349   2.284   1.245 -0.0003  0.3920 -0.2944
16674W        W33521   4.668  15.186   2.158 -0.3985 -0.1247 -0.0687
16675W        W33522   8.612   4.367  14.296  0.2673 -0.2145  0.2235
16676W        W33523  12.459  10.878  14.802  0.0880  0.0187  0.0444
16677W        W33524   8.129  16.604  14.107  0.1550  0.0890 -0.4048
16678W        W33525  15.059   0.814   4.329 -0.1349 -0.0446 -0.1496
16679W        W33526   9.351   0.871   2.477 -0.2480  0.3178  0.3807
16680W        W33527   1.723  15.880   2.894 -0.3941 -0.0918 -0.2012
16681W        W33528   9.521  11.171  15.840 -0.0497  0.1264 -0.1272
16682W        W33529   6.929  11.383  12.845  0.2230  0.0580  0.0208
16683W        W33530  17.767  17.083   0.827 -0.1267 -0.1338 -0.2546
16684W        W33531   5.045   9.961   5.779 -0.0243  0.3461 -0.1607
16685W        W33532   8.699  15.182  13.474 -0.0455  0.0880 -0.1722
16686W        W33533  12.023  16.827  15.600 -0.0115 -0.3153 -0.1264
16687W        W33534   2.423   8.779   1.937 -0.4151 -0.1068  0.2775
16688W        W33535   7.999  10.743   3.085  0.0146 -0.1451 -0.0618
16689W        W33536  16.185   2.843   4.474  0.1439  0.0261  0.0798
16690W        W33537   4.984   2.210  13.198  0.4287 -0.2558  0.0937
16691W        W33538   7.063   2.693   1.570  0.0567  0.0978  0.1358
16692W        W33539   9.181   2.989  16.019  0.1042  0.1795  0.0888
16693W        W33540  11.777  10.052   2.353  0.0341 -0.0867  0.3447
16694W        W33541  12.529   6.348  13.989 -0.2703 -0.1195 -0.1734
16695W        W33542  15.691  13.318  14.293  0.1569  0.2385 -0.1814
16696W        W33543   7.484   0.484   4.009 -0.1287  0.0609  0.0514
16697W        W33544  17.306  16.184   3.071  0.2036 -0.1797 -0.1790
16698W        W33545   7.515  17.536  15.250  0.3002 -0.0658  0.0176
16699W        W33546  10.239  14.601   0.525 -0.1504  0.0040  0.1598
16700W        W33547  14.736   1.282   0.773  0.1141  0.1609  0.2586
16701W        W33548  14.141  12.016   5.871 -0.1578  0.0412 -0.0128
16702W        W33549  16.918   1.543   2.031 -0.3741  0.1827 -0.0908
16703W        W33550  17.556  12.078  16.675 -0.0880 -0.2334 -0.0008
16704W        W33551   6.710   9.820   5.253  0.1089 -0.1339  0.1396
16705W        W33552   9.877  14.181   0.847  0.1403  0.0366  0.1995
16706W        W33553   5.379   1.478  15.581 -0.2951 -0.2025  0.5645
16707W        W33554   4.760   2.734  13.568 -0.0247  0.1849 -0.0328
16708W        W33555  15.182  11.282   3.203  0.0415 -0.0134 -0.0327
16709W        W33556  12.253  11.902  11.928  0.1934 -0.0105  0.0348
16710W        W33557   4.200   3.366  12.175  0.0856  0.1555  0.0289
16711W        W33558   6.761   8.228   4.233  0.1277 -0.0077  0.0081
16712W        W33559  11.042  11.466   3.685 -0.2092 -0.0408  0.0451
16713W        W33560   8.606  10.110   1.939  0.1438 -0.2816 -0.0676
16714W        W33561  15.244   7.058   5.021  0.0153 -0.1375 -0.2780
16715W        W33562   8.101  12.382  14.252 -0.1879  0.1721  0.0351
16716W        W33563   3.966  17.586   4.354 -0.1628  0.1047 -0.0542
16717W        W33564  17.744   4.165   0.911  0.1656  0.0138 -0.1737
16718W        W33565  11.110   9.497  14.989  0.3050 -0.3606 -0.2966
16719W        W33566  10.898   1.756  11.878 -0.2264 -0.0856 -0.0402
16720W        W33567   7.644  16.039  13.605  0.2395  0.1237 -0.2799
16721W        W33568  14.770   8.803   3.447 -0.0060 -0.2222  0.1261
16722W        W33569   2.758  14.158  11.986  0.0591 -0.0236  0.0518
16723W        W33570   4.236  17.372  12.929 -0.0138 -0.2045  0.0547
16724W        W33571  11.004   8.983   3.137 -0.1357 -0.0104 -0.0092
16725W        W33572   5.370  16.142  14.399  0.3858 -0.0752  0.1186
16726W        W33573   9.358  17.593   0.994  0.3068  0.0668 -0.2766
16727W        W33574  14.186  10.226  13.116 -0.0320 -0.1448 -0.3092
16728W        W33575  13.991  14.395  13.028 -0.0879 -0.1206  0.1914
16729W        W33576  13.813   9.149   1.999  0.2121 -0.0400  0.1489
16730W        W33577   8.850  11.469  13.551  0.1136 -0.1556  0.4100
16731W        W33578   9.889   8.660   3.714  0.0782 -0.0177  0.2352
16732W        W33579  11.537  12.697  15.186  0.0593  0.2482 -0.1543
16733W        W33580   8.198  14.500   4.409 -0.0196  0.4318 -0.1938
16734W        W33581  10.297  16.065   4.886  0.2260  0.0441  0.1796
16735W        W33582  17.835  14.133  16.207  0.3198 -0.3392 -0.1759
16736W        W33583   0.975   9.863  15.110 -0.0588 -0.1772  0.1699
16737W        W33584  17.504  15.054  12.841 -0.0545 -0.1294  0.1223
16738W        W33585   6.711   4.795   1.094  0.1972  0.1316  0.0219
16739W        W33586  16.706   9.364  12.280  0.1257 -0.0646 -0.1302
16740W        W33587  13.839  13.014   0.535  0.4242 -0.1411  0.2566
16741W        W33588  13.208  11.153   0.434  0.0578 -0.0159 -0.3160
16742W        W33589   2.876   9.041  16.486 -0.3069  0.0540 -0.1516
16743W        W33590  17.946   8.725  14.309  0.1530 -0.1187  0.1348
16744W        W33591   0.467   3.576   0.165 -0.1798 -0.0236 -0.1100
16745W        W33592  17.487  14.836  15.857  0.0706  0.1143 -0.0260
16746W        W33593   0.729   9.504   1.095 -0.2529  0.0982  0.3118
16747W        W33594   1.440  14.814  14.941  0.0162  0.0302 -0.2580
16748W        W33595  13.764  15.543  12.025  0.3509  0.1708 -0.0481
16749W        W33596  16.476   8.397   4.756 -0.0455 -0.0518 -0.1177
16750W        W33597   0.251   3.933  11.683 -0.1330  0.0026  0.0123
16751W        W33598   8.088   9.403   0.895  0.0024 -0.0147 -0.0451
16752W        W33599   2.109   2.647  11.345 -0.0115 -0.1313  0.4356
16753W        W33600   0.441  13.216  13.940 -0.3353  0.1422 -0.1713
16754W        W33601  14.174   0.275   5.302 -0.1919 -0.0624 -0.1157
16755W        W33602   8.556   1.714  13.397 -0.0086  0.0167  0.3271
16756W        W33603   1.553  13.899   4.672  0.0004 -0.0043  0.3057
16757W        W33604   6.644   3.353  11.258 -0.1025 -0.1049 -0.0030
16758W        W33605   7.536   8.913   1.310 -0.1021  0.1386  0.1695
16759W        W33606   2.071   0.266  15.801  0.0055 -0.0317  0.1893
16760W        W33607  11.425   6.489   4.237  0.2606  0.1166  0.2297
16761W        W33608  11.520  11.972   5.686 -0.1671  0.0819 -0.0837
16762W        W33609   0.438   0.107   2.420 -0.0904  0.0887 -0.1379
16763W        W33610   1.826   9.557  15.279 -0.0683  0.0581 -0.0139
16764W        W33611   5.522   2.348  14.478 -0.0931  0.1243  0.0831
16765W        W33612   2.898  17.556   2.145  0.1672  0.1572 -0.0255
16766W        W33613   9.379  17.622   5.017  0.2220  0.0575 -0.0919
16767W        W33614  14.133   2.502  16.337 -0.3954 -0.2191 -0.0081
16768W        W33615  10.031  17.848  16.772  0.2969 -0.0309  0.0783
16769W        W33616  15.848   6.700   0.069 -0.1707 -0.1876 -0.0033
16770W        W33617   1.026  17.499  14.107 -0.1257 -0.1763  0.0342
16771W        W33618   9.003   9.524   5.328  0.3187 -0.2140 -0.0603
16772W        W33619   9.260  11.266   1.429 -0.2095 -0.3491 -0.0129
16773W        W33620   5.289   5.843   1.451  0.1484 -0.1734 -0.0496
16774W        W33621   7.836   5.462  14.101 -0.3736 -0.3616 -0.3869
16775W        W33622   1.007  14.970  11.372 -0.2084 -0.2110  0.2095
16776W        W33623  14.816  10.395   2.212  0.0672  0.1992  0.3014
16777W        W33624   0.722   0.850  12.900  0.3039  0.2004 -0.1333
16778W        W33625   6.785   3.686   0.247 -0.0116  0.0368 -0.2350
16779W        W33626   7.346   0.547   0.718  0.3098  0.0635  0.0596
16780W        W33627   4.555   7.918   0.059 -0.2314 -0.1854 -0.1056
16781W        W33628  10.925   3.617  16.142 -0.0797  0.1996  0.1748
16782W        W33629   2.144   9.041   4.930  0.5581  0.3224 -0.0995
16783W        W33630   0.904  10.223  15.799  0.0009  0.1668 -0.4157
16784W        W33631   4.383  16.372  16.492  0.3347  0.0408  0.2919
16785W        W33632   8.133   9.006  12.989 -0.1807  0.0376  0.1437
16786W        W33633  12.125   7.232  12.295 -0.1973 -0.0127 -0.1574
16787W        W33634  17.573   1.636  12.129  0.0929 -0.1809 -0.0786
16788W        W33635  14.540   8.848   4.226  0.1082 -0.0516 -0.1739
16789W        W33636   4.017  12.188   3.319  0.2962  0.0586 -0.0508
16790W        W33637   0.514   9.952  12.696  0.2491 -0.1711 -0.0904
16791W        W33638  11.786  16.755  14.502 -0.1013  0.1137 -0.1019
16792W        W33639  11.563  13.163   1.443 -0.0566  0.0585  0.1535
16793W        W33640   9.562   8.435   5.621 -0.1281 -0.2059  0.0081
16794W        W33641  17.680  10.259  11.623 -0.2332 -0.2202 -0.2064
16795W        W33642   7.173   5.459   3.585 -0.1410 -0.0335  0.5131
16796W        W33643   6.552   3.111   3.986  0.0360 -0.0846  0.0828
16797W        W33644  13.705   1.245  13.323  0.0412  0.0669  0.1918
16798W        W33645   3.448   3.039   1.539 -0.2851  0.0261  0.2501
16799W        W33646   2.774  16.505   3.527  0.1000 -0.2127 -0.0013
16800W        W33647   8.844   6.282   4.086  0.0430  0.0650  0.1611
16801W        W33648  10.919  14.701  16.062 -0.2413 -0.0604  0.0617
16802W        W33649  10.612   4.893   5.039 -0.1906 -0.0548 -0.1214
16803W        W33650   6.291   5.116   1.282  0.1270 -0.0528  0.0204
16804W        W33651  16.313   0.612   0.286  0.1715 -0.0254  0.1579
16805W        W33652   3.473   2.292  16.547  0.0526  0.1272 -0.2042
16806W        W33653   3.734  15.165   2.443  0.1619 -0.1615 -0.1551
16807W        W33654   7.767  13.288  12.756  0.1164 -0.0219  0.0173
16808W        W33655   2.621   5.854  15.620 -0.0259  0.0583 -0.0336
16809W        W33656   0.771  16.278  13.713  0.4230 -0.1555 -0.2069
16810W        W33657   5.337  16.790  16.720  0.0617  0.2417 -0.1839
16811W        W33658  11.814   6.220   0.532 -0.0932 -0.1171 -0.1832
16812W        W33659   6.729   1.736   4.266 -0.2982 -0.3026  0.0751
16813W        W33660   7.710   7.695  13.033  0.0572  0.1024  0.0824
16814W        W33661   2.425  10.766  16.285 -0.1353 -0.0324 -0.1982
16815W        W33662  15.950  14.800  12.274  0.0468 -0.0407  0.0078
16816W        W33663   4.386   5.682   5.452  0.1906 -0.0620  0.0963
16817W        W33664  10.892   6.313   2.849  0.1085  0.3857 -0.0207
16818W        W33665   6.421   4.448   0.039 -0.3764  0.1859 -0.1021
16819W        W33666  14.002  14.782   2.731  0.1712 -0.1011 -0.3418
16820W        W33667  15.517   8.597  13.796  0.0733  0.0019  0.0029
16821W        W33668  16.744   8.089   0.619 -0.1258  0.0993 -0.1182
16822W        W33669  13.362  14.611   5.714 -0.1926 -0.1592  0.0541
16823W        W33670   6.945  15.201   2.319  0.2499  0.1012  0.1519
16824W        W33671  15.856  13.313   1.326  0.3459 -0.0002  0.2639
16825W        W33672   2.569   9.372   4.910  0.2637 -0.2012  0.2410
16826W        W33673  15.601  14.095   3.569 -0.1781 -0.2690 -0.0652
16827W        W33674   2.879  15.755  11.370 -0.1244 -0.0103 -0.2334
16828W        W33675   8.248  15.271  13.938  0.1435  0.1376  0.4098
16829W        W33676   7.799  12.109   2.125 -0.0081 -0.0643 -0.1570
16830W        W33677  11.947   7.877  13.016 -0.0176  0.2129  0.3280
16831W        W33678  14.668  17.262   4.412 -0.0148  0.0544 -0.0407
16832W        W33679   3.275  10.472   0.066  0.1234  0.0429 -0.2817
16833W        W33680  13.959  16.714  15.475  0.1676  0.0645 -0.0374
16834W        W33681  11.631   1.266   0.025 -0.0687  0.1152 -0.1751
16835W        W33682   6.276   9.908  14.716  0.0144 -0.0369 -0.0295
16836W        W33683   0.183   0.054  14.808 -0.1413 -0.2903  0.0765
16837W        W33684   1.304   2.385  13.629  0.2202  0.0814  0.1861
16838W        W33685  11.640   9.332  12.444  0.1349  0.2675  0.0893
16839W        W33686   2.467  15.825   1.589 -0.1640  0.1415  0.1095
16840W        W33687   6.897   9.522  13.745  0.0867 -0.0057 -0.1908
16841W        W33688   2.277   3.243  15.141 -0.0181 -0.1933  0.1271
16842W        W33689   7.260  16.359  15.180 -0.1038 -0.2462 -0.0198
16843W        W33690   0.108   2.663   1.502  0.1994  0.0549 -0.0797
16844W        W33691   6.366   3.464   0.581 -0.0004  0.1213 -0.0443
16845W        W33692  14.487   7.774  13.012  0.0494  0.0831  0.1097
16846W        W33693  16.986   7.600   4.640 -0.0507  0.2049  0.0800
16847W        W33694   6.875  14.509   5.481  0.0009  0.4161  0.0922
16848W        W33695   1.667   6.144   5.215 -0.1061  0.1626 -0.2247
16849W        W33696  16.810   5.051   4.294  0.1910 -0.0330 -0.1826
16850W        W33697  11.816  12.301  12.994 -0.0105 -0.1249 -0.0357
16851W        W33698   0.942  13.022  16.189  0.0357 -0.0670  0.0557
16852W        W33699   6.630   9.378   5.563 -0.0841  0.0264 -0.2012
16853W        W33700   8.660  14.402   6.143  0.0433  0.2287  0.1061
16854W        W33701   4.935   3.958   0.921 -0.1465  0.5042  0.3625
16855W        W33702  16.919  11.398  15.520  0.1352  0.2019 -0.1699
16856W        W33703   0.317  12.162   2.154 -0.2035  0.2454  0.3398
16857W        W33704   3.180   1.607  14.293  0.0434  0.2043 -0.3894
16858W        W33705   7.864  11.804  11.980 -0.0789 -0.0493 -0.0731
16859W        W33706   6.635   0.407   4.999  0.0381  0.2161 -0.0345
16860W        W33707  11.141   6.041   3.247 -0.2788  0.2925  0.1789
16861W        W33708  11.521   2.914   2.149  0.1028  0.0669  0.1032
16862W        W33709   7.182   5.005   3.814 -0.0541  0.3909  0.0937
16863W        W33710   1.410  13.073   1.113  0.1540 -0.1599 -0.2147
16864W        W33711   2.134  15.822  14.868 -0.2564  0.2387  0.2588
16865W        W33712  11.473   3.975   5.342 -0.2044  0.0858 -0.0123
16866W        W33713   4.808   9.101   2.442  0.0260  0.0443 -0.0752
16867W        W33714  11.097  13.817  13.818  0.0992  0.0466  0.2812
16868W        W33715   0.680   4.313   3.058  0.1427  0.0819 -0.0050
16869W        W33716   2.669  11.745  15.568 -0.2664 -0.0340  0.1219
16870W        W33717  15.264   5.056  14.152 -0.2053 -0.1722  0.0759
16871W        W33718  16.809   5.245   2.178  0.1835 -0.4681  0.3792
16872W        W33719   8.038   8.662  12.628 -0.0348  0.3499  0.1165
16873W        W33720  15.062   4.962   2.581  0.1072  0.0342  0.0285
16874W        W33721  11.550  12.564  16.612  0.0148 -0.0640  0.0712
16875W        W33722   5.181   2.688  14.469  0.1323 -0.2299 -0.0977
16876W        W33723  14.071  16.235  15.039  0.2364 -0.0453 -0.0409
16877W        W33724   4.494   4.189   1.336  0.1077  0.1067  0.0938
16878W        W33725  17.753   7.198  14.558 -0.3304 -0.1277  0.4752
16879W        W33726   9.134   9.629  11.763 -0.1542 -0.1030  0.0458
16880W        W33727   2.055   4.741   3.427 -0.0097 -0.0799  0.1778
16881W        W33728  11.143  16.807  12.746 -0.1602 -0.2712  0.2155
16882W        W33729   8.172   7.871  13.803 -0.0232 -0.1012  0.0390
16883W        W33730   8.123  16.138   0.648  0.0201  0.0715  0.0266
16884W        W33731   2.777  14.571   0.494  0.1627  0.0761 -0.5125
16885W        W33732   7.540   2.172  11.530  0.3876  0.2484  0.2038
16886W        W33733   8.972   4.167  11.526 -0.0886  0.3107  0.1259
16887W        W33734  16.598   2.776  12.284  0.3733  0.0753 -0.2137
16888W        W33735  17.231   0.101   3.011 -0.0844 -0.0458 -0.2289
16889W        W33736   6.882  16.869   5.164 -0.0184  0.0203  0.0661
16890W        W33737  16.179   3.617   4.656 -0.1681 -0.0569 -0.1615
16891W        W33738   4.461  17.664  13.945 -0.1081  0.1790  0.1222
16892W        W33739  11.313   9.642   1.426  0.3730 -0.0900 -0.1039
16893W        W33740   3.018   5.959  12.849  0.1193  0.1890 -0.3659
16894W        W33741   7.004   4.717   5.357  0.0485  0.0555 -0.1906
16895W        W33742  11.738   3.075  12.319  0.0849 -0.0962 -0.0500
16896W        W33743  10.311   5.208   6.216  0.0003 -0.0652 -0.2892
16897W        W33744   1.575   8.985  15.968  0.0700  0.4092 -0.0406
16898W        W33745   6.095  15.001  11.825  0.1066  0.2956  0.2758
16899W        W33746  13.349  13.536   2.562  0.2118 -0.1655  0.2536
16900W        W33747   0.169   1.682   1.450 -0.0635 -0.0875 -0.0082
16901W        W33748   2.652  16.192  11.470  0.1778  0.1179 -0.0928
16902W        W33749  11.354  16.928  16.092 -0.3122  0.2002  0.0011
16903W        W33750   6.686   4.281   3.993 -0.1208  0.2167 -0.0136
16904W        W33751   9.307  10.054  15.183  0.0341  0.0132  0.0407
16905W        W33752   8.414   5.367  15.737 -0.2353  0.1618  0.2667
16906W        W33753   3.044  11.361  15.705  0.1770  0.1641  0.3160
16907W        W33754  16.843  13.505  13.560 -0.1219 -0.0136  0.2943
16908W        W33755   3.902  16.268   3.097 -0.0438 -0.0538  0.1839
16909W        W33756  10.438  12.793  16.520 -0.1337 -0.1632 -0.0120
16910W        W33757   5.781  13.968  11.916  0.1704 -0.1562 -0.1792
16911W        W33758  16.601  11.775   4.625 -0.1290 -0.0558  0.2001
16912W        W33759   2.530   7.198   4.471  0.0318  0.1771  0.1891
16913W        W33760  16.674  10.812  15.598 -0.3530  0.1131  0.0288
16914W        W33761   6.137   6.939  14.173  0.2483 -0.2382 -0.1175
16915W        W33762  14.070  12.117   2.991 -0.1033  0.1911  0.2945
16916W        W33763  12.246  11.842   2.765  0.2640  0.2960  0.0917
16917W        W33764   7.044  12.596  15.253  0.0744 -0.1604  0.1603
16918W        W33765   2.427   8.946   2.453 -0.0843  0.1094 -0.0887
16919W        W33766   2.381   6.001   6.265  0.2352 -0.2030 -0.2232
16920W        W33767  12.859  10.948  13.696 -0.1330 -0.0358 -0.0514
16921W        W33768  10.811  11.718  16.146 -0.1076 -0.0348 -0.0214
16922W        W33769   9.013  17.816   4.299  0.3694  0.0176  0.1455
16923W        W33770   3.320   1.161  12.990 -0.2503  0.2432 -0.0512
16924W        W33771  11.248  14.956   5.330  0.1271  0.0577  0.0680
16925W        W33772  15.513  10.138   5.141 -0.2759  0.1333  0.1454
16926W        W33773  15.894   3.868  14.862  0.0256  0.1706 -0.0584
16927W        W33774  10.815   7.716   0.050 -0.1373 -0.0391  0.2392
16928W        W33775  14.224   1.537  15.751  0.1901  0.2271  0.1286
16929W        W33776  17.507  14.484  13.962 -0.2820  0.0530 -0.1000
16930W        W33777  15.063  16.826   2.842 -0.1299 -0.0402  0.3025
16931W        W33778  12.967   0.182  13.437  0.3628  0.0277  0.0456
16932W        W33779  16.177  13.705   4.097 -0.1575  0.4022  0.0633
16933W        W33780  13.945   2.479  13.772  0.1449 -0.1315  0.1668
16934W        W33781   8.384   2.287  15.003 -0.1621 -0.3458 -0.1928
16935W        W33782  16.065  13.398  13.043  0.3623 -0.0064 -0.3107
16936W        W33783  17.231   3.982   3.871 -0.0944 -0.2115 -0.0519
16937W        W33784   1.747  11.065  13.222  0.1479 -0.0983  0.0029
16938W        W33785  10.119   0.409   2.597  0.1014  0.2359  0.0702
16939W        W33786  12.359   1.914  14.192  0.0217  0.2233 -0.2817
16940W        W33787   7.425   1.849   4.078 -0.2881 -0.2599 -0.0445
16941W        W33788  14.320  10.981   1.715 -0.0576  0.0794  0.0519
16942W        W33789  17.858   5.743   4.602  0.0671 -0.0134 -0.1479
16943W        W33790   6.351  14.050  15.787 -0.0552 -0.0453  0.1774
16944W        W33791   6.732  10.928  12.623  0.0480  0.0382 -0.1014
16945W        W33792  14.925   2.484  14.275  0.0282 -0.1578  0.0156
16946W        W33793  14.222  13.324  13.773 -0.1123 -0.0945 -0.3533
16947W        W33794   6.383   3.670  12.544 -0.1214  0.0464  0.1103
16948W        W33795  16.960   7.031   3.798  0.2444 -0.0069 -0.4110
16949W        W33796   4.723   8.007   0.511  0.0314 -0.0827  0.0652
16950W        W33797   6.304  17.454  13.416  0.0350  0.1877  0.2598
16951W        W33798  12.621   6.503  13.501 -0.0158  0.5948 -0.0632
16952W        W33799   4.868   0.101  15.498 -0.1074 -0.0708 -0.1326
16953W        W33800   9.859  16.147  14.270 -0.0500  0.2243 -0.3209
16954W        W33801  17.864   2.014   0.919  0.0500  0.1012 -0.1473
16955W        W33802  10.517  15.984  12.870 -0.1155  0.3282 -0.1765
16956W        W33803  14.799  14.528   2.591 -0.0484 -0.0183  0.0996
16957W        W33804   2.996  11.331   0.169 -0.1787 -0.1144  0.0081
16958W        W33805   6.751   9.498   2.106 -0.1962 -0.0301 -0.0904
16959W        W33806   2.531  12.366   4.830 -0.2684 -0.1174 -0.1342
16960W        W33807   9.042   3.888   0.511  0.0723  0.2430 -0.3258
16961W        W33808   4.012   6.206   4.603  0.1480  0.2348 -0.4288
16962W        W33809   8.934   5.829   4.255  0.1085  0.0165  0.0299
16963W        W33810   7.919  11.209  15.169  0.4018 -0.0366  0.0526
16964W        W33811   1.684   0.897  15.292  0.1128  0.0887  0.0558
16965W        W33812   4.015  12.890   0.420  0.0366  0.3956  0.0539
16966W        W33813   7.884  10.675  13.886  0.1669 -0.0860  0.1655
16967W        W33814   0.197   2.354   3.769 -0.1453  0.3269  0.3240
16968W        W33815  15.404   3.807  12.525  0.0279 -0.2945  0.3050
16969W        W33816   6.989  17.041   3.293  0.0028  0.0738 -0.1327
16970W        W33817   6.664  16.029   5.187  0.0473 -0.0537  0.0665
16971W        W33818   6.386   5.683  15.921 -0.3880  0.0981  0.1361
16972W        W33819   3.064   6.684   2.207 -0.0229 -0.1115  0.1369
16973W        W33820   8.539   1.171   1.101  0.0547 -0.1154  0.0528
16974W        W33821   3.586  17.447  11.796 -0.0941  0.1018  0.0028
16975W        W33822   4.273   5.874  15.708  0.1477 -0.1620  0.1908
16976W        W33823  13.295   5.408   2.518 -0.0894 -0.0793  0.1839
16977W        W33824   3.757   3.954   1.717  0.1743 -0.2196 -0.1613
16978W        W33825   1.076  15.162  15.287  0.0390 -0.3724  0.0293
16979W        W33826  14.250  15.166  15.679 -0.1127 -0.1992 -0.3172
16980W        W33827   9.603   8.381  14.014  0.0373  0.3613 -0.0176
16981W        W33828   3.976  12.773  15.482  0.0885  0.0128 -0.0398
16982W        W33829   0.929   2.784  13.481 -0.1210 -0.1719  0.0055
16983W        W33830  10.658   0.808   1.939 -0.0446  0.0902 -0.0799
16984W        W33831   3.284   2.033  13.449 -0.3306  0.0117  0.1403
16985W        W33832   1.779   9.558   4.108  0.4949  0.0755 -0.0428
16986W        W33833   8.380   6.579   2.466  0.2407  0.3669  0.2811
16987W        W33834  14.611  15.834  14.046 -0.1566 -0.1833 -0.3100
16988W        W33835   6.646   5.554   4.994 -0.1141  0.1088 -0.1601
16989W        W33836  10.700  12.805   0.235 -0.0191 -0.3031  0.0120
16990W        W33837   8.403   2.197   5.079  0.1579 -0.0183  0.2234
16991W        W33838   5.305   3.190  14.425  0.1442  0.4198 -0.0196
16992W        W33839  11.674   1.842  13.231  0.4699 -0.0571  0.1338
16993W        W33840   3.577  11.466  15.575 -0.2053 -0.0955  0.0383
16994W        W33841   2.916   0.617  15.790 -0.0059  0.0057  0.2009
16995W        W33842  16.370  15.194  16.219 -0.2839 -0.2865 -0.0436
16996W        W33843  17.343  16.945  11.900 -0.3442  0.0447  0.0417
16997W        W33844   2.674   0.569  11.766 -0.0420  0.0162 -0.2104
16998W        W33845   7.731   2.562  13.938 -0.0933 -0.0885 -0.1266
16999W        W33846   0.313  14.783   2.755 -0.1015  0.1117  0.1925
17000W        W33847  12.150  12.553  14.650  0.1835  0.2325 -0.0407
17001W        W33848   5.466   1.574  12.531  0.0624 -0.2499 -0.3022
17002W        W33849  12.966   6.798  15.043  0.2651  0.0943 -0.0284
17003W        W33850   1.215   5.930  12.613 -0.1103  0.0284 -0.1837
17004W        W33851  14.687  17.368   0.318 -0.0231  0.3103 -0.1522
17005W        W33852   5.430  16.791   1.055 -0.2638  0.1601  0.0039
17006W        W33853   2.082  11.171   0.925 -0.1463 -0.1057 -0.0558
17007W        W33854   5.704  10.796   5.284  0.2512  0.1878  0.0521
17008W        W33855  13.532  12.941   0.115 -0.1356 -0.0634  0.0678
17009W        W33856   2.365   8.052   1.588 -0.2718  0.1016 -0.2276
17010W        W33857   1.804   2.860   1.606  0.0704  0.0757 -0.0651
17011W        W33858   1.350  12.744   4.027 -0.2486 -0.1872  0.0731
17012W        W33859   9.347   9.827  14.766  0.1912  0.1746  0.0052
17013W        W33860   6.701   3.431  15.267  0.0550  0.0865 -0.3694
17014W        W33861  15.287   7.509  14.540  0.1336  0.0804 -0.2478
17015W        W33862   6.016   6.320   3.297 -0.1067 -0.2423 -0.0909
17016W        W33863  16.597   1.552  12.432  0.0226 -0.1443 -0.0471
17017W        W33864  11.077   4.214  13.552 -0.1879  0.2099 -0.4786
17018W        W33865   8.544   0.388   2.373 -0.2071 -0.4698 -0.2190
17019W        W33866  15.364  16.622   0.528  0.0163 -0.1599  0.2184
17020W        W33867   9.207  11.664  14.817  0.1923 -0.0471 -0.0231
17021W        W33868   6.434   8.960   0.295  0.1954  0.4742  0.0581
17022W        W33869  12.410   8.264   1.021 -0.1881  0.2623  0.1606
17023W        W33870   4.220  16.433  14.166 -0.3670  0.1190  0.0906
17024W        W33871  12.318  13.488   1.040 -0.0178 -0.3106 -0.0014
17025W        W33872  14.887  11.002   0.539 -0.0465  0.1231 -0.1836
17026W        W33873   3.511   4.558   5.952 -0.1841 -0.2458 -0.0962
17027W        W33874   9.558  11.172   5.593  0.0979 -0.2811  0.0542
17028W        W33875   9.073   5.107  14.088  0.0806  0.1191  0.2814
17029W        W33876   5.354   5.864  13.808  0.0777 -0.2851  0.1669
17030W        W33877  12.422   3.030  15.322  0.2762 -0.1249  0.0940
17031W        W33878   8.171  15.850   4.570  0.2067  0.0442 -0.1306
17032W        W33879  16.744   1.099  13.643  0.1912  0.1483 -0.2132
17033W        W33880   7.248   6.635   1.009  0.3793 -0.0949  0.4049
17034W        W33881  11.624  15.061  16.780 -0.2694 -0.0470  0.3266
17035W        W33882  16.108  16.447  15.537  0.2584 -0.0369 -0.1615
17036W        W33883   4.278   3.216  11.610 -0.0793 -0.2119  0.2028
17037W        W33884   7.662  16.307   5.327  0.1433  0.0554  0.0886
17038W        W33885   8.496  17.006   1.864  0.3017 -0.1989 -0.0304
17039W        W33886  16.441   5.373   2.514 -0.4441 -0.2582 -0.0855
17040W        W33887   7.684  10.500  16.798 -0.1340 -0.0232 -0.0136
17041W        W33888   0.297  10.083  16.389  0.1951 -0.0632 -0.1048
17042W        W33889   1.497  14.321   1.989 -0.0328 -0.1641 -0.3829
17043W        W33890   7.959  15.052  14.373 -0.2593 -0.0733 -0.0783
17044W        W33891   1.636  16.471  16.610 -0.2382  0.3027  0.2044
17045W        W33892   0.444  15.907   1.217 -0.1243 -0.1535  0.4189
17046W        W33893   9.241   5.615   0.207 -0.0987  0.1546 -0.3225
17047W        W33894  11.490   2.626  16.064 -0.1481  0.0572 -0.2499
17048W        W33895  16.886  16.322  15.899  0.0878 -0.3224  0.0163
17049W        W33896   7.042  15.372  11.591  0.0440  0.1707 -0.2849
17050W        W33897   7.824  10.633   0.523 -0.3411 -0.2183  0.1754
17051W        W33898   0.769   4.153   0.014  0.2074  0.0044  0.1012
17052W        W33899  12.250   5.635  16.679  0.2354 -0.2494 -0.1384
17053W        W33900   1.981   6.039   4.333 -0.0842 -0.0064  0.0698
17054W        W33901   6.289  11.303  13.530  0.3242 -0.1590 -0.2193
17055W        W33902  17.102  15.791  12.928 -0.0184  0.0877  0.0989
17056W        W33903  16.352   7.794  12.922 -0.3244  0.2117  0.3616
17057W        W33904  15.076  14.501  14.785 -0.1053  0.0163  0.0692
17058W        W33905   0.319  15.647   1.736  0.3868 -0.1534  0.3371
17059W        W33906   9.936   0.504  13.026  0.1412  0.0450  0.0219
17060W        W33907   4.820   0.529  11.228  0.1435 -0.3935 -0.1213
17061W        W33908   6.738  17.649  14.073  0.0791 -0.2340  0.0103
17062W        W33909  10.809   3.130  14.384  0.1452  0.0583 -0.0209
17063W        W33910   6.967   4.203  15.625 -0.0178 -0.2247  0.0183
17064W        W33911   9.495   7.117  16.357  0.0021  0.2086 -0.0654
17065W        W33912   2.575   1.303   0.251  0.0189  0.1710  0.1639
17066W        W33913  11.427   8.023   0.837 -0.2369  0.0028 -0.4899
17067W        W33914   1.471   4.418   1.506 -0.1650  0.1050  0.3483
17068W        W33915   0.911   5.547  12.889  0.0203  0.0709  0.1730
17069W        W33916  15.525   6.648  11.768 -0.1902 -0.0651  0.3712
17070W        W33917   5.764   4.314  12.497 -0.1758  0.1108  0.1502
17071W        W33918   7.937   3.927   2.427  0.1457  0.0712 -0.1607
17072W        W33919   3.127  11.362   2.322  0.0543  0.3244  0.1843
17073W        W33920  17.354   1.357   3.117 -0.0501  0.0762  0.0628
17074W        W33921   6.785   9.281  12.382  0.3081 -0.1490 -0.1956
17075W        W33922  10.649  10.930   5.902 -0.0698  0.4263  0.0482
17076W        W33923  15.874  16.908   3.114  0.2208 -0.2097 -0.0808
17077W        W33924   3.986   7.252   4.391  0.0529  0.0004 -0.2168
17078W        W33925  13.136  10.820   1.168  0.1269 -0.0894  0.0097
17079W        W33926   9.439   8.943   5.791 -0.0795 -0.1547  0.2059
17080W        W33927   6.772   1.951   2.199 -0.1236 -0.1636 -0.3459
17081W        W33928   6.855  14.817  16.593  0.0962 -0.0641  0.2595
17082W        W33929  12.804   5.329   3.675  0.0365 -0.0931 -0.1169
17083W        W33930  17.594  15.162   1.999  0.1270  0.2108 -0.1271
17084W        W33931   4.481  11.893  13.918  0.1769  0.0556  0.0565
17085W        W33932   7.109  16.509  15.751 -0.2283  0.0401  0.4078
17086W        W33933  16.906  13.678   1.853  0.3358 -0.2488 -0.2055
17087W        W33934  16.865   2.495  12.575 -0.4988  0.0159  0.1420
17088W        W33935   4.684   2.872   3.572  0.1273  0.0887  0.2271
17089W        W33936   8.576   6.963   5.685 -0.0898 -0.1892 -0.3534
17090W        W33937   2.959  15.668   1.366  0.0427  0.0649  0.0131
17091W        W33938   0.063   5.984   1.314  0.2027  0.1007 -0.0711
17092W        W33939   8.101   4.537  14.631 -0.1174  0.0831  0.2356
17093W        W33940  14.598  17.206  14.191  0.1952  0.0519  0.0778
17094W        W33941   7.550  13.625  16.326 -0.0257  0.1010  0.1848
17095W        W33942   8.092   6.263   4.635  0.0616 -0.0602  0.1949
17096W        W33943  16.943   3.266   4.231  0.0678 -0.2772 -0.2892
17097W        W33944   0.406   5.311  12.275  0.1284 -0.0512  0.0926
17098W        W33945   2.218  11.595  12.137  0.1298 -0.3154  0.1709
17099W        W33946  17.199   2.089   1.398  0.2671  0.0382  0.2115
17100W        W33947  11.274   2.049  11.736  0.1357 -0.1470  0.0465
17101W        W33948   0.859   1.649   1.586  0.0763  0.0552  0.0501
17102W        W33949  15.491  17.404   3.874  0.0379  0.2468 -0.0974
17103W        W33950   4.973   6.407  16.355  0.4565  0.2435  0.0151
17104W        W33951  10.804   1.501  13.347  0.0544 -0.0522 -0.2064
17105W        W33952   5.325  11.001  16.344 -0.2952  0.0143 -0.0051
17106W        W33953   1.649  15.049   2.565  0.1440  0.1235 -0.1451
17107W        W33954   1.074   4.142  16.460  0.4105  0.1462  0.2189
17108W        W33955  15.617   1.952   0.461  0.3154 -0.1443  0.0764
17109W        W33956   0.590   6.469   3.027  0.0115  0.2078  0.2506
17110W        W33957   9.664  12.285   5.192 -0.1750 -0.0472 -0.5818
17111W        W33958   4.072  10.631  15.195  0.3079  0.2664  0.0862
17112W        W33959  17.485   3.594  14.891 -0.2281  0.1478  0.1075
17113W        W33960  17.321   7.794   5.386  0.1363 -0.2777 -0.0682
17114W        W33961   4.089   1.984   1.851  0.0230 -0.0380 -0.0685
17115W        W33962   7.116   8.480   5.170 -0.2756  0.2164  0.1800
17116W        W33963   1.082  15.097   5.964  0.1018  0.3362 -0.2449
17117W        W33964  17.289   4.205  15.912  0.1735  0.1388  0.1755
17118W        W33965  16.279   2.149   3.053 -0.0350 -0.4382  0.0523
17119W        W33966   6.814  16.344  14.893 -0.2518 -0.0371 -0.1112
17120W        W33967  15.001   6.875  14.617  0.0749 -0.0937  0.0069
17121W        W33968  15.177  10.642   0.331  0.0451 -0.1567 -0.1043
17122W        W33969  16.140   2.773   1.005 -0.0780  0.0403  0.0152
17123W        W33970  12.789  11.195   5.174 -0.0802  0.0211  0.1258
17124W        W33971  14.049  17.356  13.481 -0.1370  0.0540  0.1634
17125W        W33972   0.200  10.618   0.630 -0.0243  0.0303  0.2040
17126W        W33973  11.562  15.310   2.374  0.1936 -0.3984  0.1364
17127W        W33974  12.638  11.814  13.340  0.2797  0.2113 -0.1339
17128W        W33975   9.672  16.303  12.861 -0.1107 -0.1932 -0.0788
17129W        W33976  17.209  16.127  14.176 -0.0561 -0.2081  0.0658
17130W        W33977   8.163  11.418   0.767  0.0640  0.1714 -0.1572
17131W        W33978   6.842   5.471  13.562 -0.0032  0.4023  0.1334
17132W        W33979   8.004   1.570  14.584  0.1145 -0.0712 -0.0552
17133W        W33980   3.293   5.595   1.012  0.1354 -0.0482 -0.0707
17134W        W33981   9.458   7.531  12.175 -0.0427 -0.1479  0.3007
17135W        W33982   2.066   5.642  12.855  0.2991 -0.2172  0.0219
17136W        W33983  16.739  16.590   3.675 -0.2514 -0.0516 -0.0282
17137W        W33984  12.303  12.797   4.433  0.0178 -0.0827  0.0644
17138W        W33985   3.599   6.925  12.500 -0.3709  0.0702  0.2519
17139W        W33986   1.507  17.558  14.524  0.1751 -0.0725 -0.2688
17140W        W33987  16.448  10.336  15.386  0.1117  0.3246  0.0052
17141W        W33988   2.400   8.409   3.157  0.1518  0.0042 -0.2059
17142W        W33989   8.211  10.228  14.157  0.1485 -0.0050  0.3554
17143W        W33990  15.289   2.340   5.193  0.1523 -0.3075 -0.2502
17144W        W33991   1.477   7.310   1.149 -0.0655 -0.0669  0.2207
17145W        W33992   4.561   7.610   0.877  0.1430  0.0033 -0.0748
17146W        W33993   0.146   2.778   3.309  0.3919  0.0369 -0.1110
17147W        W33994   6.185  17.262   2.050 -0.0200 -0.0934  0.1918
17148W        W33995   0.801   2.738  14.498  0.0726  0.1175 -0.1820
17149W        W33996  14.534  12.706   2.212  0.1717 -0.1411 -0.0993
17150W        W33997   4.760   7.313   3.557  0.1231  0.0864  0.0443
17151W        W33998  13.043  14.990   2.507  0.2525 -0.1977  0.2316
17152W        W33999  11.828   8.810  12.738  0.0120  0.0228  0.3118
17153W        W34000   0.630  17.066  12.537 -0.2886 -0.1462 -0.0257
17154W        W34001   7.062  15.960   4.499 -0.1087 -0.0645 -0.0991
17155W        W34002  15.668   2.457  13.855  0.0032 -0.1104 -0.1544
17156W        W34003   9.421   0.760  15.645  0.2985 -0.2181  0.0308
17157W        W34004   2.524   0.290   4.712  0.1211  0.1490 -0.0815
17158W        W34005  11.207  12.891  12.840 -0.0849 -0.2374  0.0082
17159W        W34006   3.940  11.265   0.939  0.1813  0.0159  0.1209
17160W        W34007   6.340  11.369  15.533 -0.1263 -0.3250 -0.0273
17161W        W34008  10.935   0.679  12.986  0.1992 -0.1625  0.1276
17162W        W34009  13.469   0.198   2.930 -0.0836 -0.0656 -0.0368
17163W        W34010   6.058   3.422   1.640  0.2094  0.1447 -0.0778
17164W        W34011  11.482   6.844   0.042 -0.0015 -0.1373 -0.2438
17165W        W34012  13.286   7.234  16.517  0.2241 -0.2021  0.4202
17166W        W34013  12.112  11.543  14.997 -0.2290  0.2818 -0.1299
17167W        W34014   7.045  15.573   3.377  0.2213  0.3013 -0.1311
17168W        W34015  16.778  16.527   5.683 -0.2991 -0.0080 -0.0248
17169W        W34016   8.835  12.210   4.775  0.3019  0.1385  0.1512
17170W        W34017  17.146   3.739  13.903  0.0297  0.2580  0.0797
17171W        W34018   6.783   0.699   4.388  0.1075  0.2380  0.3378
17172W        W34019  14.123  13.688  16.497 -0.1086  0.1886  0.0675
17173W        W34020  15.352   9.906   4.675 -0.0991 -0.2435  0.0402
17174W        W34021   2.933   2.346   1.299  0.0457 -0.1423 -0.1892
17175W        W34022   8.754  14.941   1.855 -0.0361 -0.2772  0.0612
17176W        W34023   6.379   7.319  14.971  0.0828  0.0921 -0.0270
17177W        W34024  15.149  10.629  16.498  0.0709 -0.0684  0.0171
17178W        W34025  13.931   0.473  12.981 -0.1618  0.2486  0.3241
17179W        W34026   9.801   0.594   0.203 -0.0547 -0.3685  0.0382
17180W        W34027   4.943   5.125  12.697 -0.2160  0.0978 -0.0514
17181W        W34028   1.681  15.942  15.086 -0.4688 -0.0705  0.0420
17182W        W34029   9.925   9.217  13.866  0.2049  0.0011 -0.1447
17183W        W34030   2.372   8.069   0.612 -0.2591  0.2972 -0.0325
17184W        W34031   5.523   4.358  13.877  0.0250 -0.0662  0.0398
17185W        W34032  12.374   7.901  14.274  0.0296 -0.0655 -0.0132
17186W        W34033   8.890  15.494  16.517 -0.0894  0.2152 -0.0891
17187W        W34034   5.504  15.862   2.106 -0.1121 -0.0802 -0.4544
17188W        W34035   8.012  13.204  14.535 -0.1102  0.1167 -0.0229
17189W        W34036   4.118   7.090   0.334  0.1657 -0.0416 -0.2500
17190W        W34037   4.305  13.148  14.213 -0.2600 -0.1935  0.4057
17191W        W34038  15.986  13.733  15.187 -0.0812 -0.1960  0.2139
17192W        W34039   9.262  14.527   2.573 -0.1335 -0.0813  0.0383
17193W        W34040  12.658  12.122   5.960  0.1107  0.2832  0.1134
17194W        W34041   2.706   0.224   3.910 -0.0862 -0.3586 -0.2254
17195W        W34042   0.683   4.080  12.536  0.0811 -0.0141  0.0482
17196W        W34043   1.342  14.298  12.772 -0.1776 -0.0286  0.2164
17197W        W34044   1.676  10.101   2.951 -0.2958  0.0070  0.0411
17198W        W34045  13.944   1.709  13.133  0.2924  0.2640 -0.1888
17199W        W34046  11.952  10.792   1.967 -0.0617  0.0703 -0.1645
17200W        W34047   7.828   0.834  12.379 -0.1044 -0.1124 -0.2824
17201W        W34048   5.218   7.817  12.722 -0.4320 -0.0289  0.0662
17202W        W34049   7.642  12.696   1.034  0.0202  0.2106  0.2694
17203W        W34050   5.450  15.938  11.603  0.2076  0.1492 -0.1713
17204W        W34051   8.617  11.411  13.043 -0.0566  0.0624  0.1483
17205W        W34052   6.926  10.423  15.676 -0.0005 -0.1019 -0.0024
17206W        W34053   6.328   8.535   0.585 -0.1215 -0.4680 -0.1727
17207W        W34054   2.111   5.132  16.208 -0.3103  0.0416 -0.1229
17208W        W34055   4.481  15.735   4.091 -0.1551 -0.1105  0.1389
17209W        W34056   3.547   1.311  15.759  0.0168  0.0899 -0.0384
17210W        W34057   2.919   9.547  15.931 -0.1640 -0.0602  0.0135
17211W        W34058   0.112  16.562   3.191 -0.0178 -0.3718  0.2558
17212W        W34059   8.760   1.506   2.857  0.1765  0.2331 -0.0107
17213W        W34060  10.699   2.101  12.899 -0.0067 -0.0255  0.1252
17214W        W34061   7.529  11.178   2.336 -0.0628  0.1231 -0.0133
17215W        W34062   1.777   9.707   2.699 -0.0593 -0.0989  0.2821
17216W        W34063  11.173   2.262   1.365 -0.3405 -0.1476  0.1085
17217W        W34064  10.628   2.431   2.174  0.3309  0.3739 -0.1055
17218W        W34065   9.205   0.884  12.479  0.0264 -0.0101 -0.1121
17219W        W34066   3.813   9.446   4.580  0.0706 -0.2044 -0.0846
17220W        W34067   3.249   0.080  12.196 -0.0277  0.2212 -0.2250
17221W        W34068   8.448  11.516   1.600 -0.4173  0.2604 -0.2742
17222W        W34069   4.011  17.858  15.835  0.0445  0.0065 -0.0125
17223W        W34070   0.531   1.259   1.772 -0.0534 -0.3672 -0.1774
17224W        W34071   9.632  17.541  14.178 -0.0445 -0.1334  0.2482
17225W        W34072   1.844   1.842   3.712 -0.2256  0.1851  0.0537
17226W        W34073   6.546   9.316  13.325 -0.0837  0.0807 -0.2633
17227W        W34074   9.316   0.193   1.899  0.1517 -0.3318  0.1931
17228W        W34075   6.123   3.978  16.594  0.0268 -0.2601  0.0765
17229W        W34076   8.308   2.268  11.938 -0.2800  0.1477  0.0959
17230W        W34077  13.880   0.383   5.726 -0.0259  0.2861  0.0966
17231W        W34078  16.615  11.990  12.379 -0.0840  0.0026  0.1281
17232W        W34079  14.480   4.122   2.518 -0.0902  0.0275 -0.0115
17233W        W34080   3.511   3.282  14.230 -0.1802 -0.1540  0.1029
17234W        W34081   1.973  16.316   3.548 -0.3126  0.0173  0.2947
17235W        W34082   4.620  10.364  16.409  0.0014 -0.0167 -0.2364
17236W        W34083   5.036   7.769  14.658  0.1808 -0.2078  0.0388
17237W        W34084  16.033   5.821   4.819 -0.0111 -0.0802  0.0703
17238W        W34085  12.262   3.615   3.618  0.0564 -0.0056  0.2415
17239W        W34086   7.916   8.120   3.565 -0.2116 -0.1265  0.0212
17240W        W34087   0.266   1.388  11.414 -0.3449 -0.0885  0.0023
17241W        W34088   0.005  10.477  14.147  0.2039  0.0991  0.0543
17242W        W34089  12.802  17.441  12.752  0.1185 -0.0213  0.4190
17243W        W34090  11.519  11.781  14.751  0.2847 -0.2052  0.1750
17244W        W34091   2.132   3.438   2.210 -0.0349 -0.0217 -0.0727
17245W        W34092  15.186   7.937   0.931  0.2117  0.0634  0.0041
17246W        W34093  13.707  13.921   2.530 -0.0113 -0.4546 -0.0808
17247W        W34094   6.539   7.777   0.135  0.0478  0.3819  0.3474
17248W        W34095   2.067   4.013  11.513  0.2206  0.1240  0.0045
17249W        W34096   5.826  15.831  14.151  0.1046  0.3423 -0.1607
17250W        W34097   3.429  10.002  13.869  0.0529 -0.2576  0.1259
17251W        W34098   4.210   2.649  11.657  0.2577  0.0619 -0.2103
17252W        W34099   5.102   4.024  14.900 -0.1745 -0.0436  0.0471
17253W        W34100   4.292   2.314  11.279 -0.0137 -0.0500 -0.0906
17254W        W34101   6.684   1.221  12.793  0.5314  0.0954 -0.0638
17255W        W34102   7.094   6.601  14.509  0.0768 -0.0363 -0.3972
17256W        W34103   7.617  15.134  13.014 -0.0410 -0.1889  0.2593
17257W        W34104   4.193   1.419   0.688 -0.1147 -0.1996 -0.2179
17258W        W34105  12.535  16.898   4.474 -0.0182  0.1653 -0.2599
17259W        W34106  17.503   9.337  10.899  0.3034 -0.3172  0.0335
17260W        W34107   1.593   8.449  15.294  0.1587 -0.1137 -0.1703
17261W        W34108  16.796   0.650  14.927 -0.0498  0.0890  0.0820
17262W        W34109  16.951   3.637  16.539 -0.3453  0.0257 -0.0649
17263W        W34110  12.359   1.046  11.976  0.1741  0.1137  0.0011
17264W        W34111   4.288   2.616  15.718 -0.0285  0.0014  0.1268
17265W        W34112  15.843   4.208  14.067  0.1789 -0.1145  0.1420
17266W        W34113  10.027  16.090  16.105 -0.1622 -0.1624 -0.2273
17267W        W34114   1.067   4.296  12.941  0.0466  0.1247 -0.3548
17268W        W34115   2.080   8.916  13.351 -0.0327 -0.0752  0.0409
17269W        W34116   5.612   8.990  14.143 -0.2902  0.2867 -0.2418
17270W        W34117  12.023  11.089  14.887 -0.2222 -0.3919  0.3361
17271W        W34118   4.923   6.238  14.417 -0.4298 -0.0418 -0.0967
17272W        W34119  14.362  13.830   4.963 -0.1316 -0.0056  0.0103
17273W        W34120  10.722   1.899   0.528  0.2217 -0.0474 -0.0025
17274W        W34121   0.150   0.803  11.718  0.1173  0.2684  0.0988
17275W        W34122  10.496  11.893   5.650  0.5575 -0.1472  0.0775
17276W        W34123   3.598  13.603   5.305  0.0296  0.0061  0.1638
17277W        W34124   1.263  11.119  11.942  0.0409  0.1289 -0.5536
17278W        W34125   3.542   5.288   0.013  0.0126 -0.2119  0.2201
17279W        W34126  17.324  10.785  13.240 -0.0622 -0.3441  0.3317
17280W        W34127   3.982  13.146  15.075 -0.0863  0.0403  0.1639
17281W        W34128   4.430  13.009  14.731  0.2639  0.0025  0.1265
17282W        W34129   8.123   4.172   0.546  0.2902 -0.0062 -0.1272
17283W        W34130   4.346  10.674   3.895 -0.3286  0.2067  0.0530
17284W        W34131  14.054   6.416   2.759  0.0218  0.1719  0.0363
17285W        W34132  13.030  11.695   5.055 -0.0386  0.1930 -0.2470
17286W        W34133  10.597   8.359   1.239 -0.0869 -0.0136  0.1618
17287W        W34134   5.355   3.608   4.738 -0.0258  0.0576  0.0145
17288W        W34135   1.351  12.458  14.642  0.1398  0.3065 -0.1992
17289W        W34136  10.116   5.131  15.161 -0.0822  0.0638  0.1547
17290W        W34137  10.837  15.275   5.244  0.2927  0.0937  0.0704
17291W        W34138   7.636   4.024   0.923 -0.1682  0.1445  0.2358
17292W        W34139  13.495   0.300   5.427  0.0470 -0.1119 -0.0082
17293W        W34140   5.982   9.516  14.976 -0.1263 -0.0070  0.0098
17294W        W34141  14.811   1.044  11.919 -0.2847 -0.2216 -0.1066
17295W        W34142  11.143  17.254   4.892  0.3635 -0.2394  0.0194
17296W        W34143   2.982  12.703   4.991 -0.1049  0.1231 -0.0662
17297W        W34144  13.892   7.129  13.946 -0.2032 -0.2115  0.1533
17298W        W34145  10.893  10.554  11.459  0.0884 -0.2364 -0.1642
17299W        W34146   3.408   5.385   5.670 -0.1044 -0.0927  0.1379
17300W        W34147   8.787   2.465   2.604 -0.0257 -0.0852  0.0551
17301W        W34148   7.939   3.255  12.475  0.0068 -0.0957 -0.3354
17302W        W34149   6.874   1.082  11.776 -0.3082 -0.2764  0.0483
17303W        W34150  16.220   4.668   0.085 -0.2021  0.1493  0.1035
17304W        W34151   4.323  11.153  16.038 -0.0194 -0.0954  0.0062
17305W        W34152   4.803   0.948  10.329  0.0313  0.0839 -0.0286
17306W        W34153  14.632   4.116   5.470  0.3517 -0.0147  0.2622
17307W        W34154   5.427  12.941  14.622 -0.0927  0.2224  0.0683
17308W        W34155  15.486   7.656   4.552 -0.1681 -0.2193 -0.1403
17309W        W34156   3.148  17.022   3.699  0.2259 -0.0976  0.1104
17310W        W34157   8.988   9.845   0.292 -0.2494 -0.4967  0.2448
17311W        W34158  14.039   7.058   3.786 -0.1962  0.1763 -0.0019
17312W        W34159  17.040   9.998   1.952 -0.3973 -0.3463 -0.2486
17313W        W34160   7.075  10.123  14.275 -0.2002  0.0611  0.1155
17314W        W34161  14.315   9.285  14.838 -0.1725 -0.0701  0.1044
17315W        W34162  13.201  12.436  13.904 -0.1631  0.0381 -0.0167
17316W        W34163   0.786  15.496  12.126 -0.0641  0.1289  0.1014
17317W        W34164   5.427   3.448  15.826  0.0324 -0.0138  0.0275
17318W        W34165   5.068  10.269  12.366  0.0785  0.2787  0.5298
17319W        W34166  11.859   9.861   0.046 -0.0646 -0.0184 -0.1181
17320W        W34167   3.202   2.746   1.176 -0.1051 -0.2241  0.1859
17321W        W34168  16.362   5.587  14.062 -0.0878 -0.0857 -0.0556
17322W        W34169  15.543  16.244   0.220 -0.0241 -0.0646 -0.0016
17323W        W34170  13.992  15.833   4.291 -0.1743  0.1445 -0.0365
17324W        W34171  10.946  11.492  12.746 -0.0206 -0.2313  0.0268
17325W        W34172   9.521  11.213  14.934  0.0058 -0.0229  0.1310
17326W        W34173   8.627  16.817  14.899 -0.1150  0.0642  0.0813
17327W        W34174   4.290   1.105  14.039 -0.1350  0.3166  0.0443
17328W        W34175   8.928   0.928   0.834 -0.0911 -0.1257 -0.0520
17329W        W34176   3.382   4.713   2.338 -0.1163  0.0749  0.0800
17330W        W34177  14.077   3.944  15.277 -0.2029  0.0494 -0.0686
17331W        W34178   2.216  17.929  13.682  0.4144 -0.3150 -0.0198
17332W        W34179   8.204  11.255   1.221  0.1655  0.0152  0.0724
17333W        W34180   5.979  10.621   5.889 -0.2115  0.3198  0.2301
17334W        W34181   6.464   1.039   6.237  0.2420  0.1018  0.1294
17335W        W34182   0.725   3.944   2.593  0.1265  0.1583  0.0145
17336W        W34183   7.209   4.974  14.912 -0.1939  0.0258 -0.1192
17337W        W34184   2.883   5.974   2.181  0.1972  0.0869 -0.3957
17338W        W34185  11.689   7.167   0.375  0.0383  0.2371 -0.0213
17339W        W34186  12.290  11.613   1.893  0.2666 -0.1015  0.1300
17340W        W34187  10.888   6.590  12.558 -0.1682 -0.2389 -0.1365
17341W        W34188   4.281   3.495   4.287  0.0913 -0.0540 -0.1382
17342W        W34189   0.525   4.407  16.488  0.2626 -0.0911 -0.1519
17343W        W34190  17.444  11.235  16.656 -0.1827  0.0321  0.1485
17344W        W34191   6.474  14.220  14.385 -0.1956  0.2963 -0.0969
17345W        W34192  13.828  16.009  13.216 -0.0869  0.0210  0.0859
17346W        W34193   5.273  13.589  16.269 -0.1470  0.0171 -0.1866
17347W        W34194   9.500  11.690   3.569 -0.0111 -0.2305  0.0520
17348W        W34195  16.021  10.059  15.073 -0.1439 -0.2270  0.2049
17349W        W34196  15.297   9.419   2.916  0.1544  0.0384  0.0561
17350W        W34197   5.532  12.485   5.641  0.0223 -0.0320 -0.1501
17351W        W34198  13.764  11.996   3.902 -0.1376 -0.1200 -0.0875
17352W        W34199   2.157   4.718   2.611  0.0621 -0.3207  0.1884
17353W        W34200  14.582   7.455  15.367  0.1607 -0.0984 -0.1223
17354W        W34201  16.619  17.314  12.636 -0.1621  0.1839  0.3441
17355W        W34202  14.137   5.624   5.704 -0.0725  0.0941  0.0978
17356W        W34203   4.342   7.378   4.788  0.0095  0.0806  0.1716
17357W        W34204   1.863   2.346  13.811  0.0464  0.1107  0.0961
17358W        W34205  17.346  10.770   1.119  0.0437 -0.1240  0.1628
17359W        W34206   4.467   9.105   4.236 -0.0196  0.1876  0.1404
17360W        W34207  15.655  13.600   4.672 -0.0413 -0.0020 -0.2231
17361W        W34208   7.328   4.629   0.129  0.3106 -0.0223  0.0194
17362W        W34209  15.214  14.335   1.773 -0.1499 -0.1519 -0.1774
17363W        W34210   8.767  16.259   1.008 -0.0195 -0.1748  0.1343
17364W        W34211   7.297  12.969   4.368 -0.1694  0.2367  0.2327
17365W        W34212   6.058  11.624   2.773 -0.0661 -0.2727 -0.0449
17366W        W34213   8.682  13.665  13.148  0.0857 -0.0915  0.0758
17367W        W34214   9.213  10.125   3.258  0.1139 -0.4485 -0.2790
17368W        W34215  11.480   3.349   4.674 -0.0018  0.0102 -0.0949
17369W        W34216  17.820   3.604  15.217 -0.0845 -0.1625 -0.0690
17370W        W34217  16.857   9.763   4.719  0.0221 -0.3754  0.0885
17371W        W34218  10.434  11.399  16.042 -0.0442 -0.2773  0.1245
17372W        W34219   6.288  13.160   5.068  0.2451 -0.2421  0.2273
17373W        W34220   7.406   3.562   0.927  0.3448 -0.3221 -0.0766
17374W        W34221   8.397  13.495   5.260  0.0574  0.0238 -0.1674
17375W        W34222   8.065   0.896   0.934  0.1334 -0.3010  0.1389
17376W        W34223   0.127   4.818   2.043  0.1317  0.0231  0.2000
17377W        W34224  11.914  10.696   3.252 -0.2965  0.2164 -0.0105
17378W        W34225   7.967   4.826  12.179  0.0228  0.4400 -0.1633
17379W        W34226   8.888   8.338   6.356  0.1070  0.2514 -0.0625
17380W        W34227   2.633   0.559  12.771 -0.1541  0.3905  0.1002
17381W        W34228  14.420  16.635  13.766 -0.1328  0.2614 -0.0667
17382W        W34229   3.532   3.154  14.692  0.3188 -0.0638  0.1277
17383W        W34230  16.376  10.823   0.710 -0.2004 -0.2557 -0.1959
17384W        W34231   4.942   6.084   1.752  0.3431  0.1838 -0.0325
17385W        W34232   5.004   0.719   4.071 -0.0011 -0.0955  0.3295
17386W        W34233   4.486   4.703   5.548 -0.0688  0.1289 -0.2497
17387W        W34234   2.033  14.814   0.838 -0.0857 -0.0989 -0.0486
17388W        W34235   7.335  11.906   0.645  0.4765  0.1438  0.0022
17389W        W34236  17.172   8.420   2.128  0.2209 -0.1985  0.1392
17390W        W34237   9.115   7.195  13.073  0.3941 -0.0369 -0.1040
17391W        W34238   6.431   5.616   1.942 -0.1937 -0.0081  0.1871
17392W        W34239   4.900  10.600   3.030 -0.0035 -0.4438 -0.1096
17393W        W34240   7.634  10.914  16.506 -0.1312  0.2820 -0.1789
17394W        W34241  17.205  15.232   3.258 -0.1463 -0.1116  0.2204
17395W        W34242  16.271   9.689  12.239  0.2899  0.0416  0.0620
17396W        W34243  11.568  10.257  12.708  0.0379 -0.0564 -0.0506
17397W        W34244   8.176   5.551  13.116  0.2826  0.1605 -0.0011
17398W        W34245  17.008   3.499   1.215  0.0269 -0.5273 -0.0794
17399W        W34246  11.499  12.634   4.613 -0.0841 -0.0885 -0.0223
17400W        W34247   2.792  10.737   4.659  0.0502 -0.1256  0.2779
17401W        W34248   3.630   7.673  12.000 -0.0689  0.0038  0.0403
17402W        W34249   7.410  14.928  13.915  0.0375 -0.2042 -0.0340
17403W        W34250  17.009   0.653  15.927  0.3592 -0.2261 -0.0295
17404W        W34251  11.553  12.981  13.325 -0.0131 -0.3068  0.1403
17405W        W34252   3.388  11.175  16.574 -0.0053  0.0665 -0.1232
17406W        W34253   7.801  16.144  12.141  0.1751 -0.1061 -0.1934
17407W        W34254  11.716  13.615   4.561  0.0787  0.0278 -0.2662
17408W        W34255  12.242   6.460   3.960  0.1134 -0.0339 -0.2264
17409W        W34256   9.742   0.523   4.123  0.1989  0.0943 -0.2473
17410W        W34257   3.372   9.551  15.582  0.2865  0.1925 -0.4394
17411W        W34258   2.787  15.117   3.845  0.0837 -0.4439  0.2174
17412W        W34259  16.946  10.082  12.823  0.1283 -0.0826  0.0681
17413W        W34260   6.251  13.562  14.622  0.2017  0.1000 -0.2478
17414W        W34261  12.903  17.011   2.542 -0.0635 -0.3066  0.1807
17415W        W34262  10.313  15.466   2.719  0.1609 -0.0219 -0.0785
17416W        W34263  13.734   1.449  12.676 -0.0829  0.1153 -0.0673
17417W        W34264   3.849   2.411  15.711  0.0097  0.0281  0.0471
17418W        W34265  10.425  14.444   5.360  0.0762  0.0364  0.1045
17419W        W34266   7.413   9.620  15.650 -0.1458 -0.0906 -0.0497
17420W        W34267  12.103  12.899  11.874 -0.1212 -0.1356  0.1471
17421W        W34268   2.952  13.412   4.589  0.2359 -0.0009  0.1750
17422W        W34269   5.659   1.923  12.823  0.0029  0.2429 -0.3186
17423W        W34270  16.005   6.114   3.583 -0.1925  0.0157  0.2251
17424W        W34271   4.305   8.418   0.393 -0.0325 -0.0203 -0.0024
17425W        W34272   1.112  10.969   3.218  0.1874  0.2772  0.0410
17426W        W34273   2.017  14.281  14.596 -0.0870 -0.0244 -0.0634
17427W        W34274  15.332   9.011   2.120  0.2046  0.1603  0.1444
17428W        W34275  10.551  13.771  13.420 -0.1152  0.4208  0.0119
17429W        W34276  12.303   0.221   1.728  0.0789  0.1693 -0.4033
17430W        W34277   1.925  11.317   4.596  0.2603  0.0055  0.0933
17431W        W34278  15.198   9.754   5.756  0.0274 -0.0373 -0.0771
17432W        W34279   8.595   8.216   1.160 -0.1723  0.1877 -0.1499
17433W        W34280   3.654   3.702  16.125  0.3889  0.0947 -0.0337
17434W        W34281   8.865  16.796  11.505 -0.0481 -0.1108  0.0031
17435W        W34282  12.905  17.406  15.743  0.0245 -0.2675 -0.1325
17436W        W34283   9.768  16.637  13.690 -0.1189  0.1558  0.0849
17437W        W34284  17.090  14.207   2.554  0.2941  0.1183  0.0045
17438W        W34285  15.756   7.062  14.922  0.0501  0.0287  0.0881
17439W        W34286  17.581   5.369   4.742 -0.2149 -0.1480 -0.0283
17440W        W34287  15.475   1.022   0.550 -0.1680 -0.3594  0.2119
17441W        W34288   8.261  13.076  12.637 -0.2219  0.1862  0.3698
17442W        W34289   6.954   5.191  15.895  0.0657  0.1408 -0.1978
17443W        W34290   2.063  17.436  13.515 -0.0702 -0.0172 -0.2335
17444W        W34291   8.960  11.002  12.047 -0.0978 -0.0966  0.4524
17445W        W34292   7.076  13.618   2.491  0.1348  0.2153  0.0549
17446W        W34293  16.064   5.492   5.353 -0.0756 -0.2371 -0.2190
17447W        W34294  15.943   5.623   1.081  0.2620 -0.0528 -0.3246
17448W        W34295  17.439  10.325   3.359  0.0760  0.2100  0.1559
17449W        W34296   4.885   2.108   0.578  0.2620 -0.0858 -0.1433
17450W        W34297  10.662   6.174   0.035 -0.0448  0.2274 -0.0345
17451W        W34298  17.267   6.060   0.582  0.0173  0.0419  0.2435
17452W        W34299   4.563   6.128   5.576  0.0141 -0.0343 -0.0992
17453W        W34300  16.309   1.379   4.243 -0.2054 -0.1800 -0.0784
17454W        W34301   4.145   9.684  13.347  0.1286  0.0384  0.1953
17455W        W34302   8.508  17.082  11.273 -0.0150  0.4037  0.0643
17456W        W34303   0.791  17.697   0.817  0.1732 -0.1966  0.1691
17457W        W34304   3.594   6.860   3.302 -0.1203 -0.1732 -0.3355
17458W        W34305   0.294   3.686   4.814  0.0018  0.0089 -0.0984
17459W        W34306  14.501   6.546   3.027 -0.0487 -0.2511 -0.0931
17460W        W34307   0.871   2.305   5.151 -0.0494  0.3583 -0.1960
17461W        W34308  17.387   3.891   3.368 -0.1205  0.3545 -0.0313
17462W        W34309   7.777  14.728   2.459  0.0963 -0.2536 -0.1982
17463W        W34310   9.432  14.631  16.072  0.0851  0.0068  0.0548
17464W        W34311  15.184   2.074   0.129 -0.2700  0.0666  0.1869
17465W        W34312  15.908   9.107   4.217 -0.2671  0.3014  0.0856
17466W        W34313  17.904  16.743  12.014  0.2276  0.0596 -0.2836
17467W        W34314  12.873   5.226   1.799 -0.1710 -0.0359 -0.0361
17468W        W34315  16.731   0.738   0.079  0.3494 -0.2954 -0.1160
17469W        W34316  13.909   7.524   1.000 -0.0469 -0.0176 -0.0975
17470W        W34317  14.845  11.519  13.407 -0.1525 -0.0109  0.2501
17471W        W34318  14.185   7.438   0.623  0.2452  0.1818 -0.0975
17472W        W34319  15.913   6.633  13.708 -0.0293  0.0908 -0.0161
17473W        W34320  10.321  14.094   1.750 -0.0106 -0.1793  0.2668
17474W        W34321   8.885   6.274  14.214  0.1289  0.2422  0.0243
17475W        W34322  15.888   4.955  13.720  0.0556 -0.0672 -0.0016
17476W        W34323   1.180   9.610   1.430  0.0812 -0.4573  0.2237
17477W        W34324   5.860  14.516  12.830  0.3234 -0.0456 -0.2209
17478W        W34325  16.048  12.535  12.174 -0.3669  0.0785 -0.0711
17479W        W34326   4.299   4.514  16.531 -0.1360 -0.0971  0.2458
17480W        W34327   4.469  14.980   1.242  0.3172 -0.0298 -0.2521
17481W        W34328  10.915  10.651  13.532  0.3331 -0.0232 -0.0781
17482W        W34329   3.352   8.190  16.674 -0.0659 -0.0329  0.0021
17483W        W34330   0.446   4.323  14.785 -0.2122 -0.1312 -0.1010
17484W        W34331   8.126  15.439   0.119 -0.4059 -0.1203  0.1453
17485W        W34332  14.980  14.774   1.541  0.2141 -0.0961  0.0304
17486W        W34333  17.226  14.402  12.185 -0.3547 -0.0842  0.0604
17487W        W34334   5.260   6.734   3.046  0.1353 -0.2242 -0.0035
17488W        W34335   9.660  15.029  14.841  0.1759 -0.0784 -0.1022
17489W        W34336   2.625   6.767   1.846 -0.0371  0.0479  0.2013
17490W        W34337  15.714   4.066  13.551 -0.1297 -0.2160 -0.0031
17491W        W34338   4.126  15.859   2.830  0.0175  0.0101  0.1093
17492W        W34339  10.863  14.667   5.048  0.2813  0.1997  0.3503
17493W        W34340  14.419  12.113  15.513 -0.0617 -0.1539 -0.0044
17494W        W34341  13.837  17.127   4.938 -0.1839 -0.0540  0.1015
17495W        W34342   7.821   9.000  16.173  0.3254 -0.1317 -0.0902
17496W        W34343  10.599  11.839   1.347 -0.1086  0.1571  0.2357
17497W        W34344  14.605   2.157  13.767 -0.2561  0.0579  0.0255
17498W        W34345   5.563   4.016  15.749  0.0441 -0.0637  0.0198
17499W        W34346   4.473   4.408  13.058  0.5240 -0.0182 -0.1118
17500W        W34347   6.007   9.880   0.643  0.1307  0.1668 -0.0798
17501W        W34348   6.325   2.642  16.450 -0.0026 -0.1841  0.0607
17502W        W34349   8.390   9.866   3.448  0.1273  0.1819  0.1205
17503W        W34350   2.164   8.476  14.665  0.0349  0.0695 -0.0174
17504W        W34351  11.790  14.284   4.654 -0.0857 -0.3353  0.3513
17505W        W34352   7.298  11.540   2.116 -0.0742  0.0575 -0.1095
17506W        W34353   7.949   7.154   4.928 -0.0141  0.1421 -0.0938
17507W        W34354  12.161  10.272   1.907  0.0553  0.0016  0.0044
17508W        W34355   0.735  15.474   6.065  0.1024 -0.2415  0.1544
17509W        W34356   3.075  15.262   1.780 -0.0784  0.1344  0.0093
17510W        W34357  10.552   1.543  11.444  0.0977  0.2365 -0.2496
17511W        W34358   9.636   1.233   2.779 -0.2289 -0.2893 -0.0599
17512W        W34359  17.056  12.470   5.581 -0.1167 -0.0219 -0.0101
17513W        W34360  16.763   5.263   0.167 -0.1845 -0.0338 -0.0014
17514W        W34361   4.613  16.651  11.460  0.0730  0.2123 -0.2677
17515W        W34362   0.975   9.698  12.587 -0.1209  0.0076  0.2464
17516W        W34363  14.067   0.323   6.325  0.3527 -0.2041 -0.3941
17517W        W34364   1.495  10.454  16.785  0.2593  0.0010  0.0280
17518W        W34365   8.381   9.118  14.261  0.1005  0.2315 -0.2098
17519W        W34366   0.370  16.884  11.581  0.4266 -0.1340 -0.0138
17520W        W34367   9.478  10.100  16.366 -0.1863  0.2539  0.0379
17521W        W34368   5.068   8.283   2.325 -0.1907 -0.0580  0.1212
17522W        W34369   8.084   2.804  12.128 -0.0501 -0.0137  0.0739
17523W        W34370   9.674   8.792   1.220  0.0866 -0.1785 -0.1687
17524W        W34371  12.728  15.184   3.095 -0.1851  0.0692  0.1225
17525W        W34372   5.102   5.793   3.880  0.1087  0.0621 -0.1556
17526W        W34373   6.974  12.069   3.244 -0.2356 -0.0674 -0.1590
17527W        W34374  16.364   7.847   0.407 -0.0614  0.1755 -0.0820
17528W        W34375  11.097   6.657   5.352  0.0329 -0.1331  0.3471
17529W        W34376   3.941  14.949   1.065  0.0846  0.0246 -0.0130
17530W        W34377  15.211   9.191   4.873 -0.1129  0.0605  0.0444
17531W        W34378  14.772   4.569   4.817 -0.2789 -0.0764  0.0206
17532W        W34379  15.027  11.883   0.735  0.0108 -0.3965  0.0659
17533W        W34380  12.725   3.325   0.014  0.1669 -0.0285  0.0770
17534W        W34381   0.856  17.009   4.929  0.0292 -0.0442 -0.0225
17535W        W34382   5.405  13.481   4.391  0.1589 -0.1043 -0.0694
17536W        W34383   9.476  16.517  14.080  0.2827 -0.0454  0.1280
17537W        W34384   1.109   7.736   3.353 -0.2742 -0.3120  0.0818
17538W        W34385   1.080   3.637  14.070  0.0617 -0.1960  0.1047
17539W        W34386  17.075   8.656  13.567 -0.2982  0.0601 -0.0690
17540W        W34387   4.722   7.553   1.824  0.0807  0.0582 -0.1048
17541W        W34388  13.285  14.961  16.055  0.0504  0.0900  0.0796
17542W        W34389  16.801   6.536   5.080  0.1144  0.0280 -0.1117
17543W        W34390  15.024   6.272  13.469  0.3043  0.2094  0.0425
17544W        W34391   6.833  14.645   1.736  0.1035 -0.0361  0.4301
17545W        W34392  14.669   9.727  13.820  0.2668 -0.1996  0.1674
17546W        W34393  14.229  13.863  15.806  0.2305 -0.0599  0.5278
17547W        W34394  14.557   0.111  12.309  0.2306  0.0022 -0.1992
17548W        W34395   5.043   5.503   5.716 -0.1883 -0.2132  0.2495
17549W        W34396   6.118  16.272  13.341 -0.2599  0.0464  0.0012
17550W        W34397   9.673   9.542   2.784 -0.0036 -0.1514  0.1114
17551W        W34398  17.271  14.993  15.420 -0.0011  0.2323  0.1801
17552W        W34399   1.645   4.039   2.974 -0.1278 -0.0910 -0.0933
17553W        W34400   2.848  10.232   0.852 -0.4502 -0.3816 -0.3253
17554W        W34401   2.230   0.080   0.376  0.1152  0.4063 -0.0902
17555W        W34402   6.517  16.501  15.943 -0.2528 -0.0045  0.1028
17556W        W34403   9.606   6.924   1.404 -0.0835  0.0212 -0.1626
17557W        W34404  15.528   8.949   0.707 -0.1068 -0.0319  0.2267
17558W        W34405   5.833  15.615   3.628  0.1303  0.4163  0.0432
17559W        W34406  11.999  16.807   4.405 -0.0104  0.1044  0.1597
17560W        W34407  13.676   7.418   3.574  0.0704 -0.2217 -0.0414
17561W        W34408   4.060   1.759  15.402 -0.0873  0.0617 -0.0985
17562W        W34409  12.804  14.908   4.312  0.0412  0.1431 -0.1178
17563W        W34410  17.556  14.187   2.307  0.0323  0.0222  0.1756
17564W        W34411   1.190  10.538  11.411  0.4352 -0.0274  0.0962
17565W        W34412   0.543   9.714  15.459  0.0394 -0.1824  0.0001
17566W        W34413  16.246   3.098  12.079 -0.0628 -0.2016 -0.0397
17567W        W34414  14.535  16.839  11.855  0.0880 -0.1428 -0.1309
17568W        W34415   0.665  11.860   1.597 -0.0282  0.3270 -0.0424
17569W        W34416  12.323  10.553   0.647 -0.0980  0.3495  0.1456
17570W        W34417   5.405   6.732   2.544  0.0964 -0.3025  0.2426
17571W        W34418  11.634   4.908   5.001  0.1833  0.0045  0.0585
17572W        W34419   9.290   0.723   3.060  0.1063 -0.3024  0.1359
17573W        W34420   6.516  10.395  15.413 -0.0858  0.0093 -0.2209
17574W        W34421   0.159  11.990  12.087 -0.0463 -0.0588 -0.4945
17575W        W34422  14.722  10.510   0.001 -0.1675  0.1654  0.2992
17576W        W34423  13.502  11.493   1.633 -0.1378 -0.1293 -0.1470
17577W        W34424   1.752   5.831  12.392 -0.0885 -0.0458 -0.0250
17578W        W34425  10.766  13.964   1.005  0.0538  0.2180  0.2702
17579W        W34426   9.118   8.934  16.638  0.0649 -0.1268  0.0415
17580W        W34427  11.946   7.428  16.343  0.0308  0.0110 -0.0531
17581W        W34428   3.826  14.687   1.916 -0.2554  0.0588  0.0724
17582W        W34429   1.643  13.067  13.110  0.0006 -0.2380  0.1521
17583W        W34430  17.733   5.053  12.271  0.0075 -0.3445  0.0375
17584W        W34431   6.573   0.332  13.859 -0.4466 -0.1350 -0.2873
17585W        W34432  17.762   1.559  13.163  0.1440 -0.0496 -0.1094
17586W        W34433  12.597   6.161   0.646 -0.0543 -0.1803  0.1960
17587W        W34434   1.939   7.246   4.836  0.2196 -0.1772 -0.0911
17588W        W34435   8.192   4.805  16.583  0.2071 -0.0626  0.0014
17589W        W34436  16.166   2.186  14.062  0.0836  0.2877 -0.0638
17590W        W34437  10.776   0.344   1.127  0.2406  0.3310 -0.0568
17591W        W34438   6.878   5.717   3.245  0.3973  0.2836 -0.0886
17592W        W34439  15.640   2.587  13.260 -0.1090  0.1240  0.1629
17593W        W34440  17.382  14.800   4.301  0.1720  0.2431 -0.2399
17594W        W34441  13.823  16.075  15.950  0.2560  0.0868  0.1120
17595W        W34442   4.769   5.820   0.073  0.1691  0.1686 -0.0266
17596W        W34443   1.073  13.410   6.601  0.0395 -0.2227  0.1636
17597W        W34444  13.261   0.813  16.260  0.0980  0.0970  0.1418
17598W        W34445   5.695   2.744  13.379 -0.1315 -0.0251 -0.0728
17599W        W34446  12.566   3.326   2.889  0.1004  0.2685  0.1011
17600W        W34447   2.453  15.799   0.047 -0.5576 -0.3130  0.1838
17601W        W34448   8.925   2.462   1.351 -0.0203 -0.1204  0.0231
17602W        W34449   5.285  13.388  11.741 -0.2495  0.2450  0.0470
17603W        W34450  11.623  10.823   0.127  0.2035  0.1632  0.1337
17604W        W34451  17.945  13.801  12.170 -0.1657 -0.0207  0.2241
17605W        W34452  10.891  15.367  13.598  0.2081 -0.1713  0.1057
17606W        W34453  12.615   1.550  16.554  0.0426  0.0974 -0.0344
17607W        W34454  16.694   1.744   2.837 -0.2325 -0.0337 -0.0438
17608W        W34455   2.489   2.555   2.176  0.1786  0.1181  0.0601
17609W        W34456   9.070   8.266   2.382 -0.1187 -0.2255 -0.1465
17610W        W34457   8.873  13.484  16.695  0.1468 -0.0371  0.2298
17611W        W34458   4.287  17.067  13.340  0.0749 -0.0015  0.0128
17612W        W34459   1.871   1.609   1.750 -0.0642  0.1810 -0.2909
17613W        W34460  11.289   0.973  13.707  0.1401 -0.3680  0.1001
17614W        W34461   8.618  16.443   1.470  0.1341 -0.1380  0.0267
17615W        W34462  11.971   2.786   0.157 -0.0956 -0.0819  0.0670
17616W        W34463  14.088   2.105  16.037 -0.0273  0.0369  0.1748
17617W        W34464   0.790  10.719  15.132  0.0319  0.1694  0.1497
17618W        W34465   3.049  15.174  16.744  0.0378  0.0613 -0.1155
17619W        W34466  16.613   2.379  15.417 -0.1642  0.1768  0.3045
17620W        W34467  14.941   3.535   4.666  0.1948 -0.1101 -0.0576
17621W        W34468   9.039  17.786  11.838  0.0312 -0.0492 -0.0928
17622W        W34469   1.478  17.651  11.744 -0.0325 -0.0772  0.0709
17623W        W34470  13.289  10.043   5.040 -0.0926  0.0501 -0.1717
17624W        W34471   2.439   9.042  11.723 -0.2344 -0.0759 -0.0123
17625W        W34472   0.049  14.898  12.820 -0.2512  0.0818 -0.0293
17626W        W34473  12.812   8.326   3.981  0.0690  0.1063 -0.1834
17627W        W34474   9.258  15.907   0.560 -0.0970  0.0687 -0.0699
17628W        W34475   4.726   3.131   5.331  0.0142  0.2633  0.0853
17629W        W34476  17.059   1.392  16.211 -0.1185 -0.1620  0.2530
17630W        W34477   6.035  15.996  16.017  0.0299  0.1657  0.0414
17631W        W34478  13.173   2.961  11.973 -0.1380  0.0309 -0.0424
17632W        W34479  11.827   2.636  14.684 -0.4857  0.0604 -0.0515
17633W        W34480   8.298   1.033  16.388 -0.0842  0.4546 -0.2070
17634W        W34481   8.502   4.264  14.769  0.0908  0.1408  0.0009
17635W        W34482   9.304  15.649   3.917  0.0375  0.0930 -0.0171
17636W        W34483   7.766   1.777   5.483 -0.0429 -0.1984  0.3271
17637W        W34484   6.483   3.208   3.397  0.0765  0.0515  0.0631
17638W        W34485   4.803  14.786  16.277 -0.1607  0.0733  0.0366
17639W        W34486  11.842   0.699  13.320  0.1733  0.1280 -0.1721
17640W        W34487   8.669   5.653  15.371 -0.2498 -0.1474  0.0436
17641W        W34488   2.629   3.572   2.613  0.2220  0.0772  0.2618
17642W        W34489   8.858   1.874  16.214  0.2475 -0.1101 -0.3168
17643W        W34490  17.458   9.509  13.247  0.1972 -0.1599 -0.1963
17644W        W34491   3.701  17.015   0.621  0.0149  0.0398 -0.4230
17645W        W34492   2.741   2.407  14.837  0.1235 -0.0243  0.1071
17646W        W34493  12.580   3.092   1.927 -0.1182  0.1161  0.1030
17647W        W34494   9.676  14.023  14.822  0.1836 -0.3047  0.0659
17648W        W34495   9.330  12.523  16.675  0.2601 -0.0149  0.3047
17649W        W34496   3.340   4.239   5.597  0.1381  0.0415  0.0086
17650W        W34497   9.728  12.594   4.704  0.2595 -0.0424 -0.0146
17651W        W34498   8.940   8.004   4.652 -0.2735  0.0328  0.0889
17652W        W34499  10.732   6.924  16.306 -0.0009 -0.1490  0.0571
17653W        W34500   9.401  10.744   6.242  0.1184 -0.2333 -0.0710
17654W        W34501  11.192   6.961   6.346 -0.1424  0.1570  0.2752
17655W        W34502   4.252  13.748  16.764 -0.0868 -0.0306  0.3001
17656W        W34503  10.672   8.949  11.962  0.0430 -0.0563  0.4028
17657W        W34504  10.554  17.639   1.691  0.3428 -0.1708  0.3204
17658W        W34505   2.919  15.352  13.866 -0.2048 -0.1838 -0.1480
17659W        W34506  16.933   5.155  13.599  0.0876 -0.2888 -0.3101
17660W        W34507  15.009   5.295   1.656  0.0481  0.1552  0.0404
17661W        W34508  14.727   1.639  14.963 -0.1027 -0.2885  0.0380
17662W        W34509  13.582  13.088  16.308 -0.0043  0.1058  0.0431
17663W        W34510   6.247  14.235  16.582  0.1668 -0.0489  0.0790
17664W        W34511   7.979  14.430  13.293 -0.0239 -0.3703  0.2149
17665W        W34512   2.360  16.238  15.701  0.3004  0.2715  0.1817
17666W        W34513  17.770   8.134   5.323  0.0842 -0.0868  0.0562
17667W        W34514  13.394   1.672  12.136 -0.0465  0.1321  0.1917
17668W        W34515  12.537  16.120   4.823 -0.0187 -0.1579  0.0134
17669W        W34516  14.371   2.323  16.709 -0.0090  0.2364 -0.1622
17670W        W34517  11.503   5.243   2.128  0.2597 -0.0402 -0.1913
17671W        W34518   8.068   8.867   0.747  0.1985  0.0905  0.3116
17672W        W34519   2.522   3.723   0.114 -0.2801  0.1378  0.0417
17673W        W34520  14.062   2.940   5.054  0.1610  0.1546 -0.1244
17674W        W34521   1.907  10.831   4.367 -0.0403 -0.0427  0.0395
17675W        W34522  12.026  12.433   5.430 -0.1761  0.0992  0.0091
17676W        W34523  16.393  11.052  12.811  0.0898 -0.1045  0.0879
17677W        W34524  12.831  11.650   1.237  0.2052  0.4516 -0.1894
17678W        W34525   9.351   5.991   1.429  0.2927 -0.2176 -0.0109
17679W        W34526  12.284  17.063   4.856  0.1006  0.1189 -0.1439
17680W        W34527   5.641  15.462  12.567 -0.3266 -0.0870  0.1129
17681W        W34528  12.299   5.633   3.681  0.0599  0.4217 -0.2020
17682W        W34529   1.283  14.420  14.562 -0.2509 -0.1062 -0.4532
17683W        W34530  12.586   4.760  16.726  0.4113 -0.1039  0.0649
17684W        W34531   3.455   1.906   2.671  0.4424 -0.3103  0.1811
17685W        W34532  12.763  17.637   1.918 -0.1917 -0.0825  0.1286
17686W        W34533  13.233   1.144  14.833  0.0315 -0.1245 -0.3128
17687W        W34534  12.701   9.820   3.945 -0.1935 -0.1030 -0.1024
17688W        W34535  13.321  12.010   4.655  0.2166 -0.0706  0.0957
17689W        W34536   8.939   6.777   4.133 -0.1472  0.2200  0.0733
17690W        W34537  14.441   0.216  11.709 -0.1250  0.2924  0.0873
17691W        W34538  15.006   7.693  14.169  0.5290 -0.0558  0.2654
17692W        W34539  15.482  13.482   5.426  0.0477 -0.0916 -0.0077
17693W        W34540  14.473  10.801   5.483 -0.0412  0.0542 -0.2796
17694W        W34541   2.078  13.894   0.857  0.2040 -0.1654 -0.1748
17695W        W34542   7.588   7.830   0.179 -0.5294  0.2338 -0.3243
17696W        W34543  13.476  17.366   5.327  0.0909 -0.0274  0.0183
17697W        W34544   7.133  15.898   4.993  0.0979  0.2835  0.0024
17698W        W34545  17.618   8.719  14.703 -0.1294 -0.2567 -0.1790
17699W        W34546   8.063   0.337  11.945 -0.0189 -0.0736 -0.1292
17700W        W34547   0.775   1.799  14.053  0.0117  0.1246 -0.0186
17701W        W34548   1.131  11.545  16.305  0.0848  0.0342  0.2541
17702W        W34549   2.818   1.711  16.668  0.1272 -0.3951 -0.0036
17703W        W34550   9.248   5.255   6.121 -0.0237 -0.2264  0.1680
17704W        W34551  14.957   7.711   1.815 -0.1223 -0.1450  0.1677
17705W        W34552  12.363  16.855   0.096  0.0571  0.0374 -0.1113
17706W        W34553   3.716   4.156  16.742  0.1978 -0.1519  0.1944
17707W        W34554  12.713   3.884  14.916 -0.2157 -0.0326 -0.1501
17708W        W34555   6.945   5.651  15.523 -0.2235 -0.0571 -0.1539
17709W        W34556   1.107   3.140   3.583 -0.1235 -0.1144  0.3114
17710W        W34557  12.995  14.563  15.983  0.0147  0.0246  0.0556
17711W        W34558   4.805   7.587  13.484 -0.1046 -0.3615  0.0400
17712W        W34559   4.579  15.092   3.727 -0.3349 -0.0636  0.2995
17713W        W34560  11.934   0.607  12.606 -0.2012  0.2547 -0.0111
17714W        W34561  11.224  11.903  13.936  0.4388 -0.1125 -0.0322
17715W        W34562  13.145   4.940   2.254  0.0447 -0.2337 -0.0649
17716W        W34563   5.334  15.934   4.430  0.0702 -0.0693  0.2792
17717W        W34564  15.637  10.951  15.194  0.0144  0.3596 -0.0849
17718W        W34565  12.963  13.472  13.108  0.1268 -0.0003 -0.0105
17719W        W34566  17.043   1.900   4.771  0.0544 -0.0029  0.5341
17720W        W34567  15.437   8.414  15.548 -0.2665 -0.2834  0.0813
17721W        W34568   0.841  11.160  16.465 -0.1254  0.1483  0.0326
17722W        W34569  12.876   2.556  12.903  0.2560  0.0440  0.1189
17723W        W34570   7.874   0.526  15.219  0.0894 -0.0319  0.0411
17724W        W34571  15.679   2.679  14.383  0.3160 -0.1630  0.2084
17725W        W34572  13.551  16.529   2.813 -0.0572  0.1238 -0.4423
17726W        W34573  16.285  16.360   2.541  0.0753  0.2482  0.1231
17727W        W34574   9.907  17.004   1.499  0.0383  0.1984  0.2773
17728W        W34575   7.292  13.416   3.926  0.0334 -0.3066 -0.2316
17729W        W34576  17.026  17.858   0.716  0.2878  0.0864 -0.2357
17730W        W34577  12.401   4.559   5.206 -0.0838 -0.1214 -0.1187
17731W        W34578  16.277  11.381   0.655 -0.1517 -0.2444  0.4976
17732W        W34579  14.733   3.843   4.385  0.2658  0.4418  0.1423
17733W        W34580   1.393   5.308  11.477 -0.0470  0.5154  0.1063
17734W        W34581   7.428   5.599   0.344  0.1218  0.1161 -0.0394
17735W        W34582   1.121   9.332   4.801  0.1700  0.2103  0.0537
17736W        W34583  13.514   8.861  16.429 -0.3349 -0.0825  0.0309
17737W        W34584   9.164   4.519   1.743 -0.0915  0.1715  0.2672
17738W        W34585  16.751  15.416   4.005 -0.2961  0.2151  0.0963
17739W        W34586  14.912  15.631  15.350 -0.0467  0.0710  0.1570
17740W        W34587   2.914   9.297  15.486  0.1640  0.1068 -0.1139
17741W        W34588   0.646  14.934   4.871  0.2465 -0.1903 -0.1134
17742W        W34589   0.377   1.804  16.315  0.2069  0.1518 -0.1239
17743W        W34590   9.194   8.526  16.310 -0.2038  0.0903 -0.0697
17744W        W34591   3.929   4.166   2.495  0.2200 -0.2695 -0.4312
17745W        W34592  12.630  17.269  13.794  0.1350  0.0691 -0.1451
17746W        W34593  15.368   7.142  15.603  0.1450 -0.0848 -0.1429
17747W        W34594   3.230   2.994   3.964  0.3662  0.1999  0.0158
17748W        W34595  15.489  10.208   3.736 -0.0034  0.2983 -0.1741
17749W        W34596   4.111   7.968   5.672 -0.4546  0.1088 -0.0544
17750W        W34597  14.416   6.202   4.017  0.0624 -0.1426 -0.0375
17751W        W34598   5.196  13.637  16.786 -0.2643  0.4947 -0.2372
17752W        W34599   8.501  10.208  12.277  0.0986  0.0989 -0.3067
17753W        W34600   4.813   8.931  14.541 -0.0577  0.2638 -0.0392
17754W        W34601  17.644   6.578   6.072  0.2726  0.1843  0.1560
17755W        W34602   6.426   9.729   1.386  0.0755 -0.3833  0.0592
17756W        W34603  15.634  17.137  12.751 -0.2092  0.0974 -0.0393
17757W        W34604   1.175   3.571  11.298  0.2624 -0.1735  0.2012
17758W        W34605   6.421  16.249   0.057 -0.1354 -0.0356  0.1110
17759W        W34606   5.404  16.983  11.995  0.0782  0.1573  0.1723
17760W        W34607  11.449  15.539   3.175 -0.3532 -0.1887  0.3068
17761W        W34608   4.465  10.883  13.613  0.0030  0.2398 -0.0726
17762W        W34609   8.006   1.976  11.249  0.3123  0.0728  0.2267
17763W        W34610   1.615  15.024  12.822 -0.0274  0.2873  0.0155
17764W        W34611   9.747  17.289   0.696 -0.1521  0.0854 -0.3427
17765W        W34612   1.768   1.324   2.861  0.0362  0.1413  0.0525
17766W        W34613   2.899  10.282  15.414 -0.0633  0.0406  0.1614
17767W        W34614   7.791   5.954  14.068 -0.1942  0.3482  0.1512
17768W        W34615   0.578  14.192   2.015  0.0958 -0.1789 -0.1604
17769W        W34616  10.459   9.614   3.982  0.0251 -0.0645  0.2586
17770W        W34617   1.161  10.039   5.861  0.1303  0.1918 -0.1152
17771W        W34618   0.341   8.121  14.810  0.0449  0.0937  0.0769
17772W        W34619  10.832  10.018   1.842 -0.3613 -0.0323 -0.0121
17773W        W34620  16.889  10.522   2.716  0.0090  0.0403  0.1871
17774W        W34621  14.168  15.477   0.638 -0.0912 -0.1801 -0.0092
17775W        W34622   9.418   1.244  11.471 -0.4267 -0.0054  0.2478
17776W        W34623   1.500   5.422   3.721 -0.0065  0.0716  0.0771
17777W        W34624  11.630   2.105   1.071  0.0322 -0.2747  0.3877
17778W        W34625   0.401  16.807   3.537  0.0023  0.1500  0.3198
17779W        W34626  12.989  11.460   2.972 -0.1587  0.0525  0.0649
17780W        W34627  16.606   7.756   2.712  0.1016 -0.0697  0.0327
17781W        W34628   6.087   2.259  12.347  0.0768 -0.0792 -0.0990
17782W        W34629  15.782   4.523   3.552 -0.2762 -0.1431  0.1725
17783W        W34630   6.308  17.747   0.946  0.0810 -0.4124  0.0889
17784W        W34631   3.813   2.996   2.816 -0.2009  0.2529  0.2465
17785W        W34632  10.642  14.735  15.481 -0.2469 -0.1683 -0.2017
17786W        W34633  13.590  16.507  16.365 -0.3091 -0.0322  0.4228
17787W        W34634   5.594  14.864  11.922  0.1273  0.1455  0.0459
17788W        W34635   8.433  11.742  14.008 -0.1518 -0.0230 -0.0496
17789W        W34636   8.829   1.043  16.426  0.0732 -0.0246 -0.1051
17790W        W34637   8.996  11.860  13.819  0.2076 -0.0110 -0.1722
17791W        W34638  11.814   0.185   5.270  0.0866  0.1541  0.0499
17792W        W34639   3.656   6.073   0.988  0.0122 -0.0546  0.1555
17793W        W34640  12.110   5.394   2.957 -0.2917  0.1113  0.0420
17794W        W34641   2.936  15.318  11.692  0.1746  0.2867  0.0657
17795W        W34642   2.448  14.122   5.774 -0.1050 -0.2650  0.0464
17796W        W34643  10.953   5.829   5.735  0.0537 -0.0838  0.4438
17797W        W34644   2.144   3.672   2.661 -0.2921 -0.1320 -0.0188
17798W        W34645  16.383  13.220  13.546 -0.1896  0.2606  0.1495
17799W        W34646  14.633   7.502  11.273  0.1122  0.2615 -0.0129
17800W        W34647  15.462   0.768  12.563  0.1019 -0.1043  0.1153
17801W        W34648  16.563  11.955  12.948 -0.2463  0.0687  0.3247
17802W        W34649  13.979  10.393  15.611  0.0627  0.1637 -0.0517
17803W        W34650   3.805   6.762   3.784  0.1869 -0.1887  0.2239
17804W        W34651  15.861  11.957  12.992  0.1168  0.0696  0.2125
17805W        W34652   1.427  17.909   0.107 -0.0236  0.2609 -0.1618
17806W        W34653   0.925   6.145   4.049 -0.0737  0.4635 -0.1543
17807W        W34654   3.355  13.429  13.828  0.3992  0.4066  0.0445
17808W        W34655   5.718   3.666  15.417  0.2031 -0.1222 -0.4179
17809W        W34656   6.959   5.196   0.541  0.0324 -0.0588 -0.1065
17810W        W34657  15.593   9.428  16.403  0.2079  0.1724 -0.0268
17811W        W34658  10.234   0.509  16.611  0.1095  0.0925  0.1448
17812W        W34659   4.182   7.573   5.283  0.3286  0.0351  0.0390
17813W        W34660  11.906  17.743   1.408  0.1928 -0.0004  0.0923
17814W        W34661  17.714   9.020   4.131  0.0527  0.0444  0.0251
17815W        W34662  13.881   3.463   1.067  0.0145 -0.1591 -0.0834
17816W        W34663  10.912   0.353   2.087 -0.0922 -0.1313  0.1708
17817W        W34664  11.092   4.713   3.169  0.0794  0.1763  0.0285
17818W        W34665  17.108   6.159   3.381  0.1832  0.1341  0.1015
17819W        W34666  11.594   6.706   0.564  0.0570 -0.0246 -0.1004
17820W        W34667  17.619   2.418   1.401 -0.1150  0.2323  0.3304
17821W        W34668   0.619   9.088   3.590 -0.4628  0.0248 -0.0856
17822W        W34669  13.686  10.389  16.627  0.2881  0.2088  0.1034
17823W        W34670   1.847  10.771  12.610  0.0420  0.0125  0.0422
17824W        W34671  13.131  16.469   3.781  0.0388  0.2045  0.2501
17825W        W34672  10.172   5.028  12.585 -0.2560  0.1213 -0.2002
17826W        W34673   7.771  14.890  11.834  0.3506  0.3056  0.0300
17827W        W34674  12.373  16.447   4.311  0.1763  0.0315 -0.0589
17828W        W34675  14.717   9.354  13.000 -0.0051 -0.2549  0.2269
17829W        W34676  11.041  14.310   4.294  0.1424  0.0662 -0.0359
17830W        W34677   4.147   6.472  16.351 -0.2018 -0.0176 -0.2061
17831W        W34678   3.658   9.277  14.107  0.0760  0.2526 -0.2283
17832W        W34679  12.249  13.442  15.246 -0.0886  0.0206  0.0999
17833W        W34680  13.667  14.816   4.899  0.1456 -0.0963  0.1802
17834W        W34681   2.909   9.228   0.883 -0.0786  0.1195  0.3832
17835W        W34682   8.909  11.301   3.921  0.0426  0.1905 -0.1800
17836W        W34683  17.594   7.150   0.881  0.1265  0.2902 -0.1259
17837W        W34684   2.553   0.753   4.930  0.3949 -0.0299  0.0372
17838W        W34685   5.460   5.171  11.977 -0.2572 -0.1867 -0.1256
17839W        W34686  10.564   6.950   1.113  0.0216  0.3643 -0.1383
17840W        W34687  15.587   6.701  15.178  0.2881  0.0469 -0.2475
17841W        W34688  13.164  14.709   1.687  0.1746 -0.0837 -0.0287
17842W        W34689  11.050   3.332   3.772  0.1529  0.0842  0.2579
17843W        W34690  13.561   1.067  15.916 -0.1189 -0.0679 -0.0717
17844W        W34691   2.701   4.321   1.062  0.0304  0.0494 -0.1001
17845W        W34692   4.045   8.755   2.921 -0.0292  0.0339 -0.0773
17846W        W34693  10.613  15.665   3.065 -0.1257  0.0153  0.0713
17847W        W34694  17.813   5.917   3.489 -0.3020  0.0646 -0.1172
17848W        W34695   8.556   5.750  14.766 -0.0417  0.0637 -0.1275
17849W        W34696   8.008   6.152   1.145 -0.3044  0.3644 -0.0968
17850W        W34697  11.962   4.466   4.288 -0.0026 -0.3696 -0.1572
17851W        W34698   5.591   7.420  15.225 -0.0991 -0.3886 -0.0732
17852W        W34699   8.967   8.284   3.376  0.0719 -0.1914 -0.0116
17853W        W34700  14.370   9.823  12.878  0.0878  0.1756 -0.4272
17854W        W34701   5.467   2.449   1.668 -0.1744  0.1196 -0.0298
17855W        W34702  11.393  14.518   3.991  0.2092 -0.0027 -0.0089
17856W        W34703  17.399  10.491  15.548  0.0681 -0.0468 -0.1675
17857W        W34704  15.773   5.047  15.272 -0.2658 -0.3019  0.0638
17858W        W34705   2.734   2.236  16.756 -0.0290  0.2119  0.1072
17859W        W34706  16.722   5.232   3.205 -0.0503 -0.0625  0.1274
17860W        W34707  14.294   6.433   1.633 -0.1119  0.0686  0.5819
17861W        W34708   3.382  16.771   4.153  0.0884  0.0153 -0.1572
17862W        W34709  15.736  13.064   4.615 -0.2171  0.0850 -0.1478
17863W        W34710   1.752   9.756  13.003 -0.2172  0.1446 -0.0030
17864W        W34711   4.412  11.712  15.249  0.1281  0.0069 -0.1029
17865W        W34712   7.473   6.700   3.986  0.0455 -0.0847  0.2244
17866W        W34713   1.362   8.114   2.276 -0.0224  0.2951  0.1178
17867W        W34714   7.992   6.489   2.939  0.2013  0.0046  0.0682
17868W        W34715   0.349   5.139  11.726  0.2416 -0.1028 -0.2777
17869W        W34716   5.811  17.349  16.047  0.0856 -0.0303  0.0763
17870W        W34717  12.634   5.361   0.128 -0.1924  0.0923  0.0260
17871W        W34718  10.064   9.845   3.758 -0.3430  0.1489 -0.1870
17872W        W34719   0.911   9.976   1.672  0.0246 -0.2418  0.0146
17873W        W34720  17.201  14.050  11.725  0.2613  0.1402 -0.1271
17874W        W34721   2.813  13.788  14.646  0.1529 -0.3230 -0.1252
17875W        W34722   8.456   1.554   5.135  0.1479  0.0173  0.0469
17876W        W34723   6.106  10.142   3.939 -0.0528 -0.0892  0.0265
17877W        W34724  15.350   0.480  11.647 -0.0401 -0.1501 -0.0174
17878W        W34725   4.789   0.500   2.557  0.0088 -0.3308  0.1554
17879W        W34726   5.395   2.020   4.025  0.0043  0.3031  0.0580
17880W        W34727   8.083   3.798   1.668 -0.0321  0.0497 -0.0968
17881W        W34728  12.291  15.891  15.926 -0.2178  0.1537  0.0049
17882W        W34729   4.090  13.593  13.432 -0.2719 -0.1889 -0.2665
17883W        W34730  15.077  10.183   4.946 -0.2098 -0.1564 -0.1021
17884W        W34731   3.508   9.752   3.113  0.1553 -0.0320 -0.1188
17885W        W34732  16.597  11.235   4.597  0.0370  0.0346  0.0831
17886W        W34733   3.800   7.073   5.120 -0.0968 -0.2038  0.1876
17887W        W34734   7.178  13.674  13.486 -0.0875 -0.1107  0.1169
17888W        W34735   2.974  17.246  12.430  0.0664  0.2260  0.1721
17889W        W34736   6.282   7.119   2.091  0.0404  0.0743 -0.0688
17890W        W34737   6.379   8.266   3.510  0.0695  0.0956 -0.0335
17891W        W34738  14.125   8.298   5.668 -0.3458  0.2780  0.1042
17892W        W34739  16.573   9.060  16.753 -0.0991  0.2365 -0.3664
17893W        W34740  13.976   8.164   0.096  0.1419 -0.0139  0.2158
17894W        W34741  11.601   5.301  16.664 -0.1292  0.1747 -0.0543
17895W        W34742   8.106   2.868  16.693  0.1494 -0.0481  0.4080
17896W        W34743   7.175  11.281  16.756  0.2560  0.0739 -0.3391
17897W        W34744  10.760  13.098   4.045  0.0137 -0.0655  0.2462
17898W        W34745  16.861   7.682  12.712  0.0059 -0.2031 -0.0733
17899W        W34746   7.727  16.655   2.194 -0.0543 -0.0598 -0.1112
17900W        W34747   0.213  14.204  11.979  0.2318  0.1414  0.2930
17901W        W34748   0.672  13.238  12.200  0.0282  0.0614  0.1189
17902W        W34749  16.222   1.766  12.667 -0.0918  0.1377  0.0054
17903W        W34750   6.679  16.771   2.678 -0.3162  0.1201  0.1059
17904W        W34751   0.126   2.078  10.320  0.0522 -0.0810 -0.4260
17905W        W34752   3.335   3.560   3.894  0.0251  0.1247 -0.0262
17906W        W34753   2.543  13.307  16.743  0.1189  0.2845  0.2617
17907W        W34754   4.997  15.725   1.850  0.3593 -0.0927  0.0954
17908W        W34755  10.290  11.139  12.272 -0.0320  0.1783 -0.1621
17909W        W34756   7.160  15.713   6.071 -0.2621 -0.1233 -0.1472
17910W        W34757   3.213   2.261  15.020 -0.0165 -0.0046  0.0708
17911W        W34758   1.721  17.251   1.691  0.1009  0.4273 -0.2788
17912W        W34759  13.559  11.016   1.354  0.2308 -0.1235 -0.1539
17913W        W34760  16.972   6.149  14.924  0.1341  0.0071 -0.0657
17914W        W34761   8.388   4.289  13.777  0.3910  0.0612 -0.0853
17915W        W34762  14.475  14.451  13.084  0.0506 -0.2280 -0.3498
17916W        W34763   0.514   0.304   2.955 -0.0385  0.1878  0.2236
17917W        W34764   2.134  11.714   0.109  0.0619 -0.2991 -0.1503
17918W        W34765  17.108  16.930  15.079  0.0319 -0.0547 -0.1045
17919W        W34766  14.779  14.944   3.459  0.2786 -0.0186  0.4245
17920W        W34767   3.295   8.324   0.356  0.0551 -0.2087  0.0988
17921W        W34768   7.508  17.906   1.800  0.0303 -0.0837  0.4182
17922W        W34769   3.822  10.764   0.055  0.0854 -0.1427  0.1823
17923W        W34770   9.933  11.706   2.571  0.5201  0.1552  0.0692
17924W        W34771  16.713  13.084   3.916  0.0709 -0.0637 -0.0251
17925W        W34772   7.229  13.824   3.076 -0.0236  0.2280  0.1712
17926W        W34773   6.278  16.421   2.469  0.0451  0.1004 -0.1172
17927W        W34774   8.902  16.386  14.870  0.4763  0.0090  0.2177
17928W        W34775  15.974  10.470  15.427  0.2072  0.0165 -0.0741
17929W        W34776   0.927   4.757  13.119 -0.1180  0.2943 -0.0200
17930W        W34777  17.242  13.394   6.251 -0.0968 -0.0221  0.0453
17931W        W34778   6.836   0.481   1.490 -0.2975 -0.0448 -0.1714
17932W        W34779   1.002   3.525  11.844  0.1597  0.1982  0.0921
17933W        W34780  11.527  13.941  13.976  0.0794 -0.0975 -0.0222
17934W        W34781  12.179  12.013   3.223  0.0512 -0.1865 -0.0172
17935W        W34782   7.980  10.145  14.672 -0.3342 -0.2144 -0.1202
17936W        W34783   2.770  14.882   3.263 -0.0049 -0.2517 -0.1338
17937W        W34784  11.047  11.210  15.343  0.3718 -0.2880 -0.1436
17938W        W34785   8.695   8.807   0.448  0.1319 -0.0277  0.1237
17939W        W34786   2.531   2.380   1.556  0.0793 -0.1152 -0.0079
17940W        W34787  13.029   0.453  15.005  0.0287 -0.1307 -0.0365
17941W        W34788   2.132  17.110   3.843  0.0299 -0.0262 -0.3012
17942W        W34789   1.392   6.576   5.254 -0.0290 -0.1059 -0.0268
17943W        W34790   7.907   1.241  12.601  0.0630  0.0015  0.2653
17944W        W34791  12.209  14.122  12.558  0.1503 -0.0991  0.1402
17945W        W34792   7.372   8.276   4.318 -0.1719 -0.0327  0.0146
17946W        W34793   8.000   4.531   4.767  0.1179  0.2330  0.3506
17947W        W34794   6.801  12.169   4.224  0.1485  0.2873 -0.1418
17948W        W34795   8.790   1.439   4.025  0.0775 -0.0485  0.1547
17949W        W34796   4.498  13.611   3.958 -0.0328  0.1444 -0.0477
17950W        W34797   7.182   5.183   2.153 -0.0129  0.2501 -0.0086
17951W        W34798  10.573  17.075  15.029 -0.3524  0.1297  0.0147
17952W        W34799   2.694   5.330   1.180  0.1193  0.0267 -0.2362
17953W        W34800   1.821   9.272   5.359  0.0435  0.2268 -0.0149
17954W        W34801  14.739   7.379  12.754 -0.0341 -0.0516 -0.0655
17955W        W34802  13.689   2.589   2.656 -0.0110  0.1077 -0.1457
17956W        W34803   8.719   0.783  13.437 -0.1151  0.1062  0.3883
17957W        W34804  12.300   5.115   3.794 -0.0483  0.0849  0.0184
17958W        W34805   5.518  12.406  16.778 -0.2383  0.1884  0.0180
17959W        W34806   8.937   8.823   3.467  0.0511 -0.1930  0.1097
17960W        W34807   2.475   0.434  15.004 -0.4710  0.1280  0.1605
17961W        W34808   2.039  16.030   1.638 -0.1399 -0.0960  0.1275
17962W        W34809  11.623   2.686  12.666  0.2026 -0.0338  0.1035
17963W        W34810   2.025   9.760   0.920 -0.0251  0.0369  0.2261
17964W        W34811  10.720   4.347  11.716 -0.0360  0.2976  0.0920
17965W        W34812   3.324  10.720   1.630  0.2626  0.0588  0.3561
17966W        W34813   2.678   2.846   1.276 -0.0922 -0.1187  0.0638
17967W        W34814  11.037  15.741  14.075 -0.0599 -0.0729 -0.1318
17968W        W34815   2.945   5.730   4.581  0.0848 -0.1892  0.3517
17969W        W34816  17.901  16.224  11.798  0.1780  0.1522 -0.0452
17970W        W34817   8.792   7.502  16.416  0.0144  0.2195 -0.1015
17971W        W34818  14.838   9.979  14.231 -0.0521  0.0590 -0.1670
17972W        W34819   0.560  10.407   0.844 -0.0264 -0.1514  0.0579
17973W        W34820  10.298  11.255   4.166 -0.3573 -0.1097  0.1886
17974W        W34821   6.703  15.607   4.273  0.0193 -0.3031 -0.1032
17975W        W34822  10.701  11.143  13.713  0.1229 -0.3267 -0.1154
17976W        W34823   3.072  16.030   0.933 -0.4067  0.1879 -0.1754
17977W        W34824  11.090  16.115  16.044 -0.2096 -0.1651  0.2306
17978W        W34825   0.105  13.555   2.878 -0.2024 -0.0369  0.1696
17979W        W34826   3.347  15.867  15.595 -0.0854  0.1870 -0.2482
17980W        W34827  16.934  16.426  14.419 -0.0195 -0.3307  0.3500
17981W        W34828   8.155   0.629   2.117 -0.1437  0.2631 -0.0755
17982W        W34829  17.105  13.310  14.684 -0.3509  0.1035 -0.1423
17983W        W34830   3.471   7.013  11.806 -0.0455 -0.1786  0.0376
17984W        W34831  15.318  15.211   1.041 -0.1653  0.1427 -0.1488
17985W        W34832  15.359   0.134  14.293 -0.0447  0.0569 -0.4092
17986W        W34833  17.693   6.758   3.858 -0.0474 -0.2699  0.1559
17987W        W34834   0.405   8.111   2.603  0.0484  0.1378 -0.0671
17988W        W34835  15.734  13.592   3.788  0.1101 -0.1063 -0.1417
17989W        W34836  15.257  13.118   2.692  0.0123 -0.2683  0.1871
17990W        W34837  15.992  10.171   2.634  0.1035  0.0758 -0.2401
17991W        W34838   4.843  12.782   4.597  0.1609 -0.1125  0.1257
17992W        W34839   8.848   9.514   2.941  0.2423 -0.0899 -0.0782
17993W        W34840   0.372   5.559   4.586 -0.1660  0.0513 -0.0622
17994W        W34841  14.579  17.813   4.503 -0.0059 -0.2097  0.1572
17995W        W34842   3.760   8.956   1.906 -0.3592  0.0735 -0.0373
17996W        W34843   0.574   3.483  13.117  0.1593  0.3110 -0.3514
17997W        W34844   4.250  16.790  16.061 -0.0576  0.1022 -0.1625
17998W        W34845  13.598   4.934   2.597  0.1386  0.0977  0.4066
17999W        W34846   9.780   6.212   5.221  0.1292  0.2611  0.1946
18000W        W34847  14.523  17.212   2.086 -0.2213 -0.0580  0.2391
18001W        W34848   7.164   3.372   0.520  0.2605 -0.0659 -0.2018
18002W        W34849   2.859  10.240  12.072 -0.1957  0.1749 -0.1589
18003W        W34850  15.007   0.879   5.375 -0.1001 -0.0737 -0.0543
18004W        W34851  17.719  15.711   1.840 -0.0965 -0.2170 -0.2411
18005W        W34852   8.940   1.112   1.950 -0.1939  0.1429  0.0405
18006W        W34853  10.186  14.317  12.709  0.0779  0.0332  0.1935
18007W        W34854  17.240  16.455   0.637 -0.1070  0.0101  0.1882
18008W        W34855  12.994   8.021  11.243  0.2376  0.0237 -0.2682
18009W        W34856   7.396   4.047   2.233 -0.0919  0.0183  0.0245
18010W        W34857  14.765   2.335  11.161 -0.0952 -0.0439  0.3454
18011W        W34858  12.126   1.133   5.380  0.1903 -0.1681 -0.0889
18012W        W34859   4.852   3.039   1.982 -0.2019  0.1608  0.1300
18013W        W34860   9.312   0.256   2.859  0.1059  0.4420  0.0677
18014W        W34861   7.811   9.525   1.882 -0.3550 -0.0301  0.0473
18015W        W34862   7.712  15.566   0.314 -0.0006  0.1808 -0.2002
18016W        W34863   3.997  13.303  16.756  0.0913  0.0403  0.3598
18017W        W34864  10.985   7.044  13.430 -0.1215  0.0788  0.1667
18018W        W34865  12.647   7.187  15.674  0.1206  0.0685  0.2776
18019W        W34866  16.268  15.017   0.199  0.2247  0.2313 -0.0765
18020W        W34867  17.894   1.842  13.570 -0.1924 -0.1876  0.2264
18021W        W34868  15.699  15.428   5.095 -0.0902  0.1755 -0.1698
18022W        W34869   3.097  10.518   2.761  0.4328  0.1259  0.0361
18023W        W34870   3.324   4.182   4.657 -0.1148  0.1318  0.1930
18024W        W34871   0.064  11.547   4.967  0.2305 -0.1523 -0.0009
18025W        W34872  10.049  16.980   3.637  0.0109 -0.2431 -0.0734
18026W        W34873   0.573   0.228   3.492  0.1404  0.0042 -0.2078
18027W        W34874  14.254   6.048  15.203  0.4939 -0.0915 -0.1051
18028W        W34875  13.139   3.605   3.297 -0.1827 -0.0344 -0.3293
18029W        W34876  16.535  12.364  13.706 -0.0623 -0.1380  0.1068
18030W        W34877  15.940   5.449   3.482 -0.0474  0.2277  0.1128
18031W        W34878   5.866  12.448  15.345  0.1287 -0.1528  0.0277
18032W        W34879  12.480   1.186  11.192 -0.3013  0.0277 -0.2866
18033W        W34880  15.382   9.365  12.132  0.0808  0.1936  0.0378
18034W        W34881   4.274   3.765   3.783  0.1577  0.1976 -0.4158
18035W        W34882   5.525  17.857  14.710 -0.0076 -0.3187 -0.0540
18036W        W34883   4.832  15.757  12.721 -0.1367 -0.3585 -0.1390
18037W        W34884  16.942   7.918  13.781 -0.0112 -0.0498  0.0420
18038W        W34885  17.297  15.998   3.582 -0.3509 -0.0283  0.0920
18039W        W34886   1.410  14.963   1.131  0.0291  0.0007  0.0830
18040W        W34887   4.202   9.430   0.642 -0.0600 -0.0448  0.0717
18041W        W34888  10.590   2.215   5.621 -0.1748 -0.0188 -0.0001
18042W        W34889   6.662   6.104   4.108 -0.0402 -0.0276  0.0019
18043W        W34890   9.437   4.195  11.398 -0.3012  0.1621  0.1040
18044W        W34891  12.914   2.320   5.460 -0.0399 -0.0183  0.2979
18045W        W34892   8.113   0.550  11.451 -0.0659 -0.1410 -0.2827
18046W        W34893  16.190   6.946   4.369 -0.1391 -0.1666  0.1205
18047W        W34894   3.653   5.104  14.352 -0.3787 -0.1507 -0.0092
18048W        W34895  10.726  12.440  14.542  0.0431 -0.4329  0.0473
18049W        W34896   0.182  10.397   1.191 -0.0253 -0.1964  0.0352
18050W        W34897  12.201   3.226   3.335  0.0617  0.0288 -0.1544
18051W        W34898  13.536   3.482  12.674 -0.2141 -0.1221  0.4089
18052W        W34899  15.606   8.969   1.729 -0.1075  0.1720 -0.0804
18053W        W34900   7.751   4.952  15.153 -0.0224 -0.4504 -0.1593
18054W        W34901   4.578  11.909   4.078  0.0800  0.2508 -0.0493
18055W        W34902   8.551   4.764  14.628  0.0362 -0.0187 -0.0429
18056W        W34903   6.732   2.151  15.378 -0.1191  0.3213  0.1583
18057W        W34904  12.927   9.616  13.171  0.1681 -0.0713 -0.0790
18058W        W34905   9.251   9.555  14.236 -0.3404  0.2348 -0.2156
18059W        W34906   7.099  10.545  12.610  0.1751 -0.1685 -0.0076
18060W        W34907  14.440  13.785   2.048  0.2296  0.0596  0.0360
18061W        W34908   0.983   8.186   1.067  0.0560  0.0089 -0.1683
18062W        W34909   6.618   4.412   6.107 -0.2310  0.3314 -0.1525
18063W        W34910   7.049  12.936  14.040  0.0056  0.0974 -0.2149
18064W        W34911   7.614  15.149  16.118  0.1869  0.0313 -0.1167
18065W        W34912  17.660  14.987  14.512 -0.2064  0.0110 -0.1886
18066W        W34913  17.393   6.040   4.739 -0.1592 -0.3130  0.0371
18067W        W34914  15.304   6.966  12.693  0.1788  0.2392 -0.1872
18068W        W34915  10.078  12.279   2.556  0.0073  0.1032 -0.2907
18069W        W34916   8.517   7.958  16.544  0.2625 -0.0389  0.2928
18070W        W34917   6.767   7.194  12.259  0.1795 -0.0555  0.0740
18071W        W34918   9.210  10.619   1.693  0.1133  0.0059  0.0860
18072W        W34919  15.640   4.829   2.640 -0.0661  0.2900 -0.4198
18073W        W34920   2.087  10.418   4.163  0.3481  0.3132 -0.0384
18074W        W34921  13.863   4.443  12.242 -0.1756 -0.1444 -0.3228
18075W        W34922  11.618   7.116  15.480 -0.0070 -0.0698 -0.2884
18076W        W34923   2.797   3.520  15.260  0.4288  0.3842  0.1005
18077W        W34924  17.254  10.555   2.307  0.2654  0.0097 -0.0116
18078W        W34925  14.730  16.434   3.301 -0.2127  0.0168  0.1448
18079W        W34926  12.271   6.028   2.756 -0.1466 -0.0187 -0.0720
18080W        W34927   2.052   4.646   5.203 -0.2870 -0.1214  0.2270
18081W        W34928  10.044  16.994   5.564  0.2139 -0.0254 -0.0077
18082W        W34929   3.721  10.074   3.959 -0.0394 -0.0573 -0.2519
18083W        W34930  15.606  10.503  14.070  0.0173 -0.0712 -0.1709
18084W        W34931  10.529  14.803  12.802  0.1412  0.0924 -0.0702
18085W        W34932  16.291  17.946  11.557  0.4110  0.1486  0.0276
18086W        W34933   8.270  13.157  11.780  0.1159 -0.1963 -0.0222
18087W        W34934   0.459   5.092  15.517  0.0892 -0.2303  0.0765
18088W        W34935   1.592   4.061   0.580 -0.1612  0.5381 -0.0647
18089W        W34936  16.809   8.509   0.376  0.0333 -0.1354  0.0519
18090W        W34937  11.659  17.419   0.125 -0.2314 -0.1097  0.2731
18091W        W34938   7.895  14.389  15.884 -0.3852 -0.1656  0.1802
18092W        W34939   1.686   4.168   1.053 -0.4082 -0.2439  0.2551
18093W        W34940   7.283  16.481   2.061  0.1768  0.0123 -0.1087
18094W        W34941  12.176  14.438  15.089 -0.4321  0.1125  0.3631
18095W        W34942   7.858   4.462  15.192 -0.0644 -0.1816  0.2169
18096W        W34943  16.183   0.454  11.522 -0.1483  0.1268 -0.0198
18097W        W34944  12.699   8.664   1.252 -0.0122  0.1252 -0.1699
18098W        W34945  16.529   3.663   0.918 -0.0662 -0.3880 -0.1946
18099W        W34946  14.588  13.496  15.654 -0.0283  0.1813 -0.1174
18100W        W34947  10.787   9.632  11.372  0.0508  0.1556 -0.0702
18101W        W34948  13.148  11.022  15.605 -0.2160  0.1406  0.1007
18102W        W34949  10.059  10.241   0.675  0.0292 -0.1225  0.2685
18103W        W34950  15.947  15.969   2.552  0.1257  0.1110 -0.1003
18104W        W34951  12.962  16.034   1.973 -0.3205  0.1219 -0.0428
18105W        W34952  17.003   7.403   0.028  0.0550 -0.0772  0.4425
18106W        W34953   5.161  15.031  13.223 -0.0305  0.1106 -0.1435
18107W        W34954  13.079   9.905  15.615  0.1754 -0.2267  0.1917
18108W        W34955   4.070   9.208  16.160 -0.3556 -0.0113  0.1149
18109W        W34956  12.908   8.076  16.498 -0.0569  0.1280  0.2403
18110W        W34957  16.623   9.456  14.995 -0.1000  0.1335 -0.2328
18111W        W34958   4.107  15.199   5.689 -0.2995  0.0449 -0.0078
18112W        W34959   9.660   5.633  15.852 -0.0315  0.0916  0.4020
18113W        W34960  11.935  12.920   3.706 -0.1340  0.5006  0.0022
18114W        W34961  14.238  14.694  14.018  0.1888 -0.0111 -0.0525
18115W        W34962  17.154   0.395   0.712 -0.0177 -0.3186 -0.0012
18116W        W34963   3.956  13.362   6.310  0.2717  0.0768 -0.0247
18117W        W34964   2.178  12.789  15.594  0.1038 -0.0359  0.0605
18118W        W34965   4.469   0.655  11.648  0.1883 -0.2613 -0.1674
18119W        W34966   5.764  11.736   5.500 -0.1487 -0.3119 -0.0060
18120W        W34967   5.110  11.564   4.847  0.4070 -0.1195  0.0000
18121W        W34968   2.555  14.661  16.512 -0.0204 -0.0821  0.2001
18122W        W34969   4.433  13.917  13.609  0.1757  0.1074  0.2142
18123W        W34970  15.748  15.736  13.088  0.2201  0.1356 -0.1068
18124W        W34971   5.953   9.961   1.171  0.0240 -0.0703 -0.3854
18125W        W34972   4.773   3.324  16.176 -0.0832  0.2759  0.0366
18126W        W34973   6.824  10.831  13.144 -0.1551 -0.3912  0.0966
18127W        W34974   1.180  12.589   0.978  0.1844  0.5505 -0.2065
18128W        W34975  11.631  10.425   2.036 -0.0969  0.0646  0.1222
18129W        W34976   8.129   9.549   3.191 -0.0506  0.0028  0.0491
18130W        W34977   0.254  13.873  15.384  0.2146 -0.1092 -0.1197
18131W        W34978   5.831   7.821  12.718 -0.0506 -0.0373  0.1877
18132W        W34979   1.073   8.988  16.199 -0.4230  0.1212 -0.1955
18133W        W34980  14.907  13.319   4.203  0.1550  0.1116  0.0901
18134W        W34981   5.273   0.165  12.081  0.0172  0.0119  0.0083
18135W        W34982   5.109   0.466  11.680  0.0694 -0.0855  0.1236
18136W        W34983   0.257   1.663  12.887  0.2660  0.0203  0.2605
18137W        W34984   3.652   4.296   0.840  0.0552  0.4117  0.0940
18138W        W34985   9.475   9.534  12.569 -0.0396 -0.0362 -0.0865
18139W        W34986  13.985  13.672  12.558 -0.1103  0.0617  0.1233
18140W        W34987  13.037  11.293  12.840  0.0364 -0.2257  0.0194
18141W        W34988  16.556   4.111  14.980  0.2144 -0.2520 -0.3474
18142W        W34989   9.772  16.781  14.979  0.0436 -0.1888  0.1502
18143W        W34990  13.520  11.564  13.482 -0.0958  0.0175 -0.2569
18144W        W34991  15.282   0.286  11.169  0.0521 -0.0990  0.2703
18145W        W34992   8.143  11.224   4.402 -0.1445  0.0892 -0.1680
18146W        W34993  14.569   8.100   0.025  0.1055 -0.0357 -0.1883
18147W        W34994   1.667  16.771   2.826 -0.1340 -0.1801  0.1167
18148W        W34995  11.757   9.380  11.521 -0.1968 -0.0215  0.1692
18149W        W34996  12.545  17.371  12.198  0.1016  0.0017  0.2990
18150W        W34997   6.147  10.412  13.281  0.0223 -0.1480 -0.2208
18151W        W34998   4.951   4.335   3.488 -0.0507 -0.0549 -0.1782
18152W        W34999   9.107   9.477   1.610 -0.1359 -0.3291  0.1483
18153W        W35000   4.983  13.328  12.245  0.1221  0.1179  0.0393
18154W        W35001   8.857  13.582   0.915 -0.0123  0.4017  0.5736
18155W        W35002   4.769  10.687  16.774 -0.1273 -0.0663  0.1715
18156W        W35003  16.031  11.690   2.499  0.0473 -0.0679  0.4613
18157W        W35004   4.120  13.677   3.610  0.1948  0.0016  0.0225
18158W        W35005  14.472   4.126  16.529  0.0896 -0.1537 -0.0416
18159W        W35006   0.354  17.844   0.953 -0.1714 -0.4371 -0.3040
18160W        W35007   2.024   5.294   4.704 -0.2062 -0.1814 -0.0050
18161W        W35008  16.609  15.451   1.579 -0.1017 -0.1245  0.0592
18162W        W35009  13.978   9.564  15.057 -0.3912 -0.0222  0.2668
18163W        W35010   4.405  17.792   1.227 -0.0484  0.0610 -0.1490
18164W        W35011   8.312  11.176  14.889  0.0604  0.2274  0.1125
18165W        W35012   6.745   2.689  16.148  0.1404  0.1224  0.2928
18166W        W35013   1.628  13.868  15.988 -0.0257  0.2771 -0.4257
18167W        W35014   4.487  13.389   5.358  0.2373  0.2516  0.0187
18168W        W35015   6.790  15.671  16.082 -0.1642 -0.2780 -0.5251
18169W        W35016  14.049  10.503   4.682 -0.4368  0.4062  0.0449
18170W        W35017  17.728   6.040   5.197  0.2372  0.0362 -0.0417
18171W        W35018   6.000  16.600  15.119 -0.2235  0.0235  0.3214
18172W        W35019   5.194  11.219   3.852 -0.1086 -0.0098  0.0137
18173W        W35020  14.321   8.650   3.603 -0.1450  0.0844 -0.1275
18174W        W35021  11.839   6.301   2.723 -0.2700 -0.1324  0.0617
18175W        W35022   8.455  13.237   4.733 -0.2185  0.2653  0.2480
18176W        W35023  16.827   1.254   0.329 -0.2503 -0.4674  0.0539
18177W        W35024   4.004  14.526   3.129 -0.3358 -0.3059  0.2089
18178W        W35025  14.041   4.014   2.093  0.0406 -0.0534  0.2420
18179W        W35026   6.949  14.696   2.254  0.2714  0.2199 -0.1130
18180W        W35027  13.415   6.576  15.237 -0.0508  0.2346 -0.3708
18181W        W35028  16.207   8.168  14.914 -0.0608  0.1091 -0.0451
18182W        W35029   2.105   0.130   1.372  0.1601  0.1463 -0.0954
18183W        W35030  12.731  16.943   3.068 -0.0885 -0.2318  0.0874
18184W        W35031   4.218   8.096  11.517 -0.1103  0.4260  0.0646
18185W        W35032  10.990   7.214   1.706  0.3083 -0.2253 -0.1937
18186W        W35033   1.469   2.936   1.214 -0.2819 -0.3747 -0.1846
18187W        W35034   7.099   9.821   3.517 -0.0700  0.1584  0.1605
18188W        W35035  10.421  13.469   4.310 -0.1508  0.3540  0.1675
18189W        W35036   8.007  12.620   1.874 -0.0410 -0.2223 -0.0271
18190W        W35037  17.446  10.860  15.925  0.1471 -0.1317  0.1317
18191W        W35038   9.381  11.711  16.053 -0.1751 -0.1032 -0.0701
18192W        W35039   3.901  17.316  13.656 -0.1726 -0.0720  0.1214
18193W        W35040   6.317  14.971  12.242  0.0044 -0.1679 -0.0396
18194W        W35041   6.500  13.601   5.127  0.2334 -0.1989  0.0283
18195W        W35042   4.218  16.776   1.469  0.0346 -0.2520 -0.1911
18196W        W35043  10.201  14.284  11.779  0.0637 -0.1223 -0.2393
18197W        W35044   9.858  13.088   5.592 -0.1116  0.1380  0.1273
18198W        W35045   1.999   1.294  11.489  0.1300  0.0225  0.2201
18199W        W35046   5.970   1.159   2.636  0.0582  0.1096  0.0826
18200W        W35047  17.599   0.653  16.707  0.0265  0.2584  0.0716
18201W        W35048  10.569   7.190   4.663  0.0746 -0.2277 -0.3539
18202W        W35049   9.610  15.060   0.305  0.0888  0.1506  0.2187
18203W        W35050  16.831   8.509   0.882 -0.1040 -0.2616  0.1312
18204W        W35051  13.655   7.077   1.733  0.0969  0.0767 -0.0861
18205W        W35052   8.703  15.041   2.658 -0.2013 -0.0674 -0.0968
18206W        W35053  16.504  13.116  11.572 -0.0721  0.0398 -0.0045
18207W        W35054   3.577   6.631   1.177  0.1568  0.1595  0.1093
18208W        W35055  11.704   3.265  13.298 -0.0349 -0.0562 -0.0811
18209W        W35056   1.665   3.151  12.367  0.0833  0.0087 -0.0054
18210W        W35057   9.930  11.480  16.073 -0.0044  0.4092 -0.1314
18211W        W35058   9.054   7.550  11.850  0.1107 -0.1240 -0.1577
18212W        W35059  15.862  13.788  14.141 -0.0410 -0.1100  0.5459
18213W        W35060   2.086   5.609  16.362  0.0892  0.3469  0.1344
18214W        W35061  15.819   2.566   2.070 -0.1385  0.0942 -0.1943
18215W        W35062   7.059  12.085  13.520 -0.1342  0.0219  0.0535
18216W        W35063   1.006  12.270  12.004  0.4004 -0.0176  0.0939
18217W        W35064   5.119   6.851  14.684 -0.3313  0.2906 -0.3198
18218W        W35065   6.203  16.003   1.541 -0.1050 -0.3153 -0.1000
18219W        W35066  10.497   1.739  13.723 -0.0823  0.0290 -0.2996
18220W        W35067   9.054  17.503  13.127  0.2860  0.2516 -0.0551
18221W        W35068  10.140  16.064   1.040 -0.0763  0.0925 -0.2668
18222W        W35069   9.085   6.464  12.320  0.2870 -0.1165  0.2148
18223W        W35070   3.609   7.984   4.668  0.0889 -0.0491 -0.2039
18224W        W35071  17.437   4.046  14.642 -0.2225 -0.2468 -0.0199
18225W        W35072  10.884   1.328  13.804  0.3534  0.0289 -0.2884
18226W        W35073  17.320   1.740  14.367 -0.1573 -0.1417  0.0297
18227W        W35074   6.114   1.591   3.725 -0.0919  0.2038 -0.2514
18228W        W35075  14.713  14.934   0.080 -0.0020 -0.1645  0.2619
18229W        W35076  11.022   1.922   3.357 -0.4521  0.1298 -0.1285
18230W        W35077  16.956   9.129  15.842  0.0750  0.0095  0.0417
18231W        W35078   3.280   5.165   3.917 -0.1230 -0.1588 -0.2564
18232W        W35079   6.931   2.153  11.964 -0.1433  0.1859 -0.0305
18233W        W35080  16.856  17.802  15.436  0.1821 -0.1160  0.0462
18234W        W35081  17.689   0.624   4.938 -0.1484 -0.2587  0.1499
18235W        W35082  16.385  14.615  12.247 -0.1460  0.1891 -0.0523
18236W        W35083  11.411  11.282   2.916 -0.1718  0.1389 -0.0558
18237W        W35084  16.767  15.868  15.630 -0.1458 -0.0211 -0.0720
18238W        W35085  10.577   7.191   3.421 -0.2059 -0.0928 -0.2131
18239W        W35086   0.275  10.207  11.734 -0.2333 -0.0673 -0.1867
18240W        W35087   5.101  10.901  12.459  0.0431 -0.0553 -0.1156
18241W        W35088  12.501   9.822  15.805  0.2079  0.1726  0.2286
18242W        W35089  14.990   8.178   3.531  0.0542  0.1338 -0.2003
18243W        W35090   6.560  14.415   2.102 -0.1556  0.2494 -0.0287
18244W        W35091   0.021   0.861  15.473  0.0420  0.1998 -0.1031
18245W        W35092   7.446   5.080  15.634 -0.0680 -0.0213  0.3389
18246W        W35093  13.198   5.460   0.689  0.1551  0.0069  0.0461
18247W        W35094  13.124   9.604   3.692 -0.2416 -0.1225  0.3576
18248W        W35095   9.717  10.843   0.218 -0.1321  0.0018 -0.0849
18249W        W35096  13.867  11.688  11.981 -0.2312 -0.1201  0.5508
18250W        W35097  14.888   4.762   0.502  0.0915  0.0005 -0.0610
18251W        W35098  11.927   1.675   3.215 -0.0288 -0.0450  0.2527
18252W        W35099  16.864   7.631   5.110 -0.1157  0.2246 -0.1790
18253W        W35100  12.054   7.442   5.875 -0.0460 -0.1042  0.0289
18254W        W35101  15.504  15.049  15.221 -0.4172 -0.1884  0.0056
18255W        W35102   4.383   9.485   6.313 -0.2392  0.0453 -0.0912
18256W        W35103  13.311  10.508  14.087 -0.3105 -0.2172  0.1111
18257W        W35104   0.588   5.380  14.314 -0.0980  0.0830  0.0397
18258W        W35105   7.643   0.176   1.126 -0.1350 -0.1578  0.1837
18259W        W35106   3.063  10.953  13.312 -0.0788  0.3686  0.1685
18260W        W35107  11.397   2.603   5.433  0.1737 -0.0294  0.0230
18261W        W35108  17.099   5.716   0.120 -0.1430 -0.2229  0.4598
18262W        W35109   3.024  10.770  11.905 -0.0704  0.0021  0.0777
18263W        W35110   6.100  11.078   4.050  0.1446  0.0648 -0.1453
18264W        W35111   2.753  11.615   0.719 -0.0136  0.2014  0.0393
18265W        W35112   9.667   2.560  14.325 -0.1045  0.0277  0.2616
18266W        W35113  12.667   1.865   3.440  0.1102 -0.0885  0.0117
18267W        W35114   5.666   5.888   5.018  0.0602  0.0297 -0.0013
18268W        W35115  11.749   1.765   0.301 -0.1241 -0.0610 -0.1385
18269W        W35116   3.842  13.429  12.984  0.1335  0.1966  0.0560
18270W        W35117   4.612   9.797  13.500 -0.1474  0.0482 -0.0441
18271W        W35118  12.424  12.986   3.947  0.2877  0.1166  0.0406
18272W        W35119  15.443   1.353  16.523 -0.2480  0.0411 -0.3438
18273W        W35120  13.082   7.588  16.205 -0.1037  0.1327 -0.2338
18274W        W35121  13.787  12.850  14.550 -0.0703  0.2157  0.2007
18275W        W35122   6.788  16.608  15.385  0.2901  0.0736 -0.1239
18276W        W35123  11.834  12.739   2.180  0.0608 -0.2560 -0.0406
18277W        W35124   6.319   7.905  12.758 -0.1215 -0.2860  0.1609
18278W        W35125   7.244  17.538   2.074 -0.2441 -0.1787 -0.0408
18279W        W35126   2.601  10.863   2.057 -0.3616  0.2061 -0.1448
18280W        W35127   7.241   6.619   0.465 -0.2241  0.0958 -0.2762
18281W        W35128   8.173   1.064   5.946  0.0735 -0.0588  0.2553
18282W        W35129   9.120   1.688   5.532 -0.1851  0.0546  0.0722
18283W        W35130   0.833   1.727   2.449  0.1547  0.1561 -0.1590
18284W        W35131  12.077   1.576   2.621 -0.1175  0.0680 -0.1686
18285W        W35132  11.873   4.298   2.067  0.0506  0.1384  0.0789
18286W        W35133   9.379  15.482   2.213 -0.1896 -0.0319 -0.0234
18287W        W35134  10.034  10.178  14.327 -0.0670 -0.1191 -0.3734
18288W        W35135   8.804  17.370   5.634  0.0361  0.0308 -0.1187
18289W        W35136  15.257  12.866   5.065  0.0711  0.0659  0.1231
18290W        W35137   3.931   5.158   5.713  0.2822  0.2249  0.3033
18291W        W35138  11.467  16.364  15.729 -0.0584 -0.0003  0.1187
18292W        W35139   6.953   4.710  11.810  0.3040  0.1238  0.3680
18293W        W35140   3.057   4.310   5.139 -0.2500 -0.0264 -0.1683
18294W        W35141  12.248   9.721   1.761  0.3859  0.0252  0.3675
18295W        W35142  15.270   1.716  14.916 -0.3609  0.2711  0.5531
18296W        W35143   2.353   3.378   3.001 -0.1129  0.0339 -0.1320
18297W        W35144  12.610   3.031  12.817 -0.1757  0.0401  0.1689
18298W        W35145  15.657   2.489  12.725 -0.1269  0.0893  0.1192
18299W        W35146   3.207  11.259  12.917 -0.0706  0.0848  0.0815
18300W        W35147   3.210   9.179  13.245  0.2046  0.0261 -0.2490
18301W        W35148   0.032  10.387   4.652  0.0093  0.0651 -0.1041
18302W        W35149   5.750   3.061   4.948 -0.0710  0.0699  0.4331
18303W        W35150  17.644   5.546   5.481  0.0253  0.1592  0.2178
18304W        W35151   5.398  14.863   4.069  0.2718 -0.2490 -0.3594
18305W        W35152   3.045  11.440  14.731  0.1968  0.0723  0.3747
18306W        W35153   5.398  16.416   4.661  0.1879 -0.3437 -0.0218
18307W        W35154   9.756   2.317   1.088  0.0186 -0.0513 -0.3693
18308W        W35155   6.631  14.861  13.032 -0.3003  0.0043 -0.0988
18309W        W35156   8.074  16.153   3.845 -0.0225  0.0000 -0.1638
18310W        W35157  17.938   0.786   0.320  0.3604 -0.0221  0.0054
18311W        W35158  14.665   1.360  12.753  0.2280 -0.0907 -0.2257
18312W        W35159   5.047   3.718   0.507  0.2484  0.0891  0.1039
18313W        W35160   5.188  12.719   0.214 -0.1498 -0.2352 -0.1373
18314W        W35161  16.979   5.787   6.008  0.3816  0.3750  0.1289
18315W        W35162   5.690   4.849  14.040 -0.0421  0.2035 -0.1062
18316W        W35163   5.942  16.038   2.744 -0.1427  0.0473  0.1097
18317W        W35164   0.175  17.317   2.763  0.0172 -0.1236  0.0661
18318W        W35165  13.491   0.792  12.036  0.0283  0.0576  0.1774
18319W        W35166   5.262  13.156   4.834 -0.2548  0.1376 -0.0553
18320W        W35167  12.317  10.563   1.579 -0.2351 -0.0701 -0.0542
18321W        W35168   7.647   0.668   0.305  0.4646 -0.0793 -0.0603
18322W        W35169  11.435   2.613   1.731  0.0783  0.0509 -0.3054
18323W        W35170   6.009   2.686   3.974  0.1413 -0.0040 -0.0819
18324W        W35171  14.930   6.750  16.538  0.0003 -0.2990 -0.2902
18325W        W35172   5.558  14.906   0.204  0.0079  0.1258 -0.0476
18326W        W35173   2.599   4.558  12.798  0.0599  0.2503  0.2348
18327W        W35174   9.367   9.640   0.073  0.2818  0.0654 -0.1820
18328W        W35175   7.468  17.426   1.598  0.4765  0.1594  0.0309
18329W        W35176   8.609   2.367  12.956 -0.5109  0.4289  0.0110
18330W        W35177   3.706  14.042   3.735 -0.0385  0.0575 -0.1932
18331W        W35178  16.257   2.513   1.435 -0.2565  0.1957  0.0679
18332W        W35179  16.756   6.057  11.852 -0.3903 -0.1114 -0.0335
18333W        W35180   3.521  14.373  16.765 -0.0388  0.0305  0.3291
18334W        W35181   7.325   9.706   3.087  0.0369 -0.1064 -0.2965
18335W        W35182  13.933  17.653   3.904  0.1817  0.1286  0.0629
18336W        W35183   1.768  13.645  14.023 -0.0188 -0.0131  0.0679
18337W        W35184   5.126  16.434  13.633 -0.1155  0.1314 -0.0308
18338W        W35185  15.993  14.147  14.763 -0.0197 -0.0976  0.0522
18339W        W35186   1.550  15.841   2.400 -0.0254  0.0394 -0.2785
18340W        W35187  11.492   4.623   4.058 -0.3625 -0.1722 -0.1160
18341W        W35188   4.287  13.528  14.960  0.1377 -0.2053  0.0452
18342W        W35189   6.408   8.423   3.988  0.0711 -0.1737  0.1652
18343W        W35190   4.712   1.849   4.686 -0.3087 -0.3126  0.3568
18344W        W35191   1.512  14.838  14.053 -0.1044  0.4140  0.2247
18345W        W35192  16.399   3.310  16.476 -0.0000 -0.1050 -0.3206
18346W        W35193  10.959   5.987  16.085 -0.0273 -0.2164  0.1488
18347W        W35194   5.161  17.913  16.501 -0.2739 -0.0254  0.0584
18348W        W35195  16.366   6.285  16.356  0.1085 -0.0046  0.4221
18349W        W35196   5.097   2.786  15.302  0.2170  0.1101  0.2719
18350W        W35197   4.088  10.793   5.116  0.1581  0.0422 -0.0159
18351W        W35198   2.243   7.575   4.534  0.0329  0.1424 -0.1438
18352W        W35199  14.127  13.636   4.544 -0.1201 -0.0853 -0.1529
18353W        W35200  17.620   6.403   0.421  0.1178  0.1428 -0.2688
18354W        W35201   5.624  15.468   4.733 -0.0264  0.2198 -0.1345
18355W        W35202   5.800  12.999  15.278 -0.0211  0.0416 -0.2710
18356W        W35203   2.214   7.919  13.995 -0.0294  0.2359 -0.1376
18357W        W35204  11.275   4.254   3.824 -0.3041 -0.0226  0.1492
18358W        W35205   5.295   2.957   1.766  0.0782 -0.0379  0.0649
18359W        W35206  11.794   3.185   0.418 -0.0278  0.2817 -0.1311
18360W        W35207  10.630   5.687   2.460 -0.1054  0.0417  0.2589
18361W        W35208   4.031  11.470  13.434 -0.0563  0.2394 -0.2532
18362W        W35209  14.070   3.585   4.357 -0.2691  0.1728  0.3179
18363W        W35210  17.491   9.294  11.814 -0.2437  0.2318 -0.3326
18364W        W35211  12.302  15.280  15.152 -0.1144 -0.3736  0.3547
18365W        W35212  13.590   3.433  14.474  0.0612  0.2630  0.2532
18366W        W35213   8.041   9.059   2.159 -0.5196  0.0381  0.1840
18367W        W35214   1.034  16.120  16.400  0.0269  0.2169  0.2777
18368W        W35215   6.047   8.691   3.396 -0.3436 -0.0946  0.3274
18369W        W35216  17.382   7.927  16.065  0.2043 -0.1903  0.0171
18370W        W35217  11.336   3.557   5.124  0.1820 -0.2928  0.1588
18371W        W35218  15.794   3.782   3.736  0.0422  0.0875  0.0028
18372W        W35219   3.417  17.067   3.122  0.1051  0.0067 -0.2626
18373W        W35220  15.585  13.849   4.250 -0.2735  0.1211  0.0140
18374W        W35221   5.416   4.591   0.279 -0.2407 -0.1938 -0.1371
18375W        W35222   0.040  13.981  16.752  0.0467 -0.1117  0.1585
18376W        W35223   4.302   7.843  16.415  0.0612 -0.3146  0.0518
18377W        W35224  12.558   9.037   2.394  0.1600 -0.0815  0.0173
18378W        W35225  12.712   2.342  11.926  0.4033  0.2088  0.2589
18379W        W35226   4.183   4.813  12.013  0.2091 -0.1659  0.0586
18380W        W35227  17.403   3.601   5.244 -0.0561  0.2313 -0.2444
18381W        W35228  10.855  10.475   0.564 -0.0733  0.1636 -0.1884
18382W        W35229  14.478  15.087   4.556 -0.1543  0.0993 -0.0925
18383W        W35230   5.921  11.404   1.542  0.3080  0.2389 -0.2519
18384W        W35231   6.318   7.275  14.478 -0.1330  0.3109 -0.0835
18385W        W35232   4.431   6.542   3.631 -0.3545 -0.1624  0.3320
18386W        W35233  12.634   6.466   1.568  0.0867  0.5337 -0.1266
18387W        W35234  13.184   3.339  12.330 -0.2027 -0.0069 -0.1698
18388W        W35235  10.562   5.924  15.714 -0.0088 -0.2131  0.0680
18389W        W35236  16.844   6.992   2.444  0.0557 -0.0332  0.2030
18390W        W35237   0.495   4.704   3.447 -0.1555  0.0035  0.0008
18391W        W35238   8.972  10.846   5.255  0.1525  0.1758 -0.1139
18392W        W35239  13.341  13.622  14.588 -0.0668  0.2270 -0.0234
18393W        W35240  15.495   0.778   0.964 -0.2748 -0.0019 -0.3545
18394W        W35241  16.425  10.782   1.218  0.0033 -0.0791 -0.0212
18395W        W35242   5.609   6.853   3.865 -0.0279 -0.1822  0.1171
18396W        W35243   5.650   6.855  15.466  0.0292  0.2743  0.1763
18397W        W35244   7.643   1.899   0.816 -0.0452  0.2187  0.0237
18398W        W35245   8.921  12.628  14.805 -0.2300 -0.2211  0.2698
18399W        W35246   5.470   2.724   1.213  0.0891  0.0616 -0.0786
18400W        W35247   8.206   5.507  12.203  0.0059 -0.0467  0.2179
18401W        W35248   3.171   1.887  12.058  0.0342 -0.0682  0.1635
18402W        W35249   4.645   4.245   0.624 -0.0058 -0.1559  0.1262
18403W        W35250   6.821  11.961   2.147 -0.0546 -0.2706 -0.0978
18404W        W35251   6.554   9.765  15.969  0.1068 -0.0837  0.2003
18405W        W35252   2.992  12.198   2.534 -0.2414  0.2133  0.1930
18406W        W35253  12.704  16.731   4.967  0.1365  0.3811 -0.1683
18407W        W35254  10.762   4.205   3.884  0.1123 -0.0225 -0.0153
18408W        W35255   3.759   9.214   0.895  0.1020  0.0217  0.1022
18409W        W35256   7.516  15.480  12.650 -0.2549 -0.0330 -0.4225
18410W        W35257   6.457   2.510  15.602  0.0127 -0.1124  0.0720
18411W        W35258  14.618  14.133  14.877 -0.2284 -0.0756  0.0385
18412W        W35259   7.819  13.763  12.591  0.2500 -0.0591  0.3066
18413W        W35260  14.731   4.898   1.507 -0.0909  0.0502 -0.2012
18414W        W35261  16.300   4.590  11.640  0.3007  0.0524 -0.2289
18415W        W35262  13.547   5.370  14.204 -0.1467 -0.0714 -0.3797
18416W        W35263  10.808   3.282  13.897  0.0495 -0.0317 -0.0784
18417W        W35264   2.199   4.078   5.084  0.1531 -0.1563  0.1327
18418W        W35265   4.268  12.012   0.418  0.0945 -0.1983 -0.0815
18419W        W35266   7.881   3.757  11.963 -0.1212  0.2046  0.2367
18420W        W35267  15.111   5.118   4.303  0.0437 -0.2041 -0.0788
18421W        W35268   4.147  16.120   4.175 -0.1255  0.2033 -0.2392
18422W        W35269  12.182   2.290  13.221 -0.2012  0.3284 -0.1154
18423W        W35270   2.988  17.699   1.584  0.0334  0.3481 -0.1566
18424W        W35271   0.752   9.683   4.399 -0.4928  0.0414  0.2159
18425W        W35272   4.530   6.047  11.877  0.1551  0.0926  0.0216
18426W        W35273   1.694  15.271  16.561  0.1336  0.1071 -0.0606
18427W        W35274  13.569   9.816   4.555 -0.0604  0.0587 -0.0712
18428W        W35275   5.578   1.962   5.997  0.0164  0.1427 -0.1969
18429W        W35276   4.097   5.717   1.931  0.0871  0.0567  0.0694
18430W        W35277  14.131   2.745   0.046  0.1488  0.1242  0.1436
18431W        W35278  11.238   9.216   0.949  0.1209  0.0651  0.3130
18432W        W35279  11.561  12.674  15.737  0.1684 -0.0564 -0.0036
18433W        W35280  11.099  14.646   2.863  0.1229 -0.0298  0.1454
18434W        W35281  15.908  11.022  13.982  0.1388 -0.1513  0.0106
18435W        W35282  17.795   6.639  14.680 -0.3946  0.0638 -0.0754
18436W        W35283   4.334   7.015  16.310  0.2097  0.1815 -0.4954
18437W        W35284   2.508  12.263   1.568 -0.0558  0.2072 -0.1881
18438W        W35285   2.234   8.477  16.090 -0.1377 -0.0174 -0.1744
18439W        W35286   6.168   3.505  11.934 -0.2675  0.2634  0.1265
18440W        W35287  16.036  14.145   5.472 -0.0648 -0.1789  0.1670
18441W        W35288  16.809  11.212  13.942 -0.2011  0.1334  0.0620
18442W        W35289   5.459  11.578   3.659 -0.1021 -0.1569 -0.0821
18443W        W35290   3.278  14.035   5.208 -0.1409 -0.1394  0.1319
18444W        W35291   3.304  10.972   3.108  0.1978 -0.1093  0.0151
18445W        W35292   8.417   0.087  13.447  0.1454 -0.0776  0.2270
18446W        W35293  16.285   9.138   1.192  0.1663 -0.2189  0.1583
18447W        W35294  12.844   1.935   3.936  0.1977  0.0935  0.0272
18448W        W35295  10.342   3.084  13.661  0.2559  0.3662 -0.1141
18449W        W35296   4.799  14.286  12.100 -0.3563  0.0329 -0.2489
18450W        W35297   1.982  12.432  15.972 -0.1362  0.1545  0.1980
18451W        W35298   7.169   1.591   4.605  0.3529 -0.0185  0.3830
18452W        W35299  12.590   3.598  14.423  0.1380 -0.3416 -0.1087
18453W        W35300   7.348  13.789  15.840  0.0386  0.0248 -0.0763
18454W        W35301  15.567   6.627   4.458 -0.1524  0.1093 -0.0276
18455W        W35302   5.400  14.570  16.609  0.0251  0.0826 -0.0386
18456W        W35303  13.925   0.982  12.954  0.3346  0.0509  0.0070
18457W        W35304   2.546  12.603   2.818  0.0058 -0.3730 -0.0530
18458W        W35305   3.736  15.711  14.251 -0.1069 -0.1457 -0.0066
18459W        W35306   6.410   5.299  11.909  0.0688 -0.0443 -0.1303
18460W        W35307   3.084   7.071  13.688  0.3722  0.1153 -0.0602
18461W        W35308   0.321  15.446   4.582 -0.0121  0.0853 -0.2710
18462W        W35309   6.408   3.527   2.312 -0.2409 -0.0143 -0.0894
18463W        W35310  12.852  11.030  12.413  0.0052 -0.3905 -0.3461
18464W        W35311   6.987  14.253  11.877  0.3402 -0.0708  0.3103
18465W        W35312   3.491   0.583   5.047 -0.1685 -0.1053 -0.1417
18466W        W35313  17.040  16.687   3.008  0.0451  0.1921  0.0499
18467W        W35314  15.636   9.210   3.200  0.0572 -0.1390  0.0815
18468W        W35315   3.918   1.249  15.305  0.0007  0.1452  0.1092
18469W        W35316  16.934   1.433  15.324 -0.0298  0.1245  0.0364
18470W        W35317  13.130   9.478  16.571  0.0566 -0.2256 -0.0125
18471W        W35318  15.350  16.788   6.482 -0.1267  0.2555  0.0692
18472W        W35319  15.517   5.671  11.594  0.0230  0.1090  0.0375
18473W        W35320   3.748   7.921   2.846  0.1442  0.2867  0.0266
18474W        W35321   9.228   1.229  12.852  0.2929  0.0389 -0.0080
18475W        W35322   8.937   4.736   2.569  0.1030  0.4937 -0.2257
18476W        W35323   0.579   7.618   3.425 -0.0830  0.0965  0.1221
18477W        W35324   4.269   2.321   5.905 -0.0211  0.2222  0.1751
18478W        W35325   3.068  12.352   1.140  0.2147  0.2111  0.1134
18479W        W35326   3.661   1.224  11.702  0.0963  0.1409  0.2641
18480W        W35327  10.149  16.948  14.697  0.1255  0.0647 -0.0972
18481W        W35328  16.530  14.550  15.192  0.0286  0.0817 -0.0034
18482W        W35329   6.172   0.493   0.384  0.1081  0.1145  0.1824
18483W        W35330  15.050   3.970   1.759  0.2113 -0.0135  0.0992
18484W        W35331  11.068   3.250  15.647  0.2615  0.3304 -0.1930
18485W        W35332   9.622   2.492  11.895 -0.1788  0.3168 -0.0165
18486W        W35333   6.666  14.727  14.396 -0.1959  0.0843  0.1229
18487W        W35334  16.508   8.990  15.744 -0.4547  0.1600  0.0698
18488W        W35335  11.626   5.443   4.974 -0.0845 -0.2056 -0.1389
18489W        W35336   0.520   3.890  13.511  0.2091  0.2469  0.1615
18490W        W35337  10.959  17.117   5.324 -0.1096 -0.0802  0.0186
18491W        W35338   0.156  17.226   3.722 -0.1499 -0.1662  0.0735
18492W        W35339   9.268  12.263  16.045 -0.3005  0.0169  0.1661
18493W        W35340  13.460  14.802   2.675  0.1114  0.2551 -0.1535
18494W        W35341  12.688   6.125   3.851 -0.0024 -0.0489 -0.4578
18495W        W35342   3.809  13.724  15.928  0.0460  0.0813 -0.1837
18496W        W35343  12.406  10.130   2.668  0.2502 -0.0010  0.0266
18497W        W35344   4.260   5.327   3.558 -0.0907 -0.3264  0.0816
18498W        W35345   0.595   2.460   2.876 -0.0983  0.2059  0.2496
18499W        W35346  15.542   0.731   4.265  0.2072 -0.0216 -0.1783
18500W        W35347  11.827  15.439  15.409  0.1532  0.1915  0.0826
18501W        W35348   8.624  10.803  14.929 -0.1252 -0.2272  0.3788
18502W        W35349   1.603   8.437   1.892  0.0460 -0.0014 -0.0152
18503W        W35350  11.228   7.568   0.975 -0.2270  0.2702  0.1065
18504W        W35351   6.423  11.129   3.295  0.0193  0.2729  0.2210
18505W        W35352  16.895   0.493  13.788 -0.0280 -0.2283 -0.3115
18506W        W35353   5.832  11.120   2.639  0.3493 -0.0280  0.4114
18507W        W35354  11.568   7.661  14.416  0.0313 -0.1457 -0.1540
18508W        W35355   6.684  10.673   1.234 -0.1508 -0.3240  0.0559
18509W        W35356  13.866   7.912  16.129  0.0135  0.2023  0.0328
18510W        W35357  16.696  10.984   3.476  0.1292 -0.0808 -0.0597
18511W        W35358  16.001  10.114   3.719 -0.2684  0.1906 -0.0336
18512W        W35359  14.664  13.898   5.356 -0.1718  0.1544 -0.0005
18513W        W35360   0.059   6.918  12.749  0.0046 -0.1892  0.0678
18514W        W35361   0.453   4.985   2.836 -0.1591 -0.2523 -0.0833
18515W        W35362  16.262   1.021  13.717  0.1835 -0.0333  0.1001
18516W        W35363   9.667   3.775   1.641 -0.2245 -0.1962  0.0642
18517W        W35364   7.856   3.506  12.939  0.1726  0.0502 -0.2354
18518W        W35365   7.728  14.358   2.778  0.1304  0.2453  0.1300
18519W        W35366   7.553   9.708   1.019  0.1960  0.1667 -0.1115
18520W        W35367  13.326   6.002   5.445 -0.4068 -0.2199 -0.4647
18521W        W35368   3.398   4.110  12.993 -0.0486 -0.1651 -0.2254
18522W        W35369  14.835   6.041   3.769  0.1260  0.5211  0.0044
18523W        W35370  14.754  17.061   2.502  0.1392  0.0906  0.0918
18524W        W35371   2.258   0.144  11.864  0.0484  0.1502  0.2094
18525W        W35372   1.327  15.557  12.171  0.1604  0.1729 -0.1101
18526W        W35373   6.738   2.196  13.834  0.0488 -0.0907 -0.0933
18527W        W35374   5.324  10.324   4.694 -0.0654 -0.0131 -0.0324
18528W        W35375  10.383   2.910  15.114  0.0211 -0.1771  0.2700
18529W        W35376  15.483  17.285   1.963  0.0693 -0.0839  0.2169
18530W        W35377  11.905   6.511   5.840  0.1878 -0.1743  0.0645
18531W        W35378   7.080   7.578  12.099 -0.0291 -0.3015  0.5472
18532W        W35379  14.618  17.339   3.481 -0.0851  0.2050 -0.2407
18533W        W35380  14.254   9.878  14.124  0.3506 -0.2250  0.2075
18534W        W35381  10.348   3.210  14.134 -0.0957 -0.0212 -0.1706
18535W        W35382   3.651   9.248   3.315 -0.0504 -0.0263 -0.0994
18536W        W35383  15.599  14.783  13.416  0.0088  0.4737 -0.1252
18537W        W35384  10.884   3.388   5.221  0.1845  0.1270 -0.1277
18538W        W35385   2.707   8.141   1.934  0.0185  0.1903  0.0685
18539W        W35386  15.448  12.023  15.773 -0.0887  0.2833 -0.3406
18540W        W35387  10.130   0.744  11.336 -0.2664  0.1309  0.0323
18541W        W35388   8.604   5.849  16.457  0.4641  0.0240 -0.1368
18542W        W35389  12.117  12.349   4.094 -0.1672  0.1228  0.2139
18543W        W35390   0.886   7.956   1.995  0.2994 -0.3481  0.0622
18544W        W35391  10.334  11.245  11.422 -0.1400 -0.1158  0.0639
18545W        W35392   3.353  17.104   4.551  0.0097 -0.0335 -0.1571
18546W        W35393  10.291   8.929   4.397  0.1440 -0.1082  0.0759
18547W        W35394   1.226  17.869  14.890  0.2937 -0.0028  0.1668
18548W        W35395  15.446   7.802   2.362  0.1234 -0.0757  0.1961
18549W        W35396  15.607   1.906   3.568  0.0082  0.0080  0.2019
18550W        W35397  15.691   9.155   3.768  0.0093 -0.2432 -0.0252
18551W        W35398   0.333   7.463   0.135  0.2948 -0.0199  0.0531
18552W        W35399  11.864   5.323  14.615 -0.1628 -0.0185 -0.0840
18553W        W35400   8.992   3.403  16.314 -0.0326 -0.0916  0.1246
18554W        W35401   8.247  16.115  14.416 -0.0391 -0.0543 -0.1185
18555W        W35402   4.513  10.445  15.316 -0.1314 -0.0119  0.0803
18556W        W35403  12.512   3.348  11.914  0.0138  0.0554  0.2421
18557W        W35404  10.348   2.175   0.386 -0.0938 -0.0625 -0.1660
18558W        W35405   3.780   4.717   1.073  0.0302  0.2325 -0.2996
18559W        W35406  17.171   3.859   4.893 -0.0877  0.1079 -0.1027
18560W        W35407   1.875  17.400  16.155 -0.1922 -0.1668 -0.0150
18561W        W35408   1.821  11.623   3.751  0.1769 -0.0941  0.0590
18562W        W35409   7.634   2.359   4.703 -0.0312 -0.0943  0.1554
18563W        W35410  15.918   1.038   5.114 -0.1303  0.2245 -0.0802
18564W        W35411  11.673   0.580   0.950 -0.1241 -0.0306 -0.2750
18565W        W35412  13.371   6.006   1.884  0.2671  0.1426 -0.2637
18566W        W35413   9.410   0.623   5.157 -0.2719 -0.1180 -0.0099
18567W        W35414   5.108   0.149  15.107 -0.2869  0.3144 -0.1623
18568W        W35415  10.854   1.121   1.023  0.3916  0.1128 -0.0424
18569W        W35416  13.075   5.173  16.214 -0.0468  0.0017 -0.1133
18570W        W35417   7.839   9.478  15.908  0.3723 -0.2658  0.3985
18571W        W35418  11.661   4.613   1.587 -0.0934  0.1720 -0.2577
18572W        W35419  10.364   7.470   3.760  0.1012  0.0293 -0.2518
18573W        W35420  14.855  12.840  12.128 -0.0004 -0.1221 -0.3111
18574W        W35421  11.117   5.478   0.458 -0.1218 -0.0280  0.1072
18575W        W35422   7.433  10.150   3.652 -0.1537 -0.1850  0.0561
18576W        W35423  11.019   4.675   0.477 -0.1524  0.0495 -0.1989
18577W        W35424  12.567   8.043  13.829  0.2146  0.1597  0.0367
18578W        W35425   9.424   0.116  14.249  0.1037  0.2080  0.0280
18579W        W35426   7.822   0.513   3.597  0.4119 -0.3055 -0.1107
18580W        W35427  15.778   4.474   2.289  0.1563 -0.0187  0.1349
18581W        W35428   8.411   4.978  10.669 -0.3026 -0.3487  0.0513
18582W        W35429  16.290   5.478  12.784 -0.0151 -0.2056 -0.1237
18583W        W35430  17.656  16.553   1.089 -0.1563 -0.0508  0.2857
18584W        W35431   0.862  15.562  11.636 -0.1821  0.5010  0.0208
18585W        W35432  16.085   4.943   2.241  0.0318 -0.0582  0.1983
18586W        W35433  13.063   6.033   1.425 -0.0123 -0.0008  0.0573
18587W        W35434   7.383  14.416   5.597  0.0428 -0.0189 -0.1355
18588W        W35435   1.088   4.138   0.786 -0.0627 -0.2121  0.0054
18589W        W35436  15.306   5.959   3.109 -0.0029  0.2017  0.1344
18590W        W35437  13.742   0.380  11.863 -0.1737 -0.1174 -0.2853
18591W        W35438   6.757   7.196   2.348 -0.1746  0.3134 -0.1208
18592W        W35439   1.614   9.019  13.618  0.0329  0.1785 -0.4030
18593W        W35440   9.083  10.598   4.014 -0.0300 -0.3213 -0.4354
18594W        W35441   9.956  15.702   1.824  0.2416 -0.0229  0.1431
18595W        W35442   2.447  10.190  14.317  0.2759  0.0263  0.1471
18596W        W35443  13.146  11.015  14.220 -0.1889 -0.3564 -0.0240
18597W        W35444   1.943   6.654   5.243 -0.0040 -0.0102  0.3693
18598W        W35445  10.099   5.214   4.820 -0.1772  0.3755  0.1077
18599W        W35446   7.624  14.020  13.391 -0.0151 -0.1378  0.1436
18600W        W35447   7.760   8.609  15.787 -0.1287  0.3193  0.0284
18601W        W35448  17.888   8.275  14.610  0.0684 -0.0891 -0.1746
18602W        W35449   7.089  14.306   3.189 -0.2047 -0.0376 -0.0394
18603W        W35450  17.572  15.644   4.413  0.1326  0.3699 -0.3114
18604W        W35451  11.710   6.726  11.290 -0.2190 -0.2479 -0.1797
18605W        W35452   1.294  17.594  12.923  0.0534  0.0495 -0.3752
18606W        W35453  14.090   9.087   6.194  0.1366 -0.1285 -0.2076
18607W        W35454   3.577  15.138   5.810  0.0321 -0.0201  0.1343
18608W        W35455   8.375  16.874   6.297 -0.2018  0.1010  0.0491
18609W        W35456  17.100   0.110  14.094  0.0181  0.2084 -0.0066
18610W        W35457  17.218  12.950  13.374  0.1781 -0.2498 -0.2795
18611W        W35458  11.528  17.218  14.735  0.0067  0.0577 -0.1047
18612W        W35459  12.342  14.510   1.300 -0.2727  0.3110  0.1135
18613W        W35460   8.264  13.721   0.749 -0.0392  0.0020 -0.0623
18614W        W35461   8.830   6.227   2.474  0.1113 -0.0300  0.2320
18615W        W35462  17.623   8.050  15.456 -0.1143  0.4789 -0.0063
18616W        W35463  17.294   1.333  11.780  0.4630 -0.0951  0.1327
18617W        W35464   4.363   6.006  14.290 -0.0786  0.0276 -0.0852
18618W        W35465   5.733   0.569  11.307  0.0747  0.0464  0.0401
18619W        W35466  12.707   4.704  12.192 -0.0660  0.1342  0.2586
18620W        W35467   6.463  10.288   2.221 -0.3615 -0.0258  0.1127
18621W        W35468   1.981   6.258  13.491 -0.0516 -0.0827 -0.0721
18622W        W35469   5.318   4.467   5.176  0.3096 -0.1429 -0.0804
18623W        W35470   5.479  10.989  12.886 -0.1280 -0.0347 -0.0339
18624W        W35471   3.752   9.410  15.049  0.0519 -0.1150 -0.3128
18625W        W35472   9.025   4.669   5.480 -0.4118  0.1884  0.0846
18626W        W35473   1.455   7.987   3.090  0.1537  0.1953 -0.0520
18627W        W35474  16.777   8.103  14.757 -0.0649 -0.1576 -0.0282
18628W        W35475   1.401  16.750  13.074 -0.2318 -0.3173 -0.1634
18629W        W35476  12.958  13.002  15.654  0.0489 -0.0314  0.1910
18630W        W35477   1.984   4.398   3.099  0.2809 -0.0596 -0.3518
18631W        W35478   9.108  14.592   5.409 -0.1820  0.0308  0.1640
18632W        W35479  17.495  13.718  11.913 -0.0952 -0.1788  0.0373
18633W        W35480   9.672   5.712  14.033 -0.0965 -0.1043 -0.0052
18634W        W35481  13.210  10.747   2.449 -0.0696 -0.0174 -0.0375
18635W        W35482  13.290  12.709  16.080 -0.1998  0.4121 -0.0493
18636W        W35483   5.485   3.554   1.701 -0.0914  0.3130 -0.0892
18637W        W35484   8.632   7.763  12.925  0.2011  0.4487 -0.2732
18638W        W35485  10.104  17.136   2.701  0.0002 -0.1117  0.0058
18639W        W35486   7.169   8.958  12.499 -0.2758  0.1136  0.0025
18640W        W35487   1.644  11.033   1.198  0.1954 -0.0987 -0.1568
18641W        W35488   9.535  13.308   0.387  0.1587 -0.1523 -0.2662
18642W        W35489  17.880   1.571   2.421 -0.0776  0.1036  0.0429
18643W        W35490  10.027   5.107  11.568 -0.1653 -0.0516 -0.1824
18644W        W35491   5.358   9.862  13.576  0.0900  0.0109 -0.0441
18645W        W35492   3.927   4.581   5.628  0.1687  0.0315 -0.2546
18646W        W35493   1.160  14.388   3.717 -0.1796  0.1137 -0.1892
18647W        W35494   3.414   5.919   2.400  0.2238 -0.0305  0.2108
18648W        W35495   0.579   7.278  14.454  0.0302  0.0295 -0.0436
18649W        W35496  14.293  11.260   5.382 -0.2742 -0.1921 -0.2679
18650W        W35497  15.468  12.935  14.601 -0.1437 -0.1155 -0.2016
18651W        W35498  17.703   0.115   1.607 -0.0280  0.0032 -0.0686
18652W        W35499   0.772  15.449   4.805 -0.0659  0.1230 -0.1761
18653W        W35500   5.268   2.664   3.451 -0.2100 -0.2623 -0.0285
18654W        W35501   8.917   4.437   3.982  0.0997  0.2024  0.0824
18655W        W35502  17.091   8.881   0.427  0.1440 -0.4970  0.1783
18656W        W35503  10.922  12.026   3.370 -0.2406  0.1375  0.2125
18657W        W35504  16.312  16.312  15.026  0.0585  0.3383  0.0887
18658W        W35505  11.573  13.718  14.984  0.0693  0.2094  0.0837
18659W        W35506   8.325  14.430  14.066 -0.1054  0.0328  0.1857
18660W        W35507   3.989   9.538  12.754 -0.1364 -0.0325  0.2226
18661W        W35508   7.194   5.837  13.276  0.1566  0.0514  0.1258
18662W        W35509   8.784   7.844   1.581 -0.2086  0.0346 -0.0628
18663W        W35510  13.221   8.486  16.442 -0.2837 -0.0505  0.1780
18664W        W35511   8.242  17.783   6.151  0.1523 -0.1621  0.5839
18665W        W35512   9.439  16.744   4.854 -0.2255 -0.3539  0.0499
18666W        W35513   7.837  15.452   2.820  0.2172  0.3097 -0.2522
18667W        W35514   8.409   1.904  11.585 -0.1560  0.2327  0.1294
18668W        W35515   2.455   1.145   2.196 -0.1094 -0.2409  0.1450
18669W        W35516   6.602  14.896  16.191  0.1268  0.1430  0.0205
18670W        W35517  10.974  16.406   0.885  0.2409  0.2919  0.0017
18671W        W35518  15.001  12.831   0.393  0.0850  0.0301  0.2137
18672W        W35519   1.945   2.105   4.780  0.0468  0.3983 -0.0005
18673W        W35520   2.404   1.478   4.402  0.0474 -0.2024  0.2466
18674W        W35521   2.185   8.946  14.349  0.1493 -0.4770 -0.0011
18675W        W35522  17.334   5.370   2.410 -0.1517 -0.1823 -0.1580
18676W        W35523   5.540   6.233   4.555 -0.4496 -0.0314  0.0045
18677W        W35524  15.289   0.764   2.092 -0.3081 -0.3026 -0.0469
18678W        W35525  13.334   1.941  16.337 -0.2198 -0.2451 -0.1653
18679W        W35526  12.968  12.971  13.115 -0.1258  0.1094  0.4323
18680W        W35527  10.587   6.825  16.783  0.0682  0.1839 -0.0435
18681W        W35528  13.550   6.852   4.412 -0.1981 -0.2753 -0.0628
18682W        W35529  12.143  17.574   0.172  0.4051  0.0109 -0.3108
18683W        W35530  16.411   2.579  13.758 -0.3725 -0.1601 -0.0146
18684W        W35531  14.560   3.392  13.183 -0.0687 -0.2450  0.1104
18685W        W35532   7.449   8.526   1.594  0.2422  0.0076 -0.2319
18686W        W35533  14.766   7.271   4.010 -0.0703 -0.0978 -0.2719
18687W        W35534   8.622  10.413   0.918 -0.3091 -0.0416 -0.2573
18688W        W35535   8.649  16.548  14.429  0.2127  0.0638 -0.2000
18689W        W35536  14.062   4.274  13.933  0.1727  0.1402 -0.1212
18690W        W35537  15.449  10.598   3.006  0.2182  0.2199  0.1513
18691W        W35538  12.106   5.739  12.293  0.0744 -0.2980  0.1299
18692W        W35539  10.867  12.953   3.058  0.2261 -0.0643 -0.3439
18693W        W35540   4.531   6.042   0.982  0.0071  0.1165  0.2899
18694W        W35541   9.437  16.219   5.076 -0.1505  0.1194  0.0395
18695W        W35542   3.848  12.775  13.516 -0.1599 -0.0668  0.2996
18696W        W35543  16.078  16.541   4.397  0.3212 -0.0656  0.0408
18697W        W35544   6.968  10.694   5.150 -0.0207 -0.0216  0.2167
18698W        W35545  13.662  11.341   0.510 -0.0725 -0.1470 -0.1758
18699W        W35546  16.404  14.258   5.202  0.0178 -0.1791 -0.2008
18700W        W35547   4.623   9.484   2.039  0.0205  0.1684  0.0303
18701W        W35548  16.172   5.027  16.189  0.1583  0.0242 -0.2704
18702W        W35549  13.965  15.641  15.769 -0.1086  0.0553 -0.1259
18703W        W35550   4.507   6.353   1.378 -0.2452  0.1425  0.0196
18704W        W35551  11.084  15.189   2.375  0.1315  0.0088 -0.0977
18705W        W35552   5.358   1.272   4.784 -0.2523  0.2823  0.0781
18706W        W35553   1.925  16.828   0.447  0.0331  0.2101 -0.1783
18707W        W35554  10.168   0.175  13.402  0.1662 -0.2794  0.4732
18708W        W35555   1.502   6.345  14.901  0.0772  0.1179 -0.1994
18709W        W35556  14.464   3.142   1.658 -0.0038  0.2696  0.0448
18710W        W35557   8.145  17.821   1.038  0.0418  0.1237 -0.4523
18711W        W35558   2.092   6.605  12.447 -0.1038  0.0400 -0.0797
18712W        W35559   3.394  11.185   1.337  0.0913 -0.2276 -0.1707
18713W        W35560  14.071  12.983  16.442 -0.0771 -0.0241 -0.0978
18714W        W35561  17.335  13.908   1.585  0.0872  0.0375  0.2079
18715W        W35562  15.237   0.611  15.785  0.2403  0.0422  0.3294
18716W        W35563   5.405   7.707   5.296  0.1090  0.1688 -0.1120
18717W        W35564   3.023   3.214  11.887 -0.1916  0.0508 -0.0282
18718W        W35565  11.846   0.023   3.498 -0.3190  0.1979 -0.0767
18719W        W35566   2.272   9.494  16.519  0.0314  0.0604 -0.2327
18720W        W35567  10.908  15.323  14.559 -0.0904 -0.0745  0.0426
18721W        W35568  14.418  15.972   5.130 -0.0186  0.0122  0.0397
18722W        W35569  12.288   7.464   0.003  0.1884  0.1558  0.0450
18723W        W35570  10.255   9.308   0.936 -0.0340  0.0423 -0.3027
18724W        W35571   2.610  10.430  10.712  0.1042  0.0647  0.0887
18725W        W35572  11.842  11.874  12.687 -0.1026  0.0590  0.1966
18726W        W35573   8.717   6.250   3.529 -0.0076  0.1203 -0.0392
18727W        W35574   2.118   2.139  13.025  0.1167 -0.1288  0.0752
18728W        W35575   7.580   5.176   3.407  0.1015  0.0529 -0.2418
18729W        W35576  14.247   1.974  15.500  0.3019  0.0558  0.0155
18730W        W35577  10.014   6.258   2.644 -0.0837 -0.1641 -0.1280
18731W        W35578  15.328  17.185   3.032 -0.1147  0.0468 -0.2603
18732W        W35579  17.098   1.115  15.736 -0.1611 -0.1138 -0.3855
18733W        W35580  14.727  10.739   1.483  0.2500 -0.2343 -0.1327
18734W        W35581   0.914   1.853  14.680  0.4748 -0.0147 -0.0915
18735W        W35582   5.098   0.286   4.223  0.1447 -0.0732 -0.1344
18736W        W35583  14.353   0.213   5.879 -0.0688  0.0854  0.5008
18737W        W35584   6.388  10.617   3.160 -0.0650 -0.0008 -0.1109
18738W        W35585   2.505   1.681   1.187 -0.0965  0.2337 -0.0214
18739W        W35586  13.076   0.218   3.237  0.0269  0.2184  0.1108
18740W        W35587   6.247   2.092  15.726 -0.0506  0.1858 -0.1928
18741W        W35588  13.966   9.680   4.289  0.1713  0.2027 -0.1778
18742W        W35589   9.784  15.546   0.255 -0.2230 -0.3462  0.2312
18743W        W35590   3.166  17.940  14.875  0.0439 -0.1171 -0.0187
18744W        W35591  15.989   4.581  16.465 -0.1316 -0.0753  0.0823
18745W        W35592  11.053   4.414  12.628 -0.0836  0.0907 -0.3721
18746W        W35593  11.215  17.494   0.403 -0.1696  0.1053  0.0335
18747W        W35594  12.079  16.954  13.024 -0.1833  0.3487 -0.0304
18748W        W35595  16.368   7.918   4.548  0.0668 -0.3210 -0.0297
18749W        W35596   8.645   5.792  11.433  0.2500 -0.0332  0.1975
18750W        W35597   4.747  11.478   3.571  0.2401  0.1954 -0.0691
18751W        W35598   5.845  10.818  13.385 -0.1866 -0.2016 -0.0096
18752W        W35599  11.461  16.964  14.174  0.0572  0.4970  0.2043
18753W        W35600   5.978   7.479  14.162  0.0332 -0.1302 -0.1203
18754W        W35601   8.979   6.029   5.398  0.2091  0.0106 -0.1673
18755W        W35602   5.374  10.892   2.965 -0.3134  0.1935  0.2311
18756W        W35603   1.633   7.038   5.401  0.0517  0.2868 -0.1505
18757W        W35604  16.806   8.775  12.262 -0.1245 -0.0655 -0.0177
18758W        W35605   7.621   1.610  14.890  0.0202 -0.0480  0.0284
18759W        W35606  10.389  17.903   6.111 -0.0864 -0.0369 -0.0348
18760W        W35607   3.679  12.770  14.859  0.0638 -0.0738 -0.1554
18761W        W35608   1.819   9.399  13.979 -0.0454  0.3054 -0.1009
18762W        W35609  10.197  12.249  14.417 -0.2094  0.1667 -0.1513
18763W        W35610  11.630   3.497  12.066  0.1626 -0.3663  0.2209
18764W        W35611   6.718   0.228   4.569 -0.0495  0.4146 -0.0549
18765W        W35612   3.290  16.017  16.446  0.1975  0.0388 -0.2542
18766W        W35613   1.835  11.915   1.944 -0.1338  0.2583  0.2781
18767W        W35614   4.364   4.221   4.706  0.0885  0.0262  0.1569
18768W        W35615   0.829   2.897   4.928  0.1833 -0.4681 -0.0940
18769W        W35616  14.321  11.862  16.767  0.3369  0.0893 -0.0236
18770W        W35617   4.052  11.934   2.117  0.0033 -0.2093  0.1921
18771W        W35618  16.945  10.964   1.421  0.0301  0.1487  0.0176
18772W        W35619  10.624   3.376   0.108  0.4180  0.2303 -0.1523
18773W        W35620  16.111   8.011   1.389 -0.2050  0.0257  0.1062
18774W        W35621   6.992   7.391   2.840 -0.0063  0.1162 -0.4134
18775W        W35622  13.600  12.512  12.063 -0.3753 -0.0261  0.0021
18776W        W35623   1.406  10.884   2.841 -0.3565  0.3333  0.0501
18777W        W35624   7.637   3.965  14.205 -0.3623 -0.3204 -0.4321
18778W        W35625  15.082   0.245   1.310  0.3146 -0.0735 -0.1790
18779W        W35626   7.791  14.939   5.175  0.1290  0.1621 -0.0776
18780W        W35627   6.468   3.853  16.142 -0.0701  0.0866 -0.2913
18781W        W35628  13.458   7.806  11.882 -0.0791 -0.2847  0.2066
18782W        W35629   4.818   6.317   5.101  0.1365  0.3596 -0.1639
18783W        W35630  10.045   5.499   2.133  0.1667  0.0869 -0.0448
18784W        W35631   8.879  15.682   5.775  0.0001 -0.0056 -0.0471
18785W        W35632   9.000  11.982  12.279  0.0551 -0.0574  0.1819
18786W        W35633  10.357   8.860   1.159 -0.2605  0.0159 -0.0589
18787W        W35634  14.119  16.370   5.137 -0.3436  0.2084  0.1799
18788W        W35635   6.176  15.888  14.950  0.2411  0.2802 -0.0023
18789W        W35636   6.584   8.612   2.218 -0.0496  0.2103 -0.0990
18790W        W35637   4.264   7.432   1.629 -0.1095 -0.0032 -0.0003
18791W        W35638   8.591  13.947   0.084  0.0889  0.1146  0.1826
18792W        W35639  13.834   9.864  11.935  0.0501  0.4131  0.0555
18793W        W35640   1.722  14.513   4.002  0.3077 -0.1594 -0.0649
18794W        W35641   4.822  11.309   5.685  0.0703  0.0065 -0.0731
18795W        W35642   5.099   1.756  12.131 -0.1662  0.1681  0.1039
18796W        W35643  10.938  15.670   6.014 -0.0083 -0.0514  0.2287
18797W        W35644  17.104  15.084  14.327  0.2011  0.2691  0.2043
18798W        W35645  12.644   0.541  13.293  0.0215 -0.2048  0.0811
18799W        W35646  17.306   9.476   4.566  0.0202 -0.1618 -0.0821
18800W        W35647  11.909   1.886  14.990 -0.1659 -0.3373 -0.0655
18801W        W35648   3.134  11.945  14.702 -0.0977 -0.2915 -0.1388
18802W        W35649   9.794   0.092  12.396 -0.0652  0.0515  0.1391
18803W        W35650  15.953   1.572   0.178  0.0326 -0.1973 -0.3583
18804W        W35651  13.133  14.180   0.402  0.0926  0.3236 -0.1309
18805W        W35652   0.180   1.735  13.991  0.0604  0.1148 -0.0747
18806W        W35653  16.184   6.533  14.213  0.2851 -0.0047 -0.1415
18807W        W35654   8.782  16.599   0.246  0.1814 -0.2352  0.1964
18808W        W35655   7.191   1.500   0.025 -0.2117  0.0431 -0.0538
18809W        W35656  17.596  15.520   1.170 -0.1920 -0.0351 -0.2262
18810W        W35657  11.453  17.367  15.922  0.0461 -0.3183  0.1158
18811W        W35658   6.749   3.945   2.190 -0.1780  0.0739  0.1386
18812W        W35659  12.836   4.311   2.745  0.1104 -0.1153 -0.0620
18813W        W35660   3.273  11.092   4.646 -0.1140  0.0728 -0.0003
18814W        W35661   6.958  10.728  13.667 -0.0856 -0.2276  0.1972
18815W        W35662  17.334   2.148  14.636 -0.2456  0.0545 -0.1065
18816W        W35663   0.660  10.984   0.072 -0.0563 -0.1922 -0.0038
18817W        W35664  13.860  17.347  14.279  0.0820 -0.0913 -0.1474
18818W        W35665   4.282   6.371  13.136  0.1014 -0.0699 -0.2847
18819W        W35666   5.020  10.436   1.640  0.2295 -0.0760  0.1691
18820W        W35667  17.899  10.328   5.365 -0.2854 -0.1147  0.0123
18821W        W35668  15.176  14.960  12.622  0.0198 -0.0689  0.1310
18822W        W35669   6.640  10.659  12.197  0.1024  0.0136 -0.1167
18823W        W35670   1.317   3.257  15.083 -0.0199  0.3515 -0.2196
18824W        W35671   4.727   1.563  14.926 -0.1246 -0.0191  0.0432
18825W        W35672  13.003   3.523  14.727 -0.0149  0.0369  0.4384
18826W        W35673  17.819  17.737  16.564 -0.0708  0.0800  0.1149
18827W        W35674   8.823   5.962   4.856  0.0593  0.0354 -0.2328
18828W        W35675   1.051  10.066   2.158  0.0777 -0.0512 -0.0843
18829W        W35676   0.030   8.277  12.584 -0.2691 -0.1787  0.0295
18830W        W35677  17.772   7.847  14.844 -0.0991 -0.0511  0.4286
18831W        W35678   6.841  12.548   0.137  0.2756  0.1420  0.0407
18832W        W35679   9.675  12.729   0.185 -0.0499  0.3416 -0.1034
18833W        W35680   9.708  16.188  13.328 -0.1426  0.1490 -0.0394
18834W        W35681   3.730   8.302   5.498 -0.2137  0.1064  0.2380
18835W        W35682   3.652   1.804  14.164 -0.0002  0.0236 -0.0501
18836W        W35683   6.589  11.132   5.602  0.3705 -0.1000  0.0845
18837W        W35684   8.895  16.016  13.814  0.1692 -0.1173 -0.1930
18838W        W35685   0.538   0.782   3.266 -0.1487  0.1470  0.1993
18839W        W35686  14.025  17.273  16.596 -0.0208 -0.1249  0.2288
18840W        W35687   7.527   9.331   5.683  0.2966 -0.2850 -0.1148
18841W        W35688  12.942  13.511   0.661 -0.0641 -0.2649  0.0119
18842W        W35689   0.953  16.493  11.547 -0.2120 -0.1538 -0.2169
18843W        W35690  12.881  15.253  16.267  0.1754  0.1407 -0.2384
18844W        W35691  14.060   6.144   1.353 -0.1824 -0.2633  0.0840
18845W        W35692   2.627  17.897   4.333  0.0573 -0.2017 -0.0647
18846W        W35693   5.013   8.802  11.729  0.0984  0.1266  0.2179
18847W        W35694   9.792   2.216   3.594 -0.0421 -0.0517  0.1136
18848W        W35695  13.075   3.211   4.209  0.2089 -0.2433 -0.0468
18849W        W35696   6.622  13.475  15.101 -0.0918  0.3606  0.1878
18850W        W35697   0.637   4.727  16.134  0.2288  0.0021 -0.0367
18851W        W35698   5.026  13.161   0.080 -0.1109 -0.1091 -0.0694
18852W        W35699   8.821   3.594  12.358 -0.0119  0.2970 -0.0688
18853W        W35700  16.334  14.379   1.036  0.0534 -0.1057 -0.0483
18854W        W35701  10.452  16.634  16.630  0.1448  0.0105  0.1272
18855W        W35702   4.866  17.253  14.776  0.0382  0.0552  0.0444
18856W        W35703  11.406   3.566  15.937  0.0586  0.0760  0.2073
18857W        W35704  16.582   6.760   1.142 -0.1510 -0.1266 -0.1883
18858W        W35705  14.946   4.413  13.235  0.0071  0.1542  0.2555
18859W        W35706   9.995  10.614  15.157 -0.1296  0.0070  0.1648
18860W        W35707   4.487  16.189  12.662 -0.0213  0.1711 -0.0558
18861W        W35708  11.999  14.555   0.244 -0.2798  0.0150  0.0676
18862W        W35709  17.868   0.134  16.175  0.1055 -0.3912  0.1439
18863W        W35710   6.102   2.728  14.932 -0.2991 -0.2349  0.1134
18864W        W35711  11.563   8.073  15.904 -0.1001 -0.0657 -0.0935
18865W        W35712   7.324  15.517   2.524 -0.1841  0.0565 -0.1827
18866W        W35713   9.150   2.332  11.423 -0.0628 -0.1039  0.1432
18867W        W35714   9.614   1.442  14.113  0.1691  0.2341  0.3049
18868W        W35715   7.849  10.258   1.372  0.1729  0.6199  0.2670
18869W        W35716   4.685  12.564  12.919  0.3545 -0.2043  0.2025
18870W        W35717  11.140   8.156  15.326  0.3661  0.0825  0.1285
18871W        W35718   1.470  12.821   2.948 -0.1577  0.1036 -0.1114
18872W        W35719   2.907  11.529   3.624 -0.1084 -0.0688  0.2260
18873W        W35720   2.440   2.749  15.258 -0.2178 -0.2880  0.0363
18874W        W35721  12.585   5.057  12.596  0.0952 -0.1260  0.1473
18875W        W35722   3.768  10.371  12.349 -0.2782  0.1469  0.2318
18876W        W35723   6.740   9.674   3.214 -0.2494 -0.2892 -0.0435
18877W        W35724   5.004  12.324   1.854 -0.1923 -0.0681  0.0433
18878W        W35725   7.425  10.681   5.497  0.2535 -0.0665  0.4358
18879W        W35726  15.512  16.791   5.978 -0.0783  0.0655  0.0230
18880W        W35727   0.465   3.895  16.558  0.2413 -0.1535  0.1823
18881W        W35728   9.967  13.178   2.806 -0.2729  0.1130 -0.0297
18882W        W35729   6.069  10.283   2.981 -0.0747 -0.1022 -0.1695
18883W        W35730  17.291  17.551   3.290 -0.0733  0.2141 -0.1276
18884W        W35731  17.521   4.806  16.094  0.0865  0.0364 -0.1697
18885W        W35732   4.183   0.967   1.811  0.1693  0.4362 -0.1834
18886W        W35733  16.864  10.177   5.260 -0.2138 -0.0078 -0.3520
18887W        W35734  16.269   8.765   6.213  0.0866 -0.0303 -0.0939
18888W        W35735   2.055   9.976  16.471  0.0370 -0.1195  0.1218
18889W        W35736   6.122   0.128   1.312 -0.0455  0.1000 -0.1172
18890W        W35737  17.082   8.181   1.707 -0.0289 -0.0343 -0.5343
18891W        W35738   9.319   1.693   2.751 -0.0219 -0.3451 -0.0284
18892W        W35739   6.692  13.853  14.709 -0.0832 -0.0867 -0.0658
18893W        W35740   9.147   8.370   5.875  0.0836 -0.2692  0.0059
18894W        W35741  10.261   4.415  11.902  0.0609 -0.0024 -0.1153
18895W        W35742  14.996  15.998  14.402  0.3248  0.1359 -0.3137
18896W        W35743  14.228  17.799  15.957 -0.0364 -0.2253 -0.1614
18897W        W35744  13.431  16.819   4.988 -0.0338  0.0685 -0.3387
18898W        W35745   9.921   6.917  15.899  0.2012  0.0667 -0.1367
18899W        W35746  14.912  12.437   2.043  0.1887  0.1689 -0.1212
18900W        W35747  16.320  12.887  13.928  0.0806 -0.4090  0.2303
18901W        W35748  12.160   0.457  15.447 -0.0669  0.0460 -0.0727
18902W        W35749  16.693  13.357   1.293  0.1939  0.0508 -0.1507
18903W        W35750  15.390   6.022  15.287  0.0555 -0.1181  0.1952
18904W        W35751   7.025   7.689   5.877  0.3129  0.0505 -0.1513
18905W        W35752   6.244  16.166  12.835  0.1770  0.3625 -0.0900
18906W        W35753  10.662  10.569   0.097  0.2006 -0.1133 -0.0601
18907W        W35754   1.568   7.507  11.698 -0.0016  0.0071  0.2720
18908W        W35755  10.754   0.705  11.640 -0.0364  0.1168  0.2454
18909W        W35756   6.869   2.513  14.285  0.0990  0.1492  0.1157
18910W        W35757  13.836  13.852   3.722 -0.0231 -0.0544  0.0984
18911W        W35758  17.295   1.000   4.916 -0.0142 -0.1548 -0.1115
18912W        W35759   2.731   1.123   5.252 -0.2829 -0.0373 -0.1445
18913W        W35760   7.828   2.652  14.633  0.1217 -0.0477  0.1850
18914W        W35761  13.856   5.071  13.976  0.0738  0.0487 -0.0027
18915W        W35762  10.397   5.757  14.904  0.1638  0.2273  0.5181
18916W        W35763   4.321  14.893  16.176 -0.2009  0.0060 -0.0712
18917W        W35764  14.769   7.235   4.888 -0.1784 -0.0223 -0.2638
18918W        W35765  12.968  11.845  14.593 -0.1299  0.3823 -0.1448
18919W        W35766  14.951   6.233   4.202 -0.2162  0.0107  0.0542
18920W        W35767  11.363  17.498  14.299 -0.0149 -0.1937  0.1546
18921W        W35768   5.415   0.376  14.793  0.2802 -0.2585  0.2975
18922W        W35769   8.991   0.389   0.266  0.3272 -0.0434 -0.2127
18923W        W35770  16.779  14.361  12.001 -0.1141 -0.3375 -0.0210
18924W        W35771   0.988   0.134   4.251 -0.0475  0.0296 -0.1576
18925W        W35772  17.542   8.578   0.261 -0.1357  0.1778  0.2951
18926W        W35773   8.717   2.772   3.718 -0.2824  0.1276 -0.1135
18927W        W35774   8.933   5.170   0.309  0.0183  0.1561  0.1370
18928W        W35775   5.885  12.064  14.376  0.4259  0.0045  0.1548
18929W        W35776  10.075   4.666  15.684  0.1506 -0.0143 -0.0203
18930W        W35777  10.109  17.370   0.399 -0.2930 -0.0902  0.0847
18931W        W35778  12.459   1.005   1.401 -0.2021  0.3584  0.2836
18932W        W35779   5.765  14.914   3.040 -0.3138  0.1421  0.2669
18933W        W35780   8.502   7.085   4.110 -0.0604 -0.2396  0.1003
18934W        W35781   7.192   0.111   4.838  0.0343  0.3443  0.2498
18935W        W35782   4.591   8.471  13.316 -0.1263  0.2546  0.0619
18936W        W35783   8.269   8.491  13.013  0.1609 -0.0425  0.1317
18937W        W35784  15.281   7.901   1.410 -0.1104 -0.0246  0.0092
18938W        W35785   9.925  17.837   1.340 -0.0259 -0.3775  0.0993
18939W        W35786  14.802   7.783   5.535  0.0463  0.0348  0.1569
18940W        W35787   0.094  12.563   1.948 -0.1678  0.0714 -0.0631
18941W        W35788   6.250   3.564  15.356 -0.0310  0.4286 -0.4041
18942W        W35789   0.389  13.325   2.520 -0.1246  0.1760  0.1350
18943W        W35790  16.040   5.830  15.050 -0.0189  0.1618  0.1440
18944W        W35791   9.786   7.993   5.351  0.1898 -0.1335  0.0777
18945W        W35792   5.112  13.601  14.786 -0.0139 -0.3193 -0.0989
18946W        W35793   3.635   4.367   3.477  0.3694  0.1231  0.1253
18947W        W35794   9.409   8.475   0.851 -0.1691  0.1193 -0.0971
18948W        W35795   6.001  17.350   2.670 -0.3456  0.0902  0.1132
18949W        W35796   4.747   3.625  14.182  0.2664  0.2874  0.1936
18950W        W35797  14.172   9.591  16.413 -0.0580 -0.0633  0.0148
18951W        W35798   8.493  11.613  14.747  0.1490  0.0798 -0.3006
18952W        W35799  12.182  16.049   2.316  0.0015 -0.0515  0.0173
18953W        W35800   2.376   4.195   3.989 -0.3419 -0.2878 -0.1304
18954W        W35801   5.232   9.863   1.904 -0.1485  0.0734 -0.0305
18955W        W35802  16.729   4.903  11.681  0.1631  0.1058 -0.1682
18956W        W35803   4.767   1.185   4.088  0.3564  0.0545  0.2378
18957W        W35804  17.147   9.561  13.655 -0.0780 -0.2001  0.0602
18958W        W35805  14.854  10.453  11.886 -0.0141 -0.1693 -0.0141
18959W        W35806  15.678  15.908  16.624  0.1628  0.0999  0.2545
18960W        W35807  16.509   9.873  13.132  0.3344 -0.0355 -0.3212
18961W        W35808   9.900   4.227   4.256  0.1982 -0.1355  0.0399
18962W        W35809   6.811  11.140  16.329 -0.0793  0.1178  0.2562
18963W        W35810  17.772   7.217  16.571  0.2711 -0.0479 -0.0579
18964W        W35811  17.262  17.432   5.517  0.1667 -0.0702  0.2363
18965W        W35812   7.887   7.921   1.917  0.1808 -0.0642  0.1314
18966W        W35813   4.597   9.082  16.248  0.2460  0.3061 -0.0979
18967W        W35814  12.524  13.620  14.062  0.1134 -0.1400 -0.0998
18968W        W35815   2.959   3.275   1.777 -0.0624 -0.1569 -0.1126
18969W        W35816   8.336   8.847  15.924  0.1827 -0.0607 -0.0169
18970W        W35817  14.093  15.109   4.976 -0.0833 -0.1139  0.0940
18971W        W35818   9.881   3.843   5.396  0.0155 -0.0066 -0.0306
18972W        W35819  16.603  12.474  12.141  0.2305 -0.1206 -0.2941
18973W        W35820   0.451  13.280   4.276  0.1991  0.1648  0.0616
18974W        W35821  15.348   9.110  12.989  0.2532 -0.2907 -0.2108
18975W        W35822   9.123  11.454  12.185 -0.1662  0.1312  0.0830
18976W        W35823  12.100  14.534  12.968  0.1883  0.2236 -0.1177
18977W        W35824   7.793  11.223   4.013 -0.3010  0.1929  0.0692
18978W        W35825  10.471  10.358  14.423 -0.1982  0.0136 -0.0520
18979W        W35826   1.504   2.783  13.835 -0.1665 -0.1846  0.1113
18980W        W35827   9.541   9.378  14.766  0.0656 -0.0355  0.2588
18981W        W35828  10.388   8.218  14.342  0.0155  0.1620 -0.0634
18982W        W35829   5.297  14.538   1.764 -0.1660 -0.1441 -0.0703
18983W        W35830  16.104   4.329  13.577  0.1212 -0.3170  0.1672
18984W        W35831   0.231   6.919   4.147 -0.0111 -0.2313  0.2736
18985W        W35832   2.625  13.765  12.435  0.3027  0.0785  0.0255
18986W        W35833  11.040   1.762  15.469  0.1054  0.1743  0.1108
18987W        W35834   1.217   9.972  14.608 -0.0827  0.1766  0.0268
18988W        W35835  14.643   1.505   3.699  0.1997 -0.0863 -0.0639
18989W        W35836   5.882  13.576   6.334  0.1524 -0.0111  0.2603
18990W        W35837   9.592  14.406  12.529  0.0200  0.0285  0.1889
18991W        W35838  17.890  16.000  14.704 -0.1425 -0.0488 -0.0913
18992W        W35839  10.232   1.659  16.144  0.1389  0.0425 -0.1544
18993W        W35840   1.197   1.889   1.137  0.0604 -0.0555 -0.1969
18994W        W35841  16.125  12.970   1.822  0.0687 -0.0422  0.0460
18995W        W35842  17.923   9.828  11.779 -0.0764  0.0477  0.2219
18996W        W35843   1.590   3.597  13.964 -0.2161 -0.1642 -0.2561
18997W        W35844  15.083  12.716   0.911 -0.0403  0.0683 -0.0917
18998W        W35845   9.375   3.998   3.325  0.0872  0.0766 -0.2459
18999W        W35846   1.294  11.228   2.282 -0.1426 -0.2432  0.0265
19000W        W35847  14.666  16.979  14.669  0.0956 -0.0275  0.1171
19001W        W35848   2.940  14.700  12.645 -0.0352 -0.1553 -0.3393
19002W        W35849   9.810   6.704   3.919 -0.0552  0.1833  0.0339
19003W        W35850   2.514  10.240  12.607 -0.1336  0.0657  0.0044
19004W        W35851   3.365  10.463   4.940  0.0829  0.0188 -0.1933
19005W        W35852   7.748  13.517  16.745 -0.1762 -0.2854 -0.0998
19006W        W35853   6.074   8.067  13.637 -0.1227  0.1237 -0.1336
19007W        W35854  10.097   7.955  14.930 -0.0601  0.0357 -0.0867
19008W        W35855  13.529  14.925  15.082  0.0974  0.2128 -0.0482
19009W        W35856   0.909  11.141   2.636 -0.1703 -0.3293 -0.0182
19010W        W35857   9.903  12.927  11.665 -0.3532 -0.1781  0.1338
19011W        W35858  13.448   8.176  15.393  0.1561  0.1416 -0.1197
19012W        W35859   4.519  15.100  14.885 -0.0075  0.2769  0.1782
19013W        W35860   1.440   3.140   2.944  0.1223 -0.1013 -0.1052
19014W        W35861  11.506  17.253   0.741 -0.4435  0.1000 -0.2024
19015W        W35862  10.902   4.144   1.677  0.1762 -0.1489  0.3257
19016W        W35863  14.073   3.021   3.540  0.6101 -0.1797  0.2652
19017W        W35864   1.972   9.190   1.936  0.0791 -0.1706  0.2865
19018W        W35865  12.005   5.827   6.532 -0.1326  0.4495  0.0394
19019W        W35866   7.199  12.775   1.291 -0.1091  0.4168 -0.0127
19020W        W35867   9.477   1.772   0.129 -0.0770  0.0079  0.0569
19021W        W35868  17.037  13.468   4.082 -0.0636 -0.1411 -0.0508
19022W        W35869   7.659   4.990   3.941  0.0807 -0.0485 -0.2623
19023W        W35870   6.962  11.995  12.079  0.3814 -0.0374 -0.2180
19024W        W35871   6.176   0.520  12.502  0.1050  0.1581 -0.1356
19025W        W35872  15.287   8.812   5.293  0.0956 -0.2013  0.1303
19026W        W35873  17.221   1.812  13.629  0.2486 -0.2077  0.0403
19027W        W35874   6.107  16.403  15.717 -0.0172  0.4569  0.1070
19028W        W35875  10.823  15.028   3.337 -0.0565 -0.0473 -0.0619
19029W        W35876   4.175  11.235   1.846 -0.2038  0.1312 -0.1248
19030W        W35877   9.276   8.496  13.562  0.1408 -0.1070  0.0412
19031W        W35878  15.477  14.621  12.971  0.1681  0.1236 -0.1243
19032W        W35879  12.411  16.416   1.093  0.3092  0.2363  0.0093
19033W        W35880  14.653   2.762  16.621 -0.2036  0.2472  0.0001
19034W        W35881   6.618   4.082   3.465 -0.1610  0.0351 -0.2033
19035W        W35882   1.508   7.287   4.134  0.2274  0.0025 -0.1338
19036W        W35883  16.516  15.973   5.293  0.1579 -0.0955  0.2599
19037W        W35884   0.830  17.701  16.273  0.0858 -0.2807  0.1735
19038W        W35885   0.081  14.191  14.151 -0.0638  0.0463 -0.1065
19039W        W35886   8.771   8.056  15.716 -0.1980 -0.3051 -0.0994
19040W        W35887   3.360  12.591  12.177  0.1105 -0.2908  0.0211
19041W        W35888  11.063  10.892   1.377 -0.2962  0.1737  0.0567
19042W        W35889   4.822  15.178  13.648  0.0424  0.1861  0.0505
19043W        W35890  14.460   4.571  15.197  0.2466 -0.2091 -0.0288
19044W        W35891  13.482  17.538  12.185 -0.0433  0.1307 -0.2239
19045W        W35892  17.559   3.142  11.650  0.1750 -0.0311 -0.2731
19046W        W35893   5.562  15.297   3.316  0.0170  0.0105  0.1153
19047W        W35894  14.273  13.769   2.657 -0.0764 -0.0656  0.1611
19048W        W35895   1.871  10.146  13.310  0.2259 -0.1536 -0.0502
19049W        W35896  15.383   6.903  16.062 -0.1772 -0.1611  0.0419
19050W        W35897   9.540   7.824  14.050 -0.0890 -0.0363  0.0500
19051W        W35898  11.383  14.834  15.886  0.1521 -0.3408  0.3210
19052W        W35899   0.989  14.493   1.818  0.0016  0.3615 -0.0078
19053W        W35900   8.006   7.551   0.381 -0.0096 -0.1870 -0.0075
19054W        W35901   0.097   9.598   1.732 -0.1109 -0.0138 -0.0256
19055W        W35902   6.633  14.465  13.554 -0.0905  0.3784 -0.0057
19056W        W35903  10.796   7.432  15.918 -0.3676  0.3157 -0.1724
19057W        W35904   6.206  16.087   5.560 -0.1326 -0.1257  0.1102
19058W        W35905   4.566   4.824   3.244  0.0736 -0.0855  0.0737
19059W        W35906   7.943  12.708   2.878  0.3405  0.0132 -0.0040
19060W        W35907   4.887  12.674   4.033  0.0110  0.1889 -0.1062
19061W        W35908  17.901   3.695   0.922  0.1926  0.3292 -0.0910
19062W        W35909   8.537  11.142  16.666 -0.1408 -0.0074 -0.2486
19063W        W35910  10.801  17.942  15.982 -0.1643 -0.1383 -0.1306
19064W        W35911  11.286  12.749  13.689 -0.1159  0.2268 -0.2112
19065W        W35912  15.572  12.640   3.751  0.0414  0.0900 -0.1022
19066W        W35913  12.728   7.522  12.550 -0.0560 -0.1541 -0.2272
19067W        W35914   3.101  10.114  12.553  0.0566  0.1759 -0.2161
19068W        W35915   9.699   9.336  15.970 -0.0104  0.0316 -0.3166
19069W        W35916  11.168  14.679   3.417 -0.1134 -0.1151  0.0153
19070W        W35917  15.142  14.152   5.407  0.1050 -0.0156 -0.1470
19071W        W35918   6.353  16.743  16.376 -0.3759 -0.0098  0.2454
19072W        W35919   8.517   2.251  14.185 -0.0457 -0.0893  0.0962
19073W        W35920  10.757   0.793   1.459  0.2295  0.1610  0.2474
19074W        W35921   8.618   0.559   1.391  0.0671  0.1129 -0.3283
19075W        W35922  13.681  12.310  15.088  0.0083  0.1365 -0.1259
19076W        W35923   6.899   7.940   5.205  0.0719 -0.2193 -0.2107
19077W        W35924  15.845   8.598   0.290  0.1633  0.2177 -0.1288
19078W        W35925   6.084  15.086   2.013  0.5098 -0.0107 -0.0062
19079W        W35926   6.772   3.084  13.963 -0.0311 -0.0867  0.0623
19080W        W35927   4.812  11.217  15.983 -0.3864  0.2844 -0.3020
19081W        W35928   1.333   4.430   2.180  0.0028  0.1294 -0.0665
19082W        W35929  10.047   9.722   1.320 -0.1060  0.1310 -0.1590
19083W        W35930  10.177  17.746   0.858  0.1610 -0.0777  0.0844
19084W        W35931   3.896  17.831  16.771  0.0649 -0.2026  0.2110
19085W        W35932   5.083  12.465   3.317 -0.0351  0.4167 -0.0792
19086W        W35933  11.984  14.152  11.704  0.0524  0.0370 -0.2033
19087W        W35934  17.700   3.845  13.363  0.0624 -0.0575  0.0907
19088W        W35935  17.701   5.754  13.663  0.1033  0.3667 -0.0137
19089W        W35936  15.734   7.176   5.974 -0.0862  0.1976 -0.0902
19090W        W35937  13.538   4.991  14.526 -0.1621 -0.2184 -0.0329
19091W        W35938  12.889  14.389   5.156 -0.2748 -0.2413  0.0890
19092W        W35939   6.605   1.071  14.750 -0.3343 -0.0137  0.0320
19093W        W35940  11.998   9.088  16.437 -0.2830 -0.2911  0.1039
19094W        W35941   5.688   7.624   4.278  0.1510  0.3698  0.0456
19095W        W35942   9.479   6.102   0.874  0.0421  0.1077  0.2824
19096W        W35943   8.698   7.512   3.338  0.1272 -0.1009 -0.0177
19097W        W35944  11.918  11.526  14.565 -0.0224  0.0435  0.2311
19098W        W35945  11.435  17.741  15.108 -0.1041  0.0105 -0.0531
19099W        W35946   1.863  14.592   2.845  0.0271  0.0859 -0.1015
19100W        W35947   9.806  14.670   0.711 -0.0267  0.1628 -0.0733
19101W        W35948  16.151  13.110  15.948  0.0473 -0.1352 -0.3341
19102W        W35949  12.134   5.670   5.022 -0.5746 -0.2308  0.0915
19103W        W35950  15.980  13.666   5.545 -0.2302  0.4577 -0.1343
19104W        W35951  16.893   6.474   4.213  0.2633  0.0704 -0.0758
19105W        W35952   3.134  13.962  15.589 -0.1199 -0.3189 -0.0333
19106W        W35953  15.659   9.897  16.493 -0.0203 -0.1183 -0.1945
19107W        W35954  15.167  16.812  14.587  0.4730 -0.0773  0.0017
19108W        W35955   8.027  17.099   3.637  0.1628 -0.3695 -0.0026
19109W        W35956  10.336   9.908   3.347  0.0171  0.1087 -0.4264
19110W        W35957   0.537  13.817   2.978 -0.0994  0.4357 -0.1558
19111W        W35958   1.806  14.533   5.321 -0.0215 -0.3226 -0.0133
19112W        W35959  12.364   1.872   3.942 -0.2453  0.1368  0.1615
19113W        W35960   0.048  17.706  12.517 -0.2402 -0.0018  0.0954
19114W        W35961   4.697   1.994  11.305  0.2212  0.0321  0.1570
19115W        W35962  12.549   0.663  15.214  0.3116  0.2861  0.2214
19116W        W35963   3.648   5.036  11.986  0.0941 -0.1288 -0.1917
19117W        W35964  11.483  11.168   6.002  0.1914  0.0768 -0.2548
19118W        W35965   4.380   3.216   4.838 -0.2310 -0.3706  0.0214
19119W        W35966   1.454  11.215  15.048  0.5420 -0.0379  0.4170
19120W        W35967  10.551   7.493  15.516 -0.0393  0.1954  0.3475
19121W        W35968   5.170   2.470   5.246  0.0235 -0.1066 -0.0926
19122W        W35969   0.330   7.015  12.180  0.1626 -0.1541  0.0592
19123W        W35970  15.100   9.556  14.067  0.1989 -0.2031 -0.2187
19124W        W35971   6.846  11.597   4.134 -0.1345 -0.1992  0.0090
19125W        W35972  11.107   2.822   1.426 -0.3546  0.1937 -0.0419
19126W        W35973   4.753  13.329   4.856  0.2699  0.0467  0.1277
19127W        W35974   1.011   4.686  14.998  0.2102  0.1146 -0.0803
19128W        W35975  13.397  11.823   3.496  0.3168 -0.0523 -0.1277
19129W        W35976  10.208   4.726   0.782 -0.2418  0.1801 -0.2728
19130W        W35977   9.818   5.360  12.693  0.2822 -0.1100 -0.1196
19131W        W35978  15.041   5.316  13.804 -0.1064 -0.1542  0.2395
19132W        W35979   2.219   3.237   1.165  0.0731  0.1160  0.1824
19133W        W35980  11.627   9.547  16.509 -0.2956 -0.0042 -0.0047
19134W        W35981  12.121   6.059   2.281  0.0621 -0.0749  0.4393
19135W        W35982  15.761  17.274   4.767 -0.1392  0.0393  0.1660
19136W        W35983  14.810  11.778   4.484 -0.0035  0.3437 -0.1773
19137W        W35984   2.539   4.754   2.174 -0.0135 -0.1111  0.0768
19138W        W35985   3.782  14.008   5.836  0.1778 -0.1509 -0.1236
19139W        W35986   6.366   5.432   5.433 -0.2768  0.0659 -0.3388
19140W        W35987  12.222  17.618  16.495  0.1142  0.1090  0.1484
19141W        W35988   1.077   4.121   4.384 -0.2305  0.2016 -0.3408
19142W        W35989   9.432  12.217   3.962  0.0932  0.2361  0.2139
19143W        W35990  14.633   8.509   5.154  0.0395 -0.0734 -0.0240
19144W        W35991   7.171  15.680  14.334  0.2459 -0.1349  0.1655
19145W        W35992   2.585  17.395   2.528 -0.0187 -0.1054 -0.0352
19146W        W35993  13.241   3.632  15.634 -0.1751  0.0593 -0.0409
19147W        W35994  10.741  12.711   2.431 -0.0436 -0.1031  0.3670
19148W        W35995   2.593   7.845  12.406  0.3169  0.1042  0.0856
19149W        W35996   2.839   7.346  14.627  0.1944  0.0928  0.1951
19150W        W35997   7.259   5.720  14.851  0.1699 -0.2694 -0.2403
19151W        W35998  17.883   9.529  16.220 -0.0171  0.2296  0.0893
19152W        W35999   8.498   3.173   2.259  0.0988  0.0000 -0.0340
19153W        W36000   6.071   3.126   4.243  0.0044 -0.0144  0.0158
19154W        W36001   9.197   7.130  13.534 -0.0231 -0.0913 -0.0495
19155W        W36002   0.603   8.374   2.097 -0.0275 -0.0060 -0.2442
19156W        W36003  17.009  11.762  13.175 -0.0454  0.0237  0.1434
19157W        W36004  16.226  17.069  13.365 -0.0532  0.0899 -0.1302
19158W        W36005  11.564  17.831   5.618 -0.3028 -0.1044  0.2766
19159W        W36006  14.702   0.228   0.035  0.1214  0.0235  0.0367
19160W        W36007   2.415   2.084   1.963  0.0321  0.1040 -0.1584
19161W        W36008   9.669  17.319   3.778 -0.1347 -0.3634 -0.0172
19162W        W36009   0.238  17.034  13.956 -0.3411 -0.0996  0.1653
19163W        W36010   5.418   6.016  12.038  0.0040 -0.1759 -0.2040
19164W        W36011  11.113  16.819   3.508 -0.1473  0.0175  0.3397
19165W        W36012  17.842   0.593   1.822  0.3554  0.0138 -0.1823
19166W        W36013   5.562   1.008  14.796  0.3011 -0.3310 -0.1625
19167W        W36014   6.876  12.887   1.650  0.0046  0.2599  0.0055
19168W        W36015  14.766   5.727  13.677  0.0089  0.1162 -0.4298
19169W        W36016   7.034   2.749   5.161  0.0606 -0.0559  0.1206
19170W        W36017   0.003  15.935   1.440 -0.2240  0.1661  0.1288
19171W        W36018  14.646  12.020   6.004  0.2667  0.0800  0.1757
19172W        W36019   3.149  17.166  15.446  0.2094 -0.2094  0.2235
19173W        W36020   2.655  13.567   1.720  0.0377  0.0826 -0.1387
19174W        W36021   3.271  14.331   1.341 -0.0060 -0.1383 -0.0754
19175W        W36022   0.538   3.111  14.671  0.1666  0.1140  0.1731
19176W        W36023   0.807   6.203   3.556  0.0170  0.2387  0.0115
19177W        W36024  11.378   2.512  13.872  0.1258 -0.1215 -0.2216
19178W        W36025  13.265   8.480  14.575 -0.2830 -0.1941  0.1056
19179W        W36026  17.330   6.145  12.490 -0.2070 -0.0676  0.1922
19180W        W36027   9.997  11.495   0.841 -0.0412  0.3104 -0.0544
19181W        W36028  16.281  15.493   2.525  0.0119 -0.1307 -0.3192
19182W        W36029  14.448   5.142  15.664  0.0560  0.1381  0.1594
19183W        W36030  16.808  16.767   4.132 -0.1679 -0.4220  0.0718
19184W        W36031  12.654   5.190  12.130  0.2378  0.0978  0.3861
19185W        W36032  16.196  15.473  13.030 -0.2256 -0.1092 -0.0270
19186W        W36033   6.304  11.020   4.487  0.1519  0.2332  0.1296
19187W        W36034   8.231   3.839  15.815 -0.1111  0.0937  0.0752
19188W        W36035   0.908  16.959   3.246 -0.0014  0.1637  0.0950
19189W        W36036   3.863   7.499   1.250 -0.0383 -0.0517 -0.1417
19190W        W36037   6.882   9.828   1.207 -0.1547  0.3240  0.1593
19191W        W36038  13.330   5.624  16.199  0.0662  0.0719  0.2898
19192W        W36039   0.808  11.926  11.621  0.2044  0.2374 -0.0895
19193W        W36040  16.384  17.326  15.134  0.0280 -0.0523  0.0296
19194W        W36041  14.953   2.741   4.928 -0.1622 -0.1101  0.5201
19195W        W36042   7.874  16.641   6.159  0.0679  0.2468  0.3035
19196W        W36043  14.524  12.375   1.760  0.1883 -0.1546 -0.4002
19197W        W36044   0.603   6.229  15.096 -0.1220  0.2568 -0.1494
19198W        W36045  14.271   4.733   3.567  0.0597 -0.0495 -0.3234
19199W        W36046   4.270   2.898   1.468 -0.0309 -0.1991 -0.0270
19200W        W36047  14.813  14.794   4.216  0.1280 -0.1145 -0.0013
19201W        W36048  11.583   6.789   5.444  0.1571  0.0388  0.0709
19202W        W36049   6.259  10.280  12.148 -0.0304  0.5431  0.1679
19203W        W36050   8.032   1.530  13.247 -0.0238  0.3058  0.0184
19204W        W36051  11.481   1.179   2.150  0.1951  0.0396 -0.0353
19205W        W36052   3.207   1.674  15.877 -0.3320  0.1561 -0.1168
19206W        W36053  11.064   8.940  14.836 -0.3199  0.0946 -0.0247
19207W        W36054  13.531   4.450  14.555 -0.2888 -0.0266 -0.2363
19208W        W36055  13.961  13.654   2.214  0.3755 -0.1604  0.0300
19209W        W36056  12.487  11.764  14.546 -0.1442  0.2135  0.3581
19210W        W36057  10.513   8.504   5.654 -0.0450 -0.1159 -0.0416
19211W        W36058  16.386  13.258   2.999 -0.0389 -0.1601 -0.2444
19212W        W36059   9.710   3.625  12.682 -0.2358 -0.2107  0.2376
19213W        W36060   0.935  11.767  12.619 -0.0406 -0.0755  0.1656
19214W        W36061   5.021   4.186   2.211 -0.1635  0.3612  0.1675
19215W        W36062  15.853   6.095  13.570  0.2200  0.1267  0.0637
19216W        W36063   2.650  13.914  15.454  0.1423  0.1033  0.0354
19217W        W36064  13.294  15.517   1.277  0.0674  0.1937 -0.1387
19218W        W36065  14.554   7.820   3.298  0.1873 -0.2484 -0.1053
19219W        W36066   1.373  12.825   0.623 -0.1536 -0.3031  0.1257
19220W        W36067   2.288   4.470   4.768 -0.2625  0.0320 -0.1066
19221W        W36068  16.639   6.600   3.565  0.2428 -0.0544 -0.1480
19222W        W36069  13.478   6.095  15.425 -0.2100  0.0294  0.1924
19223W        W36070  15.086  10.328   1.255 -0.0953  0.1257  0.0623
19224W        W36071  11.945   4.915   1.337  0.0022 -0.2438  0.1041
19225W        W36072   0.108   9.999   5.698  0.1257  0.4628  0.0194
19226W        W36073  11.200   3.203  13.237 -0.1279  0.1984  0.1358
19227W        W36074   8.936  10.842  15.906  0.0024 -0.0467  0.2056
19228W        W36075   6.004   0.136   0.689  0.2663 -0.0738  0.0197
19229W        W36076  16.154  14.695  14.078 -0.1761 -0.0409  0.0963
19230W        W36077   6.503   0.989  15.297  0.0753  0.2513 -0.4411
19231W        W36078  16.895   1.948   0.185 -0.3638  0.1620  0.1898
19232W        W36079  16.767   7.204   5.391  0.0420  0.0425  0.0487
19233W        W36080   8.052   9.681   1.425  0.2470 -0.0684  0.1014
19234W        W36081   2.213  17.112  14.454 -0.2417  0.4344 -0.0771
19235W        W36082   3.375  10.189   4.506  0.1899  0.2007  0.0382
19236W        W36083  16.921   1.417  13.317  0.0401 -0.0482 -0.0137
19237W        W36084  15.050   2.849  15.504 -0.3895  0.0268 -0.1499
19238W        W36085   5.898  15.566  15.807  0.2302  0.1531 -0.3197
19239W        W36086   1.282  14.886  13.611 -0.0436  0.1805  0.0564
19240W        W36087   3.563   8.695   0.129  0.1987 -0.1868 -0.0513
19241W        W36088   8.378   8.897   6.326 -0.1711  0.4391  0.0711
19242W        W36089   9.607   6.461   2.421 -0.0380  0.2395 -0.0425
19243W        W36090   9.290  10.001  13.987 -0.1885  0.1059  0.0227
19244W        W36091   0.363   8.278   3.230  0.1248 -0.0653 -0.2892
19245W        W36092  12.635   0.123  15.213  0.3345 -0.0523 -0.1588
19246W        W36093   6.191  15.666   4.417 -0.0213  0.0249 -0.0687
19247W        W36094   2.073  15.648   4.805 -0.0165  0.1707  0.1077
19248W        W36095  14.177  17.110  14.647  0.1083 -0.1423 -0.0287
19249W        W36096  17.946   8.047   2.883 -0.0149 -0.2017 -0.0102
19250W        W36097   0.145  15.866   4.368  0.0920 -0.1548 -0.0298
19251W        W36098  13.135   0.283   0.538 -0.1253 -0.1691 -0.1351
19252W        W36099   4.411  13.214   0.719  0.1512 -0.0424  0.0188
19253W        W36100  10.208   8.391  11.975 -0.1355 -0.0138 -0.1831
19254W        W36101  12.754  13.170  12.691  0.1452  0.3645 -0.0315
19255W        W36102   3.444   6.103   2.945 -0.1111  0.0696 -0.3003
19256W        W36103  13.762   9.683   2.934  0.0388  0.3510 -0.0479
19257W        W36104  13.681  16.774  12.607 -0.0846  0.1027  0.1811
19258W        W36105   6.614   3.454   4.988  0.0096 -0.0364  0.1726
19259W        W36106  14.754   2.108   5.218 -0.0730  0.1924  0.2888
19260W        W36107   4.381   4.454  11.738 -0.1006  0.0308 -0.2027
19261W        W36108   0.366   8.347  13.321  0.2320 -0.1532  0.1236
19262W        W36109  15.960   1.152  13.332 -0.0478 -0.1567 -0.1869
19263W        W36110  15.817  10.814   1.377 -0.2349 -0.3099 -0.0200
19264W        W36111   8.650  14.358  10.913 -0.0216 -0.1393  0.1556
19265W        W36112  12.041  10.475   6.014 -0.1023 -0.2413  0.1327
19266W        W36113  15.904   6.058  14.505  0.0779  0.0245  0.1019
19267W        W36114   0.090  11.769   2.374 -0.1056  0.1300  0.3931
19268W        W36115   7.343  15.380  13.723 -0.1209  0.1392 -0.1844
19269W        W36116   6.205   4.142  13.837  0.1086 -0.0531 -0.1724
19270W        W36117   2.421   3.946  13.959 -0.0718  0.3059  0.0260
19271W        W36118   7.193  13.268   1.539  0.1620  0.1219 -0.3410
19272W        W36119  12.910   7.636   6.194 -0.2410  0.0500  0.0240
19273W        W36120  12.307   3.799  16.180 -0.3821 -0.1331  0.4860
19274W        W36121   7.850   9.940   0.725 -0.0975 -0.3979 -0.0612
19275W        W36122   2.807  13.844  16.788 -0.1215 -0.0962  0.0584
19276W        W36123   1.718  10.832  10.717  0.1180  0.2566  0.0961
19277W        W36124  17.567   1.491  16.071  0.4854 -0.0155 -0.0556
19278W        W36125   4.373  17.711  16.730  0.1061 -0.1052 -0.0364
19279W        W36126  15.991   8.444   2.728 -0.0067 -0.0681 -0.1041
19280W        W36127  16.521  15.709   3.401  0.0123  0.2911 -0.1010
19281W        W36128  13.265  16.099   2.972 -0.1785 -0.3695 -0.0845
19282W        W36129   8.894  14.232  13.238 -0.0214 -0.1223  0.1155
19283W        W36130  14.826  11.243   2.582 -0.0634  0.1379  0.2692
19284W        W36131   1.539   5.625  12.845 -0.1605  0.1419 -0.0298
19285W        W36132   1.680   0.226  16.248  0.0118 -0.0847  0.1832
19286W        W36133   2.427  14.304   2.031  0.3745 -0.1347  0.0244
19287W        W36134   5.611  13.304   1.505  0.0025  0.1178 -0.0580
19288W        W36135  16.606   4.667   3.990 -0.2615  0.1796  0.2727
19289W        W36136  13.525   6.206  13.111  0.0000  0.1474  0.0951
19290W        W36137   2.848   6.381   0.075  0.1939  0.0599 -0.2660
19291W        W36138   2.267  16.138   4.549 -0.3567  0.1386 -0.1889
19292W        W36139   2.582   6.119   5.420 -0.1679  0.0597 -0.0797
19293W        W36140   5.503   2.412  16.156  0.0396 -0.2228  0.0857
19294W        W36141  17.435   9.933  13.555 -0.1749 -0.0577 -0.0830
19295W        W36142   8.367  17.242   0.428 -0.1372 -0.0032 -0.1930
19296W        W36143   1.179   7.619   2.265 -0.1830  0.2692  0.1124
19297W        W36144  11.781  17.674   0.528  0.1000  0.0297  0.1040
19298W        W36145  11.986   3.346  16.121  0.0728 -0.0668  0.0429
19299W        W36146   8.598  10.689  13.286  0.0941 -0.0165  0.0408
19300W        W36147   5.078  15.412   0.431  0.1051  0.0813 -0.1349
19301W        W36148  12.242  15.499  14.663  0.0482  0.4047  0.0365
19302W        W36149   1.864   1.257  14.886 -0.0860  0.2064  0.1894
19303W        W36150   5.520  11.337   5.744  0.0627 -0.2066  0.1784
19304W        W36151  17.785   1.264  11.649 -0.1214 -0.1372  0.0438
19305W        W36152   4.059  13.717   5.064  0.1649  0.1506  0.1766
19306W        W36153   4.248   7.713   4.431  0.0024 -0.0713 -0.3361
19307W        W36154  15.978   0.941  12.580  0.1260  0.2194  0.0937
19308W        W36155  12.281   5.365   0.619 -0.0971 -0.0686  0.2309
19309W        W36156   0.107   1.475   1.903  0.5284  0.0352  0.3586
19310W        W36157  15.031   3.145  12.879  0.2547  0.0683 -0.0754
19311W        W36158  14.545  16.299   2.120  0.3479  0.2388 -0.0229
19312W        W36159  12.062  13.991   0.347  0.0368  0.2202  0.0110
19313W        W36160   6.350  16.958  12.244  0.1380 -0.2341  0.0514
19314W        W36161   7.191  17.519  12.395  0.0552 -0.1771 -0.0107
19315W        W36162   3.310  15.115   4.433  0.1017 -0.0398  0.0417
19316W        W36163   4.925   6.712  13.746 -0.0528  0.0126 -0.2734
19317W        W36164  11.865  11.669  16.715 -0.4350 -0.0684 -0.0575
19318W        W36165   8.284  16.366  12.969  0.0896  0.2507 -0.1672
19319W        W36166   7.705  11.394  12.224  0.2166 -0.1051 -0.1945
19320W        W36167   4.860  14.392  12.950 -0.1151 -0.2461  0.2106
19321W        W36168   2.895   6.940   4.234  0.0389  0.4068  0.0768
19322W        W36169  10.011   4.759   5.010  0.0274 -0.2664  0.0527
19323W        W36170  10.774   1.616  12.874  0.3431  0.1273  0.2646
19324W        W36171  11.593   3.164   2.637 -0.1494  0.0451 -0.1009
19325W        W36172   1.373  12.045   2.826  0.0929  0.0359 -0.0488
19326W        W36173   6.730   9.502   6.058 -0.0782  0.3213  0.1889
19327W        W36174   6.143  16.007   5.027  0.1262 -0.0016  0.0392
19328W        W36175  13.088   6.829  13.531 -0.0916 -0.0442  0.3644
19329W        W36176   1.284   3.966   4.807 -0.2452 -0.4206 -0.2515
19330W        W36177   1.249  17.217   1.362  0.0026  0.0474 -0.0596
19331W        W36178   8.559   0.094  14.853 -0.1232  0.0540 -0.1448
19332W        W36179  14.268  15.028  12.441 -0.2472  0.2360 -0.1228
19333W        W36180   7.794  17.952  16.587 -0.5346 -0.3178 -0.0162
19334W        W36181   5.222   9.906  15.065  0.1454  0.2490 -0.0804
19335W        W36182   7.210  16.974   1.108  0.0234 -0.1821  0.1079
19336W        W36183  10.638   2.023   5.012 -0.1462 -0.1837  0.2366
19337W        W36184  17.469  16.550   2.086  0.0835  0.2113  0.1045
19338W        W36185   5.581  10.118  13.941  0.0049 -0.2906  0.0390
19339W        W36186   0.258   6.036   4.322 -0.0375 -0.0906 -0.0297
19340W        W36187   5.136   7.006   3.987  0.0145  0.0462  0.1987
19341W        W36188   6.772   2.758  10.715 -0.2457 -0.0098  0.1210
19342W        W36189  17.567   6.389   1.426  0.1966  0.1758 -0.1398
19343W        W36190  12.437   5.658   0.950 -0.1293 -0.0031 -0.3637
19344W        W36191   4.626   8.920   3.723  0.1789  0.1924 -0.1780
19345W        W36192  17.750   8.691   1.519 -0.1155  0.2629 -0.2156
19346W        W36193   5.920   9.871  13.695  0.2077  0.2019 -0.2089
19347W        W36194  17.502   9.477  15.642 -0.0457 -0.0235 -0.1682
19348W        W36195  16.255   2.384  12.213 -0.2240 -0.3166 -0.2267
19349W        W36196   7.719   9.428  13.191 -0.0957 -0.2636 -0.1904
19350W        W36197   8.060   5.053  13.290 -0.0563 -0.0119 -0.1499
19351W        W36198   4.259  12.406   2.169  0.0349 -0.0748  0.2759
19352W        W36199   9.696   4.128   3.699  0.0801 -0.1439  0.2710
19353W        W36200   0.934   3.660   0.885  0.1102  0.2414  0.2081
19354W        W36201   1.744  16.284  15.804  0.0366 -0.2069  0.1466
19355W        W36202   2.299   4.928  13.507 -0.0416  0.1266  0.0414
19356W        W36203   6.729  15.126   0.162 -0.3852  0.2065  0.0117
19357W        W36204  13.432   7.987  12.967  0.1881  0.0992  0.1364
19358W        W36205  16.389   4.336   2.714 -0.0854  0.0327  0.0898
19359W        W36206  14.089  13.211  14.884  0.1268  0.1972 -0.1242
19360W        W36207  14.173  11.782  14.078 -0.0612  0.0380  0.0730
19361W        W36208   3.371   4.251  15.306  0.2546  0.0363  0.0634
19362W        W36209  15.153   8.284  14.000 -0.2540 -0.1415  0.0713
19363W        W36210   3.362  10.047   2.731  0.0875 -0.3066  0.1711
19364W        W36211   6.128   4.974   3.018 -0.3000 -0.0906  0.0953
19365W        W36212  10.425   4.601  13.395  0.0598 -0.0542 -0.2025
19366W        W36213   7.862  10.229   2.780  0.1595  0.0464  0.1889
19367W        W36214   6.436   3.150   1.847  0.2125  0.1686  0.0938
19368W        W36215   6.801  14.792   2.828  0.0015  0.1006 -0.0667
19369W        W36216  16.819  13.859  13.978 -0.1980  0.2258 -0.2491
19370W        W36217  16.500  15.660  15.970 -0.0128 -0.1189  0.1018
19371W        W36218   5.564  17.782  12.729  0.1896 -0.1392  0.0902
19372W        W36219  12.274   4.081   1.988  0.3727  0.1794  0.1108
19373W        W36220  11.912   0.993  14.569 -0.1727  0.0857 -0.3105
19374W        W36221  12.566   0.809   5.510 -0.3076 -0.2040 -0.2908
19375W        W36222  15.384  15.470   2.734  0.0971 -0.1263 -0.1263
19376W        W36223  17.400  17.437   0.933 -0.0068  0.1107  0.1741
19377W        W36224  15.264   3.033  16.008 -0.0557 -0.0032 -0.1807
19378W        W36225   9.168   6.495  13.709 -0.2690 -0.2904  0.1056
19379W        W36226   5.739   9.752   1.828 -0.0249 -0.0491 -0.1236
19380W        W36227   3.911  10.209  16.781 -0.3664 -0.1184 -0.1341
19381W        W36228   0.145  16.894  16.598  0.4120 -0.2824  0.1105
19382W        W36229  17.408   0.113   4.895  0.1002  0.1098  0.3202
19383W        W36230   0.216   3.082  11.385 -0.2499 -0.2689 -0.1637
19384W        W36231  17.409  14.640  14.753 -0.1115 -0.0738 -0.0707
19385W        W36232   7.933  14.154  14.245 -0.0731  0.0387 -0.3720
19386W        W36233   5.568   1.041  15.649  0.4577 -0.2100  0.0909
19387W        W36234   8.217   9.335   2.564 -0.0819 -0.0411 -0.0563
19388W        W36235   9.117   6.288  11.834  0.3192 -0.0578  0.4454
19389W        W36236  16.674  13.720  14.426  0.1691 -0.0464 -0.1389
19390W        W36237   3.025  17.371  16.380  0.0793 -0.2656  0.0013
19391W        W36238  17.842  13.211   2.483  0.0759 -0.1150 -0.0557
19392W        W36239   7.008  15.725  12.625 -0.0622 -0.2802 -0.0224
19393W        W36240  16.866  16.684  12.628 -0.0118 -0.1444  0.2849
19394W        W36241  17.520  13.500   3.830  0.0618  0.1369  0.0049
19395W        W36242   8.139   6.449  14.922  0.1430  0.3221 -0.2789
19396W        W36243  11.122   1.851   5.040  0.0437  0.2111 -0.0258
19397W        W36244   9.269  17.673   3.796  0.1826  0.3308  0.2100
19398W        W36245   4.845  11.924   3.299 -0.0305 -0.0617  0.0342
19399W        W36246  10.386   8.929  16.121 -0.1553 -0.0274 -0.0476
19400W        W36247  11.868  10.768   5.206  0.0009  0.3017  0.2184
19401W        W36248   6.873  16.537   3.244  0.0318  0.0562 -0.1946
19402W        W36249   7.389   0.378   2.035  0.0685  0.0529 -0.0625
19403W        W36250   0.714   1.587  13.155  0.0827 -0.1467 -0.0202
19404W        W36251  11.243  14.543  11.995  0.1792  0.2476  0.1176
19405W        W36252  11.057  11.503   1.814  0.0686  0.0966  0.1340
19406W        W36253   5.097   8.448   3.203  0.0888 -0.0650  0.1163
19407W        W36254   4.764   4.176  16.515 -0.1357  0.0206 -0.2075
19408W        W36255   5.001   1.863   1.910  0.0518  0.0588  0.1611
19409W        W36256   7.352  15.861   3.593 -0.0823 -0.1912 -0.0537
19410W        W36257  11.735  10.359  15.201 -0.0635 -0.1701  0.0573
19411W        W36258  10.864  10.452   1.574 -0.0557  0.1396  0.0161
19412W        W36259  12.832  16.294   1.545 -0.3392  0.2578 -0.0048
19413W        W36260   6.229   0.598   3.394  0.1833  0.0267  0.1573
19414W        W36261   2.816   1.574  15.625 -0.3365  0.0016  0.2810
19415W        W36262   7.504  14.644   0.310  0.1236 -0.2168  0.1096
19416W        W36263  14.966   4.245   5.140  0.1020  0.0970  0.2408
19417W        W36264  14.567   0.670   5.226  0.0154 -0.1588 -0.1679
19418W        W36265  17.652   3.857   2.388 -0.0050 -0.1445 -0.1662
19419W        W36266   6.004  12.354  16.649  0.0355 -0.1541 -0.1306
19420W        W36267   2.797   2.808   4.211  0.1452  0.1165  0.3018
19421W        W36268  10.298  16.936   3.215 -0.1148  0.0868  0.1646
19422W        W36269  15.522  12.762  13.999  0.0442  0.1165 -0.0230
19423W        W36270  11.203   4.782  16.593 -0.0679 -0.0018  0.2870
19424W        W36271  10.133   6.639  14.761  0.1255  0.0975  0.1175
19425W        W36272   8.415  11.012   0.432  0.0196  0.0499  0.0009
19426W        W36273  13.585   0.746   4.809  0.3628  0.0696  0.1083
19427W        W36274   6.226  15.968   1.041  0.1177  0.0198 -0.2221
19428W        W36275  11.703   7.087  12.644  0.0349 -0.0220 -0.0551
19429W        W36276   3.606   4.575  16.483  0.0609 -0.2369  0.0437
19430W        W36277  17.305  13.254   0.863  0.0796  0.1012 -0.0006
19431W        W36278   8.117   2.296  12.810  0.0161 -0.0672 -0.0299
19432W        W36279   2.502   4.067  11.857  0.0600  0.1199 -0.1112
19433W        W36280  15.378  11.794   4.197 -0.0646  0.2267 -0.0451
19434W        W36281  14.064   4.941  15.314  0.0424 -0.0276  0.0951
19435W        W36282   3.471   6.504  12.154 -0.1676 -0.0122  0.0288
19436W        W36283  17.726   1.336   3.526 -0.3899  0.2841 -0.1407
19437W        W36284  12.394   6.306   0.208 -0.0576 -0.1423 -0.2037
19438W        W36285   1.207   0.931  11.871 -0.0454 -0.3199  0.1462
19439W        W36286   6.570  14.983   2.070  0.0669 -0.1136 -0.2604
19440W        W36287  13.294  16.114  12.523 -0.1237  0.0800 -0.1347
19441W        W36288  17.350   8.945  12.105 -0.0588 -0.0451  0.0173
19442W        W36289   5.826   2.282  13.399 -0.1201  0.0080  0.1075
19443W        W36290   3.161  15.504  12.236  0.2152  0.2697  0.2970
19444W        W36291   9.730   2.201  11.477  0.2819  0.1131  0.0758
19445W        W36292  15.670  10.825  16.153 -0.1048  0.0290  0.0442
19446W        W36293   9.347  10.601  16.063 -0.0179 -0.0278 -0.2966
19447W        W36294   5.392  15.319   4.320 -0.0569 -0.0341 -0.0635
19448W        W36295  16.750   6.086   0.347  0.0602  0.0138  0.0175
19449W        W36296  17.473  10.886   3.104  0.4128  0.2353 -0.0294
19450W        W36297   6.807  10.240   5.507 -0.0532 -0.0633 -0.1180
19451W        W36298   4.327   7.333  14.056  0.3231 -0.3684  0.1120
19452W        W36299  12.831  14.170   2.279 -0.0017  0.1633 -0.0446
19453W        W36300   1.864  11.459  16.523  0.1417 -0.0883 -0.1728
19454W        W36301   9.013   6.084  16.207 -0.1433  0.3106  0.0249
19455W        W36302  15.578   5.749  12.557 -0.1233 -0.2120 -0.0419
19456W        W36303   5.696  10.885  11.845  0.0504 -0.2993  0.1353
19457W        W36304   6.733  12.418   5.951  0.3413 -0.0242  0.0085
19458W        W36305   6.722   8.257  14.859 -0.0949 -0.1462  0.2145
19459W        W36306   8.169   5.309   4.531  0.3271  0.0135  0.1792
19460W        W36307   0.821  13.809  15.126  0.0477  0.1036 -0.0518
19461W        W36308   7.446   1.795  12.605 -0.0894  0.0353  0.1048
19462W        W36309   3.711  10.997  15.277 -0.0916 -0.2453 -0.0823
19463W        W36310   3.425   9.989   0.054 -0.1909 -0.0983  0.0917
19464W        W36311   7.918   1.500  11.043 -0.2698 -0.0133 -0.3166
19465W        W36312   1.050  12.943  12.408  0.2107  0.1369  0.0324
19466W        W36313   4.653   7.738  15.022 -0.1494  0.0224 -0.4009
19467W        W36314   4.572  11.552  14.337 -0.0675 -0.0915  0.0825
19468W        W36315  14.546   5.228   5.893 -0.3037 -0.2250 -0.0596
19469W        W36316   4.061   0.477   5.584  0.1546  0.1084 -0.1649
19470W        W36317   8.439   8.991   5.344 -0.1871 -0.0532  0.1402
19471W        W36318   9.063  13.806  11.718 -0.1003 -0.0416  0.1869
19472W        W36319   5.586   1.093   2.929  0.2107  0.0717  0.0557
19473W        W36320   0.219   4.648  15.814  0.3170  0.1309 -0.3145
19474W        W36321   0.383   1.594   2.819  0.0986 -0.1296  0.0802
19475W        W36322   6.282   5.465  13.465  0.1627 -0.0208  0.2076
19476W        W36323  10.717   9.178  12.587  0.1053  0.1147 -0.2694
19477W        W36324   7.558   3.902  15.120  0.1695  0.2481 -0.0526
19478W        W36325  10.174   0.580   1.701  0.0279  0.0344  0.1099
19479W        W36326   2.249  10.893   0.502  0.0548 -0.1266 -0.1815
19480W        W36327  12.205   6.329  15.592  0.1633 -0.0859  0.1478
19481W        W36328  15.001  13.505  14.369  0.1336  0.0854  0.0695
19482W        W36329   1.690   5.789   5.585 -0.2068 -0.2709  0.2329
19483W        W36330   5.016   4.133  15.657 -0.0213  0.2065 -0.0773
19484W        W36331  10.169  14.806  12.387  0.2681  0.0365 -0.2310
19485W        W36332  15.834   4.174  15.832  0.2023  0.2087  0.0108
19486W        W36333  11.797  11.873  15.176 -0.1036 -0.1468  0.1052
19487W        W36334  17.380   7.385  15.882 -0.0505  0.0067 -0.0741
19488W        W36335   2.906  14.693   3.687  0.0154 -0.1457 -0.0659
19489W        W36336  16.567  14.284  16.296 -0.4947 -0.0294  0.0282
19490W        W36337  16.501   2.529  10.958  0.2948  0.1185  0.1007
19491W        W36338   4.082  17.266  16.726 -0.0288  0.0273 -0.0202
19492W        W36339  11.458   2.037  14.880 -0.2738 -0.2169  0.3157
19493W        W36340   7.216   8.810   0.127 -0.0839  0.0374  0.1096
19494W        W36341  17.711   7.240  11.761 -0.3701  0.0120  0.1253
19495W        W36342   1.116  13.461   5.075  0.1607 -0.0770 -0.0634
19496W        W36343   4.509  15.486   0.462 -0.2317 -0.4540 -0.0460
19497W        W36344  15.457   6.634  16.544  0.3710  0.2588 -0.0541
19498W        W36345   5.152   4.199  12.723 -0.0838 -0.0683 -0.0608
19499W        W36346  16.030   3.924  12.138  0.0239  0.0331  0.2590
19500W        W36347   2.783   7.429   0.056  0.1052  0.5098  0.1520
19501W        W36348  10.175  10.220   5.076  0.0824 -0.0964 -0.0091
19502W        W36349  17.832   1.999  13.013 -0.0412 -0.0592  0.1346
19503W        W36350  17.148   0.510   0.157 -0.4770 -0.0045 -0.0061
19504W        W36351  12.795   5.991  13.495  0.2519 -0.3795 -0.0392
19505W        W36352  10.458  16.857  14.127 -0.0247  0.2656 -0.1538
19506W        W36353   8.103   1.105   5.100  0.2885  0.2139  0.1804
19507W        W36354   9.983  12.878  15.212  0.2402  0.1653  0.2014
19508W        W36355   6.174   3.277   4.796 -0.0916 -0.0241 -0.1859
19509W        W36356  13.548  16.925  13.097  0.1128  0.1307 -0.0023
19510W        W36357   0.424  11.966   3.140  0.0528 -0.1923 -0.1919
19511W        W36358   9.523  16.193  16.614  0.0528 -0.3518  0.0087
19512W        W36359   8.385  16.917  16.292  0.0907  0.2375  0.0787
19513W        W36360  10.153   4.875   3.363 -0.0768 -0.1360 -0.1708
19514W        W36361   2.480   6.766   0.088  0.2636 -0.4253 -0.2117
19515W        W36362   7.966   1.464   4.542 -0.0193  0.0238 -0.1877
19516W        W36363  13.940  11.065  12.969 -0.2460  0.2996 -0.1122
19517W        W36364   0.725   3.175  14.164  0.0774 -0.1768 -0.1343
19518W        W36365  16.120   6.623   3.777  0.1712  0.1933  0.0215
19519W        W36366   2.545   0.036   3.434 -0.0682  0.0884  0.1332
19520W        W36367   8.593  16.897  14.098  0.0853 -0.4222  0.1718
19521W        W36368   4.653   1.398  13.243  0.0128  0.0122 -0.0172
19522W        W36369  12.793   8.606  16.788 -0.2302 -0.0679  0.0249
19523W        W36370  12.512  15.974   5.685 -0.3106  0.2592  0.2267
19524W        W36371   8.873   4.916  13.084  0.1663 -0.2203 -0.1232
19525W        W36372   2.619  17.597   4.821 -0.1396  0.0202  0.1014
19526W        W36373  12.597  11.601   5.969  0.0252  0.1347 -0.4668
19527W        W36374   0.949  14.137  14.230 -0.0760 -0.0418 -0.2049
19528W        W36375  13.387   6.897   0.580 -0.1568  0.1365  0.2166
19529W        W36376  13.586  14.416  15.745 -0.3532 -0.1170 -0.0780
19530W        W36377  15.416  15.418   1.492 -0.0321  0.0200  0.2528
19531W        W36378   7.595  12.966   3.222  0.0117 -0.0594 -0.0121
19532W        W36379  16.937  17.345  11.919 -0.1265 -0.1784  0.0680
19533W        W36380  16.041   0.535   1.688  0.2172 -0.3071 -0.1550
19534W        W36381   6.959   2.016  12.778  0.1669  0.0226 -0.0193
19535W        W36382  11.794   9.470   5.048  0.1184  0.0299 -0.0328
19536W        W36383   0.735  16.710   2.190  0.4259  0.0315  0.3267
19537W        W36384   1.816  13.473   4.304 -0.0386  0.0060 -0.0308
19538W        W36385  10.246   1.945   5.354 -0.0610  0.0179  0.2810
19539W        W36386  12.955   2.825   2.244  0.1524 -0.1751  0.0836
19540W        W36387   2.817  17.504   0.440  0.1157  0.0881 -0.0343
19541W        W36388  15.676   6.493   3.517  0.0711  0.4465 -0.2610
19542W        W36389  14.001  17.849   6.073 -0.2939 -0.0038 -0.1162
19543W        W36390   0.677   3.206   4.508  0.1635 -0.0748 -0.0909
19544W        W36391   5.767   3.799  13.323 -0.0939 -0.1243 -0.0041
19545W        W36392   6.022  11.810   5.073 -0.2920 -0.1157  0.3060
19546W        W36393  14.785   6.041  16.090  0.1600  0.0677 -0.0635
19547W        W36394   8.993   5.481  16.565 -0.0697  0.0978  0.0913
19548W        W36395   6.655  17.394  11.221 -0.0162  0.0708 -0.1945
19549W        W36396  14.399  10.045   2.067  0.2162  0.0326 -0.3980
19550W        W36397  16.935   3.278  13.237  0.3869 -0.2904 -0.4327
19551W        W36398   8.993   4.219   0.050  0.2874 -0.1089  0.1099
19552W        W36399   9.693  14.267  15.740 -0.2470  0.0425 -0.0464
19553W        W36400   4.703   5.717   4.302 -0.1542  0.0820 -0.0462
19554W        W36401  10.296   7.423  13.738 -0.1091 -0.1217  0.1256
19555W        W36402  10.652   6.828   0.577  0.0254  0.0702  0.1772
19556W        W36403  17.835   7.192   3.285 -0.2107  0.1923 -0.2503
19557W        W36404  10.139   8.679  16.484 -0.1284 -0.4004  0.0976
19558W        W36405  17.112   0.499  13.329 -0.0384  0.1278  0.1958
19559W        W36406  11.217  13.385   3.266 -0.0480 -0.1068 -0.0542
19560W        W36407   6.340  13.641   2.040  0.2708  0.0265  0.0824
19561W        W36408   8.429   0.899   4.144 -0.0355 -0.4301  0.2157
19562W        W36409  17.798   1.130  16.577  0.3260  0.2020  0.2289
19563W        W36410  14.540   8.412   3.203 -0.5270 -0.1229 -0.1093
19564W        W36411   3.676  12.362   2.923 -0.3115  0.1064 -0.2010
19565W        W36412   9.981  15.285   1.483  0.0150  0.2456 -0.1135
19566W        W36413   0.135   6.498   1.293  0.1585 -0.0179 -0.1437
19567W        W36414   2.966   0.027   4.794  0.0964 -0.1699  0.0977
19568W        W36415  14.197  14.350  15.013  0.1474 -0.3036 -0.0953
19569W        W36416   9.937  12.280   6.349 -0.2245  0.2710  0.0493
19570W        W36417  14.896  16.608  12.124  0.2289  0.1689 -0.3186
19571W        W36418  17.227   2.612  16.204 -0.1397 -0.1518  0.1856
19572W        W36419   8.066  12.017   5.169 -0.0313  0.3003 -0.2338
19573W        W36420   2.516   2.167   3.631  0.0434 -0.0545 -0.3600
19574W        W36421  14.791  13.366  13.646  0.1784  0.0117  0.1411
19575W        W36422   7.826  14.620  12.753 -0.1144  0.0531 -0.2096
19576W        W36423  11.068  11.678  14.424  0.1353 -0.3481  0.0427
19577W        W36424   7.959  10.544  16.260  0.2103  0.1797 -0.3563
19578W        W36425   4.015  12.753  12.915 -0.2121  0.0069  0.1456
19579W        W36426   6.825   2.572  12.834  0.2164 -0.1403 -0.1997
19580W        W36427   8.282   1.716   3.012 -0.5411  0.1815 -0.3624
19581W        W36428  15.909  13.887   6.643  0.0917 -0.2710 -0.2099
19582W        W36429   7.169   2.867   0.112  0.0523  0.1810 -0.2427
19583W        W36430  16.228  13.472  14.396  0.1878 -0.4072  0.0274
19584W        W36431  17.752  13.305  12.847  0.1073  0.3059  0.1003
19585W        W36432  15.705  12.850   4.175 -0.1574 -0.0547 -0.1664
19586W        W36433   3.284   0.989  11.984  0.0969  0.2935 -0.2458
19587W        W36434   6.569  15.607   2.912  0.0448 -0.0600 -0.1344
19588W        W36435   2.717   0.765   0.105 -0.1423 -0.2170  0.0949
19589W        W36436  14.138   8.054  11.768  0.1543  0.0120  0.4647
19590W        W36437   3.851   9.784  15.415  0.1747  0.1417  0.1048
19591W        W36438  15.087   4.623   4.311 -0.0020 -0.2364  0.0606
19592W        W36439  14.619   1.100   1.611  0.0273  0.1313 -0.0815
19593W        W36440   1.654  10.913   5.468 -0.0467  0.1634 -0.1905
19594W        W36441   5.209   2.568  16.566 -0.0601 -0.1228 -0.0183
19595W        W36442   6.616   6.895  14.296 -0.0786  0.2352 -0.4336
19596W        W36443   5.543   0.148  16.747  0.0813 -0.0580  0.1350
19597W        W36444  13.166   4.481  13.441  0.2577  0.2619 -0.1028
19598W        W36445   1.712   6.836   1.162 -0.0189  0.4255  0.2953
19599W        W36446  15.085   8.598   2.297 -0.0774  0.0484 -0.1039
19600W        W36447   0.417  15.947   0.173  0.0334 -0.0351  0.1712
19601W        W36448  15.031  14.607  16.570  0.0533  0.3522  0.0793
19602W        W36449   5.592  11.581   4.627 -0.2242  0.0529  0.1856
19603W        W36450   9.212  14.038   0.200 -0.1075 -0.0893 -0.3402
19604W        W36451   7.005   3.600   3.222 -0.2629  0.1338  0.2724
19605W        W36452   9.978  16.011   4.480  0.2315  0.1896 -0.1015
19606W        W36453  14.834   4.485   2.512 -0.0634 -0.1180 -0.1911
19607W        W36454   8.299   9.488  13.107 -0.1192  0.1293 -0.0084
19608W        W36455   5.442   3.117  15.435  0.2248 -0.1648 -0.0030
19609W        W36456   6.126   0.921  14.473  0.2152 -0.0041  0.1016
19610W        W36457   5.898   8.613  14.324 -0.0385  0.1980  0.3057
19611W        W36458  14.282   0.284   3.315  0.1040  0.2883 -0.1567
19612W        W36459  17.039   6.107  15.421  0.2306 -0.2658  0.0033
19613W        W36460  15.483  11.642  11.943  0.0583  0.0893 -0.2187
19614W        W36461  11.854   9.893  13.939  0.2312 -0.0805  0.0786
19615W        W36462   5.429   1.956  14.810  0.0857  0.1821  0.6925
19616W        W36463  12.331   3.169   1.080 -0.0184  0.0060 -0.2227
19617W        W36464   9.455  12.506   1.951  0.0270  0.0860  0.2595
19618W        W36465   2.485   4.024  16.113  0.1254  0.0238 -0.0857
19619W        W36466  10.912   9.592  15.475  0.0640  0.2156  0.1452
19620W        W36467   6.310   5.441   3.211 -0.2149 -0.1072  0.0379
19621W        W36468  11.065   7.076  16.725 -0.1235  0.2154 -0.2351
19622W        W36469   3.849  17.564  15.017 -0.1157  0.1731 -0.0232
19623W        W36470   8.055   1.409   0.977 -0.2796  0.0640  0.1310
19624W        W36471   4.046   4.011  15.818 -0.0764  0.2112  0.0377
19625W        W36472   7.553   6.975   1.210  0.2140 -0.1078 -0.1236
19626W        W36473   6.741   3.169   0.303 -0.0180  0.1376  0.0183
19627W        W36474   3.359  11.779   4.936  0.0378 -0.0798 -0.0145
19628W        W36475  16.149   9.380   3.769 -0.0180  0.0148 -0.1240
19629W        W36476  14.307   8.734   5.448 -0.0655  0.1062  0.3933
19630W        W36477  11.150  13.470  15.746  0.1627  0.1881  0.0327
19631W        W36478  13.111   6.696   1.538 -0.1343 -0.3466 -0.2259
19632W        W36479   3.290   8.051  12.266  0.0456  0.0377  0.0025
19633W        W36480   1.519   1.310   3.646  0.1152 -0.0415 -0.0074
19634W        W36481  12.848  10.202   5.344  0.1924  0.1623  0.0376
19635W        W36482  12.208  11.860   6.122 -0.5117 -0.1130 -0.0228
19636W        W36483  11.684  12.484   3.820  0.4673  0.1349 -0.0151
19637W        W36484   7.573  13.602  14.420  0.1696 -0.2706  0.1003
19638W        W36485   9.552   5.047  13.497  0.0908  0.1814 -0.1140
19639W        W36486   3.022   3.748   4.877 -0.1121  0.0800  0.4266
19640W        W36487   6.929   0.111   3.137 -0.0218 -0.0531 -0.1537
19641W        W36488   2.161   4.674   0.419  0.1833  0.0865  0.1068
19642W        W36489  17.472   6.647   0.046 -0.2683  0.0328 -0.0218
19643W        W36490  12.097  11.007   1.453 -0.2825 -0.0149 -0.2500
19644W        W36491  13.050  10.622   5.592 -0.2674  0.3532 -0.0560
19645W        W36492   9.458   4.258   0.520  0.1027 -0.0564 -0.0671
19646W        W36493   7.453  11.394   0.438  0.0805 -0.0559 -0.3096
19647W        W36494  10.935   3.722   3.106 -0.1653 -0.1112  0.1202
19648W        W36495  17.048   1.258   0.775  0.4107  0.2529  0.4173
19649W        W36496  16.300  12.426   2.386 -0.0390  0.2165 -0.0435
19650W        W36497  15.280  11.270  13.425 -0.2315  0.1178  0.2581
19651W        W36498   4.211  13.547   0.403 -0.0741  0.2081 -0.0894
19652W        W36499  13.750   5.913  16.368  0.1188  0.4896  0.3674
19653W        W36500   5.005   9.526  14.770  0.0923  0.0931  0.3040
19654W        W36501  13.908  12.912   5.806  0.1107 -0.1872 -0.2161
19655W        W36502   9.993   4.002   1.982 -0.2001 -0.1144 -0.1594
19656W        W36503  15.432   8.808  12.126  0.0646  0.1798  0.0897
19657W        W36504   9.397   8.540   2.678  0.0630  0.1208  0.1190
19658W        W36505  13.406  12.002   5.235 -0.1139 -0.1945  0.1401
19659W        W36506   8.473   3.398  16.158 -0.0023 -0.2882 -0.1133
19660W        W36507   5.654  16.622   1.504 -0.0084 -0.2744  0.1846
19661W        W36508   6.298  11.067  16.481 -0.1372 -0.0452  0.1057
19662W        W36509  12.905   7.621  15.615  0.0375 -0.1748 -0.0338
19663W        W36510   6.649  13.896  12.000 -0.0830 -0.2646  0.0818
19664W        W36511   8.803   8.500   3.786 -0.1148 -0.2836 -0.1572
19665W        W36512   8.917  17.528   0.684 -0.0942  0.1972 -0.1897
19666W        W36513   8.766   5.519   1.462 -0.2517 -0.0566 -0.0938
19667W        W36514  14.046   8.767  16.105  0.0654  0.1496  0.1387
19668W        W36515  12.170   0.670   3.575  0.0319 -0.0199 -0.2886
19669W        W36516   7.959  11.879  14.329  0.1641  0.2250 -0.1885
19670W        W36517  14.163  17.289   1.492  0.1289 -0.3564 -0.0681
19671W        W36518   3.460  15.524   4.153  0.0118 -0.1847  0.0637
19672W        W36519   0.220   1.191  15.141  0.0676  0.0003 -0.1684
19673W        W36520   1.529  10.867  11.591  0.1379  0.1350 -0.1503
19674W        W36521  15.710  16.426  16.547 -0.0382 -0.0940  0.4950
19675W        W36522   8.684   2.863  15.228  0.0836  0.1156 -0.0607
19676W        W36523  14.444   0.874   2.481 -0.1851 -0.0917 -0.1506
19677W        W36524  13.902   9.289   2.518 -0.1485 -0.2436  0.0243
19678W        W36525   4.260  16.547  14.707 -0.0009 -0.3342  0.0635
19679W        W36526   5.425  16.830  13.236 -0.0003 -0.1904 -0.0605
19680W        W36527   1.086  15.361   0.732  0.1863  0.1190  0.1185
19681W        W36528   9.144  16.190  12.668 -0.0000 -0.2776 -0.2135
19682W        W36529   1.030  17.537  12.427  0.0097 -0.1819 -0.1745
19683W        W36530   2.965  13.598   2.436  0.0911 -0.1014 -0.1489
19684W        W36531  13.413   5.601   4.990  0.1562  0.3330 -0.2396
19685W        W36532  16.635   9.966  15.720  0.0937 -0.1127  0.0343
19686W        W36533   9.662  12.925   1.539 -0.1811 -0.0115 -0.4048
19687W        W36534   1.324   2.788  16.758  0.1419 -0.2374  0.2211
19688W        W36535   5.771  17.807  12.277 -0.2553  0.0501  0.1773
19689W        W36536  11.472   0.819   2.612  0.0521  0.0829  0.1632
19690W        W36537   3.721   2.395   2.242  0.3025 -0.1362  0.1062
19691W        W36538   3.035  10.595  14.697  0.2084  0.0859 -0.0235
19692W        W36539   4.875  17.840  11.257  0.1093 -0.3619  0.0312
19693W        W36540   6.099  10.131  16.140 -0.0929 -0.0268 -0.0212
19694W        W36541   4.071   7.493   2.814 -0.2282 -0.1519  0.2924
19695W        W36542   5.837  14.585  16.282  0.1629 -0.0631 -0.2560
19696W        W36543   7.142   1.749  15.125 -0.3089  0.0522 -0.1008
19697W        W36544   8.549  11.914  16.561 -0.0118  0.3071 -0.3197
19698W        W36545   9.082  13.332   3.219  0.2217  0.0596  0.1205
19699W        W36546  17.597   7.749  11.514  0.0093  0.0535  0.0266
19700W        W36547  14.747   0.586   2.748  0.1488 -0.0118 -0.1636
19701W        W36548   5.593   3.220   2.079 -0.0982 -0.3014 -0.1050
19702W        W36549  15.393  16.525   1.547  0.1847  0.0432  0.1519
19703W        W36550   5.857   5.697  13.658 -0.0684  0.1019 -0.5520
19704W        W36551   2.326  16.193  13.183 -0.1184  0.0804 -0.2397
19705W        W36552   3.760   9.699   2.682  0.0479  0.1439 -0.1700
19706W        W36553   3.503   9.451  14.641 -0.2047 -0.2581  0.3417
19707W        W36554  16.652   0.150  12.645  0.2830 -0.1976  0.2073
19708W        W36555   9.714   1.760  11.121 -0.0734 -0.3580  0.0168
19709W        W36556  10.450  14.976   5.125  0.2359 -0.1161 -0.0300
19710W        W36557   1.870  14.690   1.289  0.0946  0.0368 -0.0244
19711W        W36558  13.289  12.454   5.303  0.0267  0.0291  0.4099
19712W        W36559  11.913   3.248  11.759 -0.0544  0.0396 -0.1498
19713W        W36560  15.985   8.635  13.666 -0.3534  0.2531  0.2102
19714W        W36561  17.516   6.880  15.936 -0.0155 -0.0888 -0.0716
19715W        W36562  17.925   8.007   3.418  0.1068 -0.1226  0.2578
19716W        W36563   8.331  11.649   5.341 -0.2200 -0.0364 -0.1381
19717W        W36564   6.736  16.023   1.720  0.2463 -0.1996 -0.0234
19718W        W36565   1.229  15.025  14.432  0.0256  0.0783 -0.3326
19719W        W36566  10.634  16.933   6.021  0.1716  0.2136  0.2059
19720W        W36567   3.894   9.800  14.763  0.1298 -0.0796  0.0214
19721W        W36568  12.672  12.937  16.778 -0.1928 -0.1146  0.1202
19722W        W36569  10.462  14.876   4.127 -0.2067  0.2569 -0.0770
19723W        W36570   3.377   5.393   4.413 -0.0058 -0.0631  0.0248
19724W        W36571   4.969  16.592  15.162 -0.1653 -0.4060 -0.2153
19725W        W36572   3.352  16.537   1.315 -0.0478  0.0695 -0.1198
19726W        W36573   4.768   2.344   4.738  0.0542  0.1931  0.3292
19727W        W36574  14.141  10.663   4.181 -0.0437 -0.0038 -0.2006
19728W        W36575  16.451  16.805  12.333 -0.4842 -0.4464 -0.4250
19729W        W36576  17.485   9.361   5.517  0.0967 -0.3331 -0.0437
19730W        W36577   3.215  14.714   3.172  0.0724  0.0192 -0.0544
19731W        W36578  17.701   7.569  13.339 -0.0972 -0.3254 -0.0850
19732W        W36579   3.864   4.794  13.971  0.2992  0.2310  0.1368
19733W        W36580   6.855   7.018   3.205  0.1358  0.3937 -0.2594
19734W        W36581   2.544  15.001  14.108 -0.1012  0.0736 -0.3254
19735W        W36582   7.988   2.214   0.524  0.1171  0.3573 -0.0871
19736W        W36583   4.611  14.755   2.418  0.3086  0.2672  0.2793
19737W        W36584  16.447  17.161   2.768 -0.0056 -0.2452 -0.2319
19738W        W36585   0.405   0.332   1.345  0.0001  0.1636 -0.0005
19739W        W36586   2.348   0.877   5.464  0.2957  0.0881 -0.4131
19740W        W36587  13.720   6.292  14.998 -0.0208  0.2667 -0.0876
19741W        W36588  15.963  16.748   5.083 -0.1040  0.0048 -0.0446
19742W        W36589  10.861   4.246   1.182 -0.3049 -0.3809 -0.1977
19743W        W36590   3.800  16.730   5.341 -0.0614 -0.2732  0.0315
19744W        W36591  11.391   7.135  14.608  0.2940  0.2050 -0.1047
19745W        W36592   0.758  11.976  13.475  0.2067  0.1489  0.1364
19746W        W36593   2.952   5.967  14.069  0.2207  0.2245  0.0799
19747W        W36594   5.731  14.694   0.784 -0.1458  0.1081 -0.3116
19748W        W36595   0.315  16.242  13.865  0.1581  0.0838  0.2220
19749W        W36596  12.556  17.200   1.485 -0.2246  0.0940  0.2702
19750W        W36597  11.687   8.864   1.138 -0.0654 -0.0679  0.0364
19751W        W36598   9.182   1.210   2.993  0.1140  0.0342  0.0801
19752W        W36599  12.287  15.126  15.624 -0.0062 -0.0881 -0.0995
19753W        W36600   9.545   6.044  16.191 -0.1507 -0.2137  0.0073
19754W        W36601   3.331   9.461  12.094  0.4212  0.0297  0.2733
19755W        W36602  16.652  16.078   4.769  0.1888 -0.0780  0.1156
19756W        W36603   3.559   7.381   1.645 -0.0798  0.1502 -0.1133
19757W        W36604  11.596   3.603  12.538  0.1297  0.1320  0.3053
19758W        W36605   6.916  12.431   2.900 -0.0477 -0.1625 -0.0421
19759W        W36606   6.497  12.478   3.962 -0.0609  0.0866  0.2118
19760W        W36607  17.261   5.358  14.589  0.1099 -0.1961 -0.0709
19761W        W36608  16.325   2.871   2.692 -0.2449 -0.1414 -0.1542
19762W        W36609   1.235  12.233  15.542 -0.0648  0.2345  0.2036
19763W        W36610  12.835   4.429   1.299 -0.0974  0.0372 -0.0776
19764W        W36611   8.267  17.789  15.704 -0.1571 -0.1729  0.2854
19765W        W36612  15.953  17.151   0.261 -0.4821  0.0993 -0.2091
19766W        W36613  11.127  17.663  13.824 -0.0393 -0.1015 -0.1741
19767W        W36614  16.931   9.441   2.210  0.0137  0.0576  0.1781
19768W        W36615  10.317   7.562   2.235  0.0665  0.0547  0.1521
19769W        W36616   9.570  14.318   0.489  0.0235  0.0424  0.0164
19770W        W36617  11.493   2.668   2.566 -0.1175 -0.0300 -0.1250
19771W        W36618   7.942   1.939  11.791  0.1049  0.1150  0.0242
19772W        W36619   0.147  10.179  12.953 -0.1053 -0.0686  0.0498
19773W        W36620  10.605   8.073  11.770 -0.2093  0.2461 -0.2263
19774W        W36621  15.483   3.734   3.325  0.5548  0.1607 -0.0682
19775W        W36622   8.266   7.174   3.634 -0.0117 -0.0428  0.0945
19776W        W36623   9.870   7.235   1.031  0.0368  0.1113 -0.3133
19777W        W36624   0.104   2.364  12.179  0.2825  0.0304  0.0950
19778W        W36625   0.617  13.133  14.447  0.4506 -0.0374  0.1162
19779W        W36626  15.423  12.769   0.083 -0.3390 -0.0898 -0.2062
19780W        W36627   4.717  13.867  14.957  0.1215  0.0561 -0.0436
19781W        W36628   2.178   5.399   1.939  0.1082  0.2021  0.0457
19782W        W36629   0.669   0.339   2.034  0.0767 -0.0459 -0.3203
19783W        W36630   4.232   6.546   5.726  0.1615  0.0628 -0.0659
19784W        W36631  10.558   6.920   1.629 -0.1571  0.0650  0.1214
19785W        W36632   4.317   0.688  14.387 -0.1384  0.4127 -0.0579
19786W        W36633  16.287  14.986  14.957 -0.1704 -0.1468  0.0662
19787W        W36634   2.704  14.930  14.559 -0.0531  0.0901  0.3179
19788W        W36635  16.359   9.012  12.387  0.0697  0.0021 -0.2671
19789W        W36636   9.051   0.108  16.094 -0.0505 -0.3657 -0.0228
19790W        W36637   3.030  16.221   4.706 -0.2494 -0.1476 -0.1753
19791W        W36638   9.333  10.662  13.529  0.2917  0.1802  0.1107
19792W        W36639  12.398   8.123  16.196  0.0919  0.0609 -0.2163
19793W        W36640  13.428   2.087   0.007 -0.1548  0.3027  0.2240
19794W        W36641  17.769  15.466  14.628  0.2206 -0.0930  0.3364
19795W        W36642   1.586  11.656   5.274 -0.0623  0.0489  0.1621
19796W        W36643  11.630  14.580  15.520  0.0254 -0.0355 -0.2586
19797W        W36644   4.620  16.559   1.835  0.3845  0.0093  0.1635
19798W        W36645   4.453  10.657   2.742 -0.0022  0.1431  0.3864
19799W        W36646  13.036  17.542   3.817  0.2453 -0.0903  0.0927
19800W        W36647  12.431  13.765   2.437  0.1450 -0.0056 -0.0777
19801W        W36648   9.510   0.579  10.787 -0.1015  0.1754 -0.2913
19802W        W36649  10.674   6.784   5.594 -0.0357  0.0808 -0.0218
19803W        W36650   4.798   1.319   4.687 -0.0249  0.0927  0.0519
19804W        W36651   9.663   2.516   5.525 -0.1030 -0.1849 -0.2217
19805W        W36652   3.417   6.240  16.238  0.0482  0.2344  0.0553
19806W        W36653  13.325   1.882   4.140  0.0373 -0.0314  0.0398
19807W        W36654   7.350   9.303   4.848  0.1514 -0.1710 -0.1637
19808W        W36655  12.934   3.203  15.127  0.0032  0.0651 -0.0120
19809W        W36656   5.172   6.068  15.312  0.1114  0.2726  0.0914
19810W        W36657   0.849   5.324  12.128 -0.1547 -0.2434  0.1398
19811W        W36658   7.187  10.358  15.185 -0.7335  0.0308 -0.3197
19812W        W36659   5.261   2.609  13.594  0.1118 -0.2836  0.0919
19813W        W36660  16.695  12.299   2.767 -0.2800 -0.0386 -0.1107
19814W        W36661   6.008  10.631   3.749  0.1473 -0.2714  0.2451
19815W        W36662  16.304  13.395   0.933  0.3912  0.1461 -0.3675
19816W        W36663   5.385   3.567  14.934 -0.1190  0.1463  0.2415
19817W        W36664   7.699  14.247   1.271 -0.3323  0.3347 -0.0375
19818W        W36665  14.015  13.961   1.302  0.0449  0.0529 -0.0582
19819W        W36666   2.682  13.052  15.079  0.0043  0.1477 -0.1930
19820W        W36667  15.693  12.958   2.082  0.0442  0.1785  0.1897
19821W        W36668   5.447   8.328   4.991 -0.1400 -0.4256  0.2391
19822W        W36669  16.070  17.689   4.842  0.1720 -0.1178  0.3193
19823W        W36670   8.604   4.344  15.912  0.2665  0.0124  0.0880
19824W        W36671   0.076   9.531  15.703 -0.0242  0.0340  0.0945
19825W        W36672   7.643   3.656   5.803  0.1037  0.1231 -0.2980
19826W        W36673   8.189  13.010   0.391 -0.0224 -0.1599 -0.1957
19827W        W36674   4.595   3.546   0.733 -0.0337 -0.2733 -0.2381
19828W        W36675  15.877  15.584   4.126  0.0906 -0.1354  0.0144
19829W        W36676   4.170  12.056  12.267  0.1074 -0.1060  0.0361
19830W        W36677  16.539   0.543   2.050 -0.0356 -0.2130 -0.1683
19831W        W36678  14.962   6.420   0.101 -0.0234  0.0097  0.2247
19832W        W36679  16.776   0.624   1.099 -0.2650 -0.2745 -0.1587
19833W        W36680   5.897  10.667   4.248 -0.1130 -0.0073  0.0148
19834W        W36681   9.202  12.781  16.215  0.4528  0.0129 -0.0559
19835W        W36682   1.795   2.571  14.787  0.0267 -0.0483  0.2947
19836W        W36683  13.308   0.033   1.942  0.1549  0.1742  0.1278
19837W        W36684   4.115  11.623  16.130  0.2114 -0.1907 -0.1280
19838W        W36685  13.739   7.471   5.848  0.3084  0.2768  0.1481
19839W        W36686  13.690   7.326   0.078  0.0661  0.0530  0.4175
19840W        W36687  14.515   4.572   2.164 -0.0934 -0.0072 -0.0729
19841W        W36688  15.645  10.303  13.645  0.3028  0.1142 -0.2726
19842W        W36689   1.151   3.105  11.522 -0.1446  0.2409 -0.1263
19843W        W36690  17.751   8.920   3.154 -0.3661  0.0714 -0.0837
19844W        W36691   8.253   3.512  15.357  0.0028  0.0065  0.0089
19845W        W36692  16.169   0.864   2.135 -0.2529  0.3394  0.1469
19846W        W36693  11.804  17.365   5.656 -0.1396 -0.2427  0.0130
19847W        W36694   5.274   8.225  16.239 -0.1032  0.1784 -0.0047
19848W        W36695  15.845   1.178   2.377 -0.3849 -0.0123 -0.0497
19849W        W36696   8.843   2.301  12.196  0.0914 -0.2333  0.1913
19850W        W36697   8.283   5.475  15.134 -0.0083  0.2224 -0.0365
19851W        W36698  14.108  13.040   2.314 -0.0380 -0.0905  0.0919
19852W        W36699   8.783  13.364   1.879  0.0125 -0.0291 -0.0544
19853W        W36700   7.613   1.594  11.559  0.2530  0.0846 -0.4253
19854W        W36701   0.890   4.852  15.470  0.5064  0.0975  0.0913
19855W        W36702   2.766   9.757   2.307  0.1393  0.0307 -0.0446
19856W        W36703   9.626  13.293   0.944 -0.1038  0.2530  0.1013
19857W        W36704   9.962  12.402  11.694 -0.1813  0.1324 -0.5587
19858W        W36705  13.557   9.625  15.792 -0.1130 -0.0394  0.0286
19859W        W36706   4.302   3.034  14.134 -0.2604  0.1129  0.1137
19860W        W36707   5.771  13.773  14.950  0.2402 -0.0093 -0.3161
19861W        W36708  10.319   0.317   3.374 -0.0151 -0.0408 -0.2640
19862W        W36709   1.541   8.514  16.606 -0.1825 -0.0454  0.1681
19863W        W36710   2.197  10.478  15.059 -0.1187 -0.1625 -0.1236
19864W        W36711  12.135   4.077   2.489  0.3552  0.0507 -0.0676
19865W        W36712   4.856   0.500   5.795  0.0507 -0.1332 -0.0335
19866W        W36713   1.629   1.017   2.443 -0.0555 -0.2327 -0.3796
19867W        W36714   0.427   9.550  16.322  0.1660  0.0998 -0.0773
19868W        W36715   4.699  16.714  13.927 -0.4785  0.2274  0.0001
19869W        W36716  16.654   0.991   5.749  0.3575 -0.0383  0.2565
19870W        W36717  10.858   9.036   1.835  0.0169  0.0533  0.0913
19871W        W36718  14.346  14.884  15.293 -0.1550 -0.3020  0.0289
19872W        W36719   1.949  11.001  15.052  0.0542 -0.2898 -0.4078
19873W        W36720   4.657   9.809   4.973  0.1591  0.1363  0.0183
19874W        W36721   6.375  11.068  12.983 -0.1311 -0.0270  0.0816
19875W        W36722   0.452  12.247  16.684  0.2952  0.0900  0.1076
19876W        W36723  16.087   1.389  12.145 -0.0017 -0.1976  0.1974
19877W        W36724   1.951   3.746   1.243  0.1002 -0.0273 -0.0281
19878W        W36725  15.648  12.793  15.629  0.1856 -0.1497 -0.0643
19879W        W36726  10.230   4.715  16.791 -0.1420 -0.2213  0.1346
19880W        W36727  11.331   5.893   1.561 -0.0348 -0.0155 -0.1016
19881W        W36728   5.969  10.175  16.647 -0.0571 -0.2389 -0.1987
19882W        W36729  17.336   5.788  16.333 -0.3411 -0.0725 -0.3253
19883W        W36730   7.758  12.109   4.778  0.2421  0.0255 -0.1158
19884W        W36731  15.377   9.796  13.721 -0.2239 -0.1784 -0.1560
19885W        W36732  14.183   0.705   3.532  0.1723  0.0687  0.0584
19886W        W36733  14.407   1.508  12.278 -0.1309 -0.0227 -0.0373
19887W        W36734   1.378  10.767  12.906  0.1840  0.1380  0.0251
19888W        W36735  14.418   6.561   6.227  0.0982  0.1797 -0.1712
19889W        W36736   5.346   3.420  11.472  0.0237  0.0316 -0.0940
19890W        W36737  15.525   9.788  14.989  0.0346  0.2436 -0.0576
19891W        W36738   0.974  17.252  16.291 -0.0456 -0.0210 -0.2676
19892W        W36739   9.669  16.172   0.397 -0.1191 -0.0363  0.1226
19893W        W36740   2.047   9.729  13.518 -0.2116 -0.0239  0.4291
19894W        W36741   8.717  13.578   3.418  0.2192  0.0314 -0.0351
19895W        W36742   8.551   8.281   2.574  0.3440  0.0240 -0.1534
19896W        W36743  16.274   3.284  15.592 -0.1108  0.1033 -0.1265
19897W        W36744   4.079   5.522   1.471  0.0125  0.2661  0.0157
19898W        W36745  10.081   9.239  16.379  0.1993  0.1236 -0.1881
19899W        W36746  17.902  13.275  16.019 -0.0351  0.0276 -0.4880
19900W        W36747  15.594  16.834   4.481 -0.0249  0.1857 -0.1449
19901W        W36748  17.681   8.060   6.204  0.1770  0.0053 -0.0368
19902W        W36749   8.658  17.802   3.266  0.1930 -0.2049 -0.1227
19903W        W36750  14.720  11.330   1.652  0.0339 -0.1444  0.1256
19904W        W36751  13.072  10.430  15.658 -0.1707  0.4584 -0.2444
19905W        W36752   3.264   6.817  11.345 -0.2380  0.0362 -0.0228
19906W        W36753  17.353  15.523   0.395 -0.0156  0.1531  0.1061
19907W        W36754  12.138  10.634   1.116 -0.2030 -0.1945  0.1173
19908W        W36755   7.436   1.371  12.376  0.0398 -0.1746  0.1065
19909W        W36756  16.225  17.853   2.316 -0.0633  0.0759 -0.1172
19910W        W36757   9.735  14.792   4.329 -0.0105 -0.0453 -0.1284
19911W        W36758   2.578   1.355   6.132 -0.3594 -0.3030 -0.1204
19912W        W36759  16.987   7.016  13.253  0.1798  0.0778 -0.1622
19913W        W36760   5.442  15.961   1.577 -0.1987 -0.2074  0.0992
19914W        W36761   0.776  13.913   2.504 -0.0073 -0.1171 -0.1461
19915W        W36762   1.387   7.472  13.007  0.1880 -0.0411 -0.2429
19916W        W36763  12.282  12.337  14.209  0.3922 -0.1466 -0.0702
19917W        W36764  11.906  10.793  16.134  0.1976 -0.2223  0.0049
19918W        W36765   7.341   6.927  15.722 -0.0944 -0.0033 -0.2474
19919W        W36766   4.655  15.274  12.832 -0.2246 -0.1999  0.1163
19920W        W36767   1.399  17.217   4.678  0.0049 -0.1730  0.0922
19921W        W36768   5.415   4.645   3.774  0.1662 -0.0576 -0.3252
19922W        W36769   3.032  12.770   2.700  0.0654 -0.1784  0.0445
19923W        W36770  10.346   0.404   5.239  0.0901 -0.3827  0.1664
19924W        W36771  15.728  16.892  13.862  0.3096 -0.2028 -0.1563
19925W        W36772   2.238  14.344   1.119  0.0595  0.0510 -0.2085
19926W        W36773   7.135   4.959   3.320  0.0829 -0.3454  0.2768
19927W        W36774   7.522   4.642   3.521  0.1715 -0.2444 -0.0921
19928W        W36775   1.248   4.043   0.090 -0.2034  0.0866 -0.1349
19929W        W36776   6.246   4.918  14.138 -0.0003  0.1461 -0.0424
19930W        W36777  13.692   7.545   2.847 -0.2337  0.1109 -0.1560
19931W        W36778  16.126   1.657   2.430  0.1926  0.1750  0.1319
19932W        W36779  11.280   5.102  16.223  0.1137 -0.1257  0.0172
19933W        W36780  17.521   2.384  13.181 -0.0203  0.0681 -0.1423
19934W        W36781   2.246  12.953   4.699 -0.2607  0.1829 -0.0721
19935W        W36782   4.590   7.055   1.956  0.0309  0.1307 -0.0260
19936W        W36783   7.483   7.930  12.164  0.0466 -0.0031 -0.1363
19937W        W36784  14.868  11.388   0.812  0.0217 -0.2587  0.0574
19938W        W36785   6.679   9.777  14.142  0.1069 -0.1723 -0.1410
19939W        W36786   8.512   1.638   0.808 -0.2793 -0.0424 -0.0874
19940W        W36787   2.578  16.312   0.138 -0.1033  0.0751 -0.2702
19941W        W36788   5.351   1.276   0.692  0.0329 -0.1078  0.1314
19942W        W36789  11.613   2.020  15.992  0.0986  0.0311  0.0959
19943W        W36790  13.315   4.043   6.002  0.3337 -0.0113 -0.1271
19944W        W36791   9.879  15.763   2.785  0.2008  0.3729  0.0125
19945W        W36792   4.594   2.681   1.743 -0.0523  0.3421 -0.1327
19946W        W36793   0.653   9.961   5.415 -0.0850 -0.1593  0.0230
19947W        W36794  10.146   7.650   0.845 -0.0781 -0.1844 -0.2246
19948W        W36795  14.495  12.157   2.252 -0.0492  0.1428  0.0297
19949W        W36796   3.348   7.530  14.797 -0.2266 -0.0109 -0.0677
19950W        W36797   3.055  13.560  14.279  0.0163  0.1257 -0.0523
19951W        W36798  17.237  11.107   0.655 -0.1155  0.1730 -0.1126
19952W        W36799  14.243  13.015   5.397 -0.1504  0.6158 -0.0564
19953W        W36800   6.394  16.230  15.286 -0.0519  0.2228  0.0328
19954W        W36801   5.113   0.870   2.756  0.1137  0.2582  0.1422
19955W        W36802   9.795   0.176  15.892 -0.2277 -0.0816 -0.1706
19956W        W36803   4.334   7.374  16.745 -0.4166  0.1043  0.3005
19957W        W36804   0.609   4.460  14.239 -0.1127 -0.0313  0.3674
19958W        W36805  12.126  17.163  13.824  0.3940  0.0454  0.1404
19959W        W36806   4.698  14.145   4.676  0.1208  0.0379 -0.0202
19960W        W36807  10.414   9.937  16.242  0.3211  0.0259  0.1210
19961W        W36808  16.915  13.943   4.004 -0.0238 -0.2582 -0.1976
19962W        W36809  13.636   4.163  14.153  0.2668 -0.1208 -0.0873
19963W        W36810  10.648   9.786  15.070  0.1646 -0.2125 -0.1945
19964W        W36811   0.088   3.360   0.429 -0.1113  0.2277 -0.1427
19965W        W36812   3.797  11.837  14.715  0.1429  0.0713  0.0013
19966W        W36813  10.577   7.103   2.962  0.3031  0.1244 -0.0442
19967W        W36814  12.577   6.504  12.632 -0.0701  0.3074  0.1457
19968W        W36815  15.437  12.606   5.449 -0.1514 -0.0309  0.1313
19969W        W36816  14.466  16.859   6.064  0.1207 -0.0811  0.1683
19970W        W36817   5.914  10.796  15.098  0.0656  0.1586 -0.0418
19971W        W36818  16.361  13.783  13.941  0.0846 -0.0921 -0.0963
19972W        W36819  17.898   2.813   3.798  0.3754  0.0067  0.2059
19973W        W36820  11.319   5.333  14.203 -0.0091 -0.4990 -0.1404
19974W        W36821   1.874   1.703  12.216 -0.0623 -0.0658  0.0073
19975W        W36822  14.143   9.064  11.583 -0.4021  0.0613  0.1832
19976W        W36823   7.200   0.322   4.376  0.1434  0.1090  0.1236
19977W        W36824   2.994   3.203  13.972 -0.0377 -0.0094 -0.2500
19978W        W36825   1.073   7.889   0.391 -0.0872 -0.0370  0.0256
19979W        W36826   8.055   1.918  14.901  0.1986 -0.2378  0.0436
19980W        W36827   8.662  12.838  15.441 -0.1830  0.1544 -0.0288
19981W        W36828   7.852   6.794   2.509 -0.2420  0.3525 -0.0297
19982W        W36829  13.676   7.951   5.752 -0.0424 -0.1508  0.0546
19983W        W36830   5.266  16.273   0.775 -0.1300 -0.2689 -0.3745
19984W        W36831  13.231   3.911  12.986  0.1450 -0.0822 -0.2474
19985W        W36832   2.564   0.994   4.393  0.2395 -0.0423 -0.1113
19986W        W36833  13.857   0.664   4.422 -0.0410 -0.0132  0.0242
19987W        W36834   9.554  17.819   3.084 -0.0232  0.2436 -0.0395
19988W        W36835  17.388   9.704   2.189  0.0758 -0.0514 -0.1450
19989W        W36836  14.513   2.801   3.463  0.1787 -0.2040  0.0924
19990W        W36837   3.041   9.774  13.057  0.2222 -0.2450 -0.1039
19991W        W36838   4.021   1.860   4.023  0.2331 -0.0421  0.2978
19992W        W36839  15.002  14.538  13.173  0.4400 -0.0407 -0.0338
19993W        W36840   6.117   2.161  16.473  0.0394  0.1060  0.0957
19994W        W36841   0.844   5.847   2.399 -0.0945 -0.0505  0.1505
19995W        W36842   1.055   2.251  15.308  0.1848 -0.1316  0.0462
19996W        W36843  11.289   0.777   4.540  0.2138  0.4869  0.0049
19997W        W36844  14.832  10.688  13.829 -0.0985  0.0315 -0.2523
19998W        W36845   9.857  12.779  14.524 -0.1076  0.2332 -0.1458
19999W        W36846  17.414  10.854   0.197  0.1364  0.1486 -0.0510
20000W        W36847   7.477  11.072  15.509  0.0593  0.1800  0.0378
20001W        W36848   6.457   2.481   4.059 -0.0324 -0.0777 -0.0522
20002W        W36849   6.482  12.873   0.311  0.0729 -0.4124  0.0104
20003W        W36850   3.470   0.571  16.627  0.0662  0.0224  0.0660
20004W        W36851  10.158  13.904  14.579 -0.0890 -0.1372 -0.0886
20005W        W36852   0.609   3.134  12.206  0.0202  0.1413 -0.2501
20006W        W36853  13.580  11.808   5.652  0.2132  0.0226 -0.1687
20007W        W36854   2.416  11.387   1.423 -0.1302 -0.0445 -0.1041
20008W        W36855   0.023   2.455  13.104 -0.1353  0.3047 -0.1855
20009W        W36856   2.430   6.465  12.847  0.0269  0.2189  0.3299
20010W        W36857   2.452   3.751   4.716 -0.1851  0.3642 -0.1407
20011W        W36858  14.404   3.624   4.774 -0.1980 -0.2000  0.2032
20012W        W36859   4.904   6.855  15.191  0.1185  0.0872  0.3586
20013W        W36860   5.747   2.855  12.882  0.0622 -0.1062  0.2345
20014W        W36861  11.533  11.877   0.284  0.1616  0.0984  0.0415
20015W        W36862  15.581  16.982   1.422  0.2478  0.1574  0.0207
20016W        W36863  12.090  13.392   3.634 -0.1678  0.0496 -0.2787
20017W        W36864   6.348   7.305  13.318 -0.0765  0.0727  0.0408
20018W        W36865  15.683   8.733  15.838 -0.0159  0.1463  0.1080
20019W        W36866   0.907   1.422   2.060 -0.0203 -0.1020 -0.1185
20020W        W36867   9.358  11.825  14.357  0.1878  0.1710  0.2326
20021W        W36868   8.028  17.679  13.391 -0.1091  0.0667 -0.2118
20022W        W36869  17.599  13.972   0.373  0.0743  0.1464  0.1829
20023W        W36870   8.716   2.371  11.726  0.4850  0.0167  0.0259
20024W        W36871  11.920  17.380  13.303  0.2825  0.1786  0.1453
20025W        W36872   8.928   7.475   0.134 -0.1705  0.1059  0.0534
20026W        W36873   9.341   7.342   1.310 -0.1547  0.1051  0.2157
20027W        W36874  13.522  15.108   3.349  0.0860 -0.0140  0.3158
20028W        W36875  10.104   8.821   5.064 -0.0593 -0.1027  0.2108
20029W        W36876  12.356  17.758   0.703  0.0159  0.2704 -0.0673
20030W        W36877   2.978   5.364  15.706  0.2900 -0.3441 -0.2147
20031W        W36878  12.120   1.975   2.315 -0.0665  0.1396 -0.1912
20032W        W36879  10.266   9.400   2.621 -0.1331 -0.1365  0.2984
20033W        W36880   5.001   1.855  14.084 -0.1932 -0.2675 -0.0096
20034W        W36881   1.008  15.798  13.730 -0.0700  0.1793  0.0211
20035W        W36882   9.174   8.306   1.920 -0.0235 -0.0960  0.2505
20036W        W36883   2.490  17.406   4.228  0.1291  0.0014  0.2219
20037W        W36884   1.318   7.967   4.808 -0.2513  0.1635 -0.0858
20038W        W36885   4.087   4.718  13.069  0.2088 -0.0825 -0.0987
20039W        W36886  13.892   7.167   5.052  0.3206 -0.0473  0.2142
20040W        W36887  11.507  14.745   0.873 -0.1349 -0.2194 -0.3497
20041W        W36888   1.332   9.770   4.109  0.0998  0.0181 -0.0022
20042W        W36889   7.581   7.380   4.063 -0.2451  0.0403 -0.0720
20043W        W36890   4.565  13.744   5.010 -0.0753 -0.1455 -0.0496
20044W        W36891  14.435   9.584   1.794 -0.0945 -0.0517 -0.0821
20045W        W36892  14.260  10.905   4.878 -0.1628 -0.1932  0.0552
20046W        W36893  16.899   6.350  12.814  0.0787  0.2003 -0.1927
20047W        W36894  10.209   0.316   0.271  0.2604 -0.2265  0.2137
20048W        W36895  10.287   2.516  13.608  0.0852 -0.0217  0.0153
20049W        W36896  16.206  11.760   5.142 -0.3960 -0.1080  0.0410
20050W        W36897  15.557  15.834  14.306  0.0455 -0.1649  0.0987
20051W        W36898   5.195   0.578   2.283 -0.2482 -0.0793 -0.0406
20052W        W36899  15.818  17.789  15.625  0.0181 -0.0995  0.0064
20053W        W36900  15.569  14.041   0.905  0.0250  0.1094  0.0336
20054W        W36901  15.032   0.036  12.437  0.2130 -0.2781  0.0004
20055W        W36902   2.017  15.591  14.169 -0.0547 -0.1631  0.2486
20056W        W36903   1.895  10.462   4.805 -0.1106  0.3757  0.2729
20057W        W36904   9.054  10.190  16.054  0.0444  0.1957 -0.0454
20058W        W36905   6.188  10.204   0.334 -0.0890 -0.1232  0.1509
20059W        W36906   0.818   2.232  14.376 -0.3219  0.1428 -0.0589
20060W        W36907  17.530  11.106  14.735 -0.0061  0.1511 -0.0917
20061W        W36908   5.804  12.210  12.976 -0.0776  0.0308 -0.0694
20062W        W36909   1.675  11.957   3.320 -0.0245  0.0801 -0.0700
20063W        W36910  11.292   6.081   5.444  0.1167 -0.0646  0.0057
20064W        W36911   0.059   8.538   5.419 -0.0392 -0.4604 -0.3308
20065W        W36912   5.221   2.949  16.180 -0.0169  0.0167 -0.0344
20066W        W36913  17.012   1.000   4.490 -0.0655  0.1839 -0.0727
20067W        W36914   7.932  16.151   1.359  0.1026 -0.3648 -0.1665
20068W        W36915   5.580   7.150   4.282  0.0145 -0.0664 -0.0495
20069W        W36916   0.146  16.369   3.748  0.1371  0.1621  0.1225
20070W        W36917   5.538  10.619   1.765 -0.0245 -0.1250  0.0366
20071W        W36918   9.049   1.963  14.838 -0.0666 -0.1431 -0.2569
20072W        W36919  14.158   5.429   2.210  0.1796 -0.2980  0.1871
20073W        W36920  10.968   2.740   2.016  0.2697 -0.0568  0.2002
20074W        W36921   5.201   2.706  12.686  0.0054  0.5269  0.0007
20075W        W36922  10.480   4.045   3.370 -0.3100  0.3775 -0.0896
20076W        W36923   6.783  11.570   5.518 -0.2083 -0.1818 -0.1847
20077W        W36924   0.142   7.419   0.823 -0.0165  0.1871 -0.1009
20078W        W36925  10.512   9.820  14.527 -0.0532 -0.3277  0.0846
20079W        W36926  17.420  14.596   3.812  0.0793 -0.1890  0.1603
20080W        W36927   9.985   0.863   4.383 -0.1010 -0.2172 -0.3839
20081W        W36928   8.635   7.749   0.977  0.1650 -0.0333 -0.0465
20082W        W36929   6.393   6.844   2.487  0.2812  0.0447 -0.1608
20083W        W36930   4.325   9.166  15.528  0.0220  0.0945 -0.1414
20084W        W36931   6.255   4.976   2.250 -0.1408 -0.0838 -0.0790
20085W        W36932  11.618   4.478  14.778 -0.1725 -0.1368 -0.1721
20086W        W36933   7.503  16.803   1.585  0.1465  0.1420 -0.1575
20087W        W36934   5.505  13.917   0.325 -0.0905  0.0318 -0.1773
20088W        W36935   8.474  14.548   3.432 -0.1085  0.0885 -0.0252
20089W        W36936   8.099   5.708   3.404  0.0597  0.0175 -0.0365
20090W        W36937  12.057  12.214   2.415 -0.2110 -0.0091  0.0071
20091W        W36938  14.261  15.463  14.041  0.1907  0.1315  0.1515
20092W        W36939  11.643  10.934   1.643  0.1361 -0.0359  0.0066
20093W        W36940   9.289   3.561   4.221  0.3342 -0.0766  0.0100
20094W        W36941   3.584  13.873  12.830 -0.0635 -0.0646  0.1103
20095W        W36942  17.280   6.635   0.704 -0.1139  0.0462  0.2921
20096W        W36943  10.875  10.483  13.039  0.2313  0.1390 -0.3514
20097W        W36944   4.041   0.476   4.128 -0.1196 -0.0171  0.2113
20098W        W36945  15.108   9.293   0.505 -0.3027 -0.0566 -0.1159
20099W        W36946  10.028  15.725  13.937  0.1948 -0.0994  0.1681
20100W        W36947   1.740   0.998  11.832 -0.1126 -0.1499  0.5162
20101W        W36948   3.823  13.594   4.607 -0.2313  0.0825  0.1217
20102W        W36949   3.640  11.812  13.455 -0.0891 -0.0300  0.0879
20103W        W36950  13.039  11.210   2.476 -0.0433  0.1988 -0.0235
20104W        W36951   4.127   5.368  12.270 -0.0811 -0.1827  0.1443
20105W        W36952  14.480  14.438   0.406  0.1770 -0.2659 -0.0127
20106W        W36953   5.988  16.530  13.811  0.2976 -0.1450  0.2572
20107W        W36954  10.263   8.576  13.291  0.0460  0.0922 -0.0701
20108W        W36955   9.058   8.779   1.791 -0.3776  0.2706  0.0738
20109W        W36956  13.559   0.432   3.950  0.1177  0.0581  0.2901
20110W        W36957   9.972  13.731   1.615 -0.2698  0.0777  0.1325
20111W        W36958  13.562  17.021  15.667  0.1931  0.2912 -0.1637
20112W        W36959   7.397  15.288   0.663 -0.1998 -0.2121  0.1643
20113W        W36960  11.966  17.829  13.139 -0.0844 -0.0836  0.0742
20114W        W36961   2.224  17.870   5.031  0.1257 -0.3604  0.0474
20115W        W36962   3.711  11.052  14.282  0.0758  0.0949 -0.3864
20116W        W36963  10.605   0.212   4.739  0.1201 -0.3076  0.0767
20117W        W36964   2.908   7.456  12.464 -0.1822  0.1889 -0.0906
20118W        W36965   4.384   0.825   2.735  0.0229 -0.1571 -0.1428
20119W        W36966   0.332   9.809   4.141  0.1245 -0.0141 -0.1484
20120W        W36967   4.036   8.376  12.907  0.3045  0.2172  0.0931
20121W        W36968  13.298  13.483   1.011 -0.1383 -0.0848 -0.1213
20122W        W36969   9.304  13.622   1.776 -0.0358 -0.1662  0.0123
20123W        W36970  14.375  12.232  13.915  0.1344  0.0667 -0.1497
20124W        W36971  17.493   2.078   4.916 -0.0083 -0.3881 -0.0319
20125W        W36972  14.613   4.372   4.350 -0.0746 -0.1636 -0.3360
20126W        W36973   5.355  17.075  16.013  0.0782  0.1424  0.0625
20127W        W36974  12.779   6.309  14.455  0.0047 -0.3790  0.0944
20128W        W36975  11.147  12.951   4.728  0.1015 -0.1871  0.1096
20129W        W36976   6.735  11.894  13.073  0.0395 -0.0884  0.0553
20130W        W36977   6.424   2.579  14.096 -0.0286 -0.3078 -0.1024
20131W        W36978   9.918  15.987   0.034 -0.2478  0.1665  0.2381
20132W        W36979   2.591   1.658  11.011 -0.2831  0.0596 -0.0322
20133W        W36980   6.849   3.605   4.142  0.2093  0.1596  0.1372
20134W        W36981   6.580  12.726  13.987 -0.3082  0.0125  0.2358
20135W        W36982  13.355  16.820   0.956  0.0413 -0.1139  0.0805
20136W        W36983  14.315  12.160  14.450 -0.0084  0.0843  0.0737
20137W        W36984  13.398   0.525  12.882 -0.1566  0.2294  0.1512
20138W        W36985   7.260  10.237   5.232 -0.0465 -0.0759 -0.0054
20139W        W36986   8.865   3.835   2.749 -0.0838 -0.2710 -0.0903
20140W        W36987  12.850  16.972  16.775 -0.1270  0.0154  0.0365
20141W        W36988  16.522  10.240  16.441 -0.0947 -0.0475 -0.0445
20142W        W36989   9.175  13.041   0.203 -0.0694 -0.0693 -0.3150
20143W        W36990   4.375   2.410  12.135 -0.2724  0.1096  0.0456
20144W        W36991   1.174   2.016  15.770 -0.0078 -0.2959  0.1496
20145W        W36992  10.245   7.295  12.202 -0.0577  0.1872 -0.0938
20146W        W36993  13.204   2.348  13.968  0.1065  0.0472  0.0686
20147W        W36994   3.442   8.592   2.035 -0.1549 -0.2298 -0.1476
20148W        W36995   1.512   4.294  14.625 -0.2635  0.0787 -0.1011
20149W        W36996  16.013  15.395  16.655 -0.0857 -0.2010 -0.0640
20150W        W36997  10.086  16.678   4.051 -0.2918 -0.5454 -0.3380
20151W        W36998   9.285   9.099  14.409  0.1554  0.1674 -0.1836
20152W        W36999  17.795  15.075  15.527  0.2017  0.2294  0.0873
20153W        W37000   4.360   0.635   4.603 -0.1693 -0.1074  0.0019
20154W        W37001   9.061   4.656   1.265 -0.0337 -0.0974  0.0308
20155W        W37002   0.121   5.061   0.820  0.0357  0.1278  0.0568
20156W        W37003  12.397  10.154   5.824 -0.2042 -0.0346  0.0515
20157W        W37004  15.085   3.946   5.517 -0.2415 -0.0117 -0.0871
20158W        W37005  10.830   5.669  16.759 -0.0690 -0.2136 -0.1786
20159W        W37006   7.163  13.206   5.519 -0.3047 -0.2853 -0.1740
20160W        W37007  11.831   3.524  15.588 -0.1919  0.1032 -0.0225
20161W        W37008  16.570  15.030  14.561 -0.2395 -0.1354 -0.2378
20162W        W37009   5.416   7.010  15.080  0.1969  0.2614  0.2576
20163W        W37010   2.504   5.518  14.118  0.5108 -0.2421  0.1630
20164W        W37011  11.437   8.352  13.775 -0.1158 -0.1603  0.0488
20165W        W37012  13.656   4.512  15.838 -0.0930 -0.1261 -0.0465
20166W        W37013  12.656   0.460  14.674  0.0722 -0.0715  0.0097
20167W        W37014   0.218  13.742  15.886 -0.0517 -0.0935 -0.1317
20168W        W37015   3.652   9.417  11.665 -0.1022 -0.0218  0.0478
20169W        W37016   9.793   3.084   0.536 -0.2264  0.0886  0.0033
20170W        W37017  10.604  17.221  11.534 -0.0290 -0.1638  0.1267
20171W        W37018  17.835  16.081   4.760  0.0296  0.0571  0.0573
20172W        W37019  13.828   1.951  14.543 -0.1069 -0.1007 -0.0619
20173W        W37020   9.595   3.113  14.900  0.0129  0.0762  0.0580
20174W        W37021  13.625   8.389   4.088 -0.3340 -0.1736  0.1291
20175W        W37022  16.419   4.517   4.435  0.0366  0.0757 -0.2131
20176W        W37023   8.324   0.893  11.713  0.2196  0.1711  0.1217
20177W        W37024   2.108   6.886   6.241  0.0245 -0.1024 -0.2098
20178W        W37025   4.659  13.126  12.925  0.4143  0.1282  0.1268
20179W        W37026   5.148   9.743  11.794 -0.1237  0.0712 -0.1285
20180W        W37027  14.830   0.838   5.850 -0.0066  0.0159 -0.3336
20181W        W37028  17.512   9.698   4.102  0.0228  0.4144 -0.1492
20182W        W37029   1.919   2.883   1.009  0.1417  0.2834  0.0175
20183W        W37030  12.811  17.046  11.927 -0.0174  0.1489 -0.0683
20184W        W37031   0.072  15.408  12.692 -0.0601  0.4667  0.0036
20185W        W37032   4.309  12.333   0.033  0.1053  0.0300  0.0227
20186W        W37033   5.483   9.723  16.797 -0.2015 -0.2572  0.0160
20187W        W37034  16.043  15.125   2.331 -0.2125  0.1000 -0.1608
20188W        W37035   3.628  15.982  12.931  0.1290 -0.1594  0.3250
20189W        W37036  12.019   5.486  15.170  0.2988  0.1449 -0.3155
20190W        W37037   0.881   0.387  13.605  0.0149 -0.4164  0.0050
20191W        W37038  14.286   8.290   0.966  0.0976 -0.0343 -0.0319
20192W        W37039   3.091  15.750   1.849  0.0248 -0.1723 -0.2407
20193W        W37040   4.299  13.451  12.756  0.1025 -0.0053  0.0228
20194W        W37041   1.927  14.887  14.882 -0.0263  0.0272  0.0225
20195W        W37042   7.344  10.060  16.634 -0.0820  0.0237  0.0706
20196W        W37043  12.140   0.551   5.497 -0.3519 -0.1444  0.2232
20197W        W37044   3.075  10.034   3.185  0.2546 -0.0498 -0.0424
20198W        W37045   3.083   0.490   0.600 -0.1231  0.1455 -0.0944
20199W        W37046  13.329  16.114   0.568  0.2558  0.1676  0.0883
20200W        W37047   0.348  11.107   5.302  0.1898 -0.0081  0.0028
20201W        W37048   7.940  12.925   3.753  0.0212 -0.0872  0.1143
20202W        W37049   5.759   3.633   3.492 -0.1640  0.0288  0.1297
20203W        W37050  13.538   5.899  14.146 -0.3297  0.1486 -0.0787
20204W        W37051   0.460  10.556  12.038  0.0437 -0.1887  0.0500
20205W        W37052   6.743   0.859   2.262 -0.1629  0.3354  0.0762
20206W        W37053   1.690   1.502  11.817 -0.0148  0.0961 -0.0025
20207W        W37054  11.048  12.410  13.998  0.0662  0.2205 -0.2555
20208W        W37055   0.679   6.874  14.154  0.0845  0.0242 -0.2055
20209W        W37056   9.525  11.569  15.578 -0.1087 -0.1296  0.1037
20210W        W37057   2.047  15.838  16.006 -0.0750  0.0436  0.2963
20211W        W37058  11.428   4.309   3.320 -0.1214  0.3566  0.1610
20212W        W37059   0.011   0.006   4.229 -0.1681  0.0153  0.2714
20213W        W37060   0.178   3.300   4.586 -0.2128 -0.1621 -0.0535
20214W        W37061  15.165  15.684   1.064  0.0350 -0.1646 -0.0076
20215W        W37062   8.317  14.835   2.334  0.0186 -0.0390 -0.1428
20216W        W37063  10.918   3.326  11.497  0.2001 -0.0167 -0.1238
20217W        W37064   2.962   0.995   4.740 -0.0176 -0.0549 -0.2632
20218W        W37065   8.348  10.629  15.443  0.1486  0.1461  0.2090
20219W        W37066   9.383   0.461  16.022  0.1898  0.1306 -0.0002
20220W        W37067   1.841   9.611  16.780 -0.1766  0.1622 -0.2144
20221W        W37068  13.224   6.549  11.887 -0.2161  0.0784  0.0352
20222W        W37069   0.704   6.268   1.220  0.0933 -0.0472  0.1024
20223W        W37070  14.553  13.373   5.448 -0.1132 -0.0573  0.1673
20224W        W37071  12.186  15.765   1.805 -0.1595  0.2460  0.1341
20225W        W37072  15.364   9.268   1.438 -0.3335 -0.0987 -0.2584
20226W        W37073   5.985   1.051  16.499 -0.2219 -0.1045 -0.2502
20227W        W37074   1.180   6.941   0.815 -0.1099  0.0849 -0.3865
20228W        W37075  16.762   8.318  13.140  0.3937 -0.0023 -0.1003
20229W        W37076  17.766  14.145  14.905  0.2338  0.1518 -0.2931
20230W        W37077  10.586   8.524   3.929  0.0232 -0.4348 -0.0082
20231W        W37078  14.020  13.983  15.326  0.1004 -0.2881  0.0367
20232W        W37079   7.781  10.179   2.174 -0.3035 -0.1012  0.1294
20233W        W37080   2.724  16.364  15.334 -0.0179 -0.0747  0.1111
20234W        W37081  13.934   5.836   5.067  0.1257  0.0713 -0.1547
20235W        W37082   6.017   5.639   0.067 -0.3083  0.1384  0.1062
20236W        W37083  10.647   3.506  12.003 -0.0415 -0.0527  0.1301
20237W        W37084   1.761   1.839  16.680 -0.1149 -0.1419  0.0606
20238W        W37085   6.878  12.437   2.001  0.0090 -0.2657  0.2187
20239W        W37086   4.375   4.168  12.571  0.0209 -0.3455  0.1379
20240W        W37087   2.450   0.602   1.404  0.1365 -0.1185 -0.3017
20241W        W37088  15.638   4.358  12.120 -0.1320  0.1592  0.4692
20242W        W37089   4.907  10.083  15.471 -0.4305 -0.1435 -0.5331
20243W        W37090  15.550  11.833   5.930 -0.2431  0.0456  0.0803
20244W        W37091   7.683  14.150   0.687 -0.1673 -0.0332 -0.0607
20245W        W37092  14.142   3.420  15.201  0.1611 -0.1980  0.2932
20246W        W37093   2.003  17.562  14.464  0.0084  0.1761 -0.0310
20247W        W37094  17.694   6.597  12.563 -0.1419 -0.0323 -0.2384
20248W        W37095   4.082  17.618  16.299 -0.3821 -0.1913  0.0400
20249W        W37096   0.207   2.895   5.474  0.2357 -0.1045 -0.1395
20250W        W37097   5.050   1.438  16.522 -0.1718  0.0534 -0.0165
20251W        W37098   2.962   7.444   5.138  0.1170  0.1221  0.1172
20252W        W37099  15.077   1.535   2.949 -0.4121 -0.1588 -0.3226
20253W        W37100  15.330  13.414   1.561 -0.2106  0.0560  0.0972
20254W        W37101   3.236  11.756  12.762  0.1045 -0.0675  0.0301
20255W        W37102  14.485   1.000   4.408  0.2390  0.1615 -0.1573
20256W        W37103  16.761  16.910  15.430 -0.0823 -0.1630  0.2562
20257W        W37104   9.520   0.361  14.779 -0.0863  0.2749  0.3332
20258W        W37105   2.850  17.714  12.425 -0.0272 -0.3330 -0.0975
20259W        W37106  16.902   8.886  16.318  0.1496  0.0359  0.0340
20260W        W37107  16.661   4.766   0.870 -0.0789 -0.4058 -0.1901
20261W        W37108  11.284   3.812  13.310 -0.0310 -0.0505  0.1922
20262W        W37109   0.851  12.861   0.784 -0.2003  0.1696  0.0449
20263W        W37110   8.361  15.757   1.622  0.1849  0.1233 -0.0030
20264W        W37111  10.821  14.438  15.094 -0.0427 -0.2154  0.0010
20265W        W37112   9.847  10.890   1.984  0.1066 -0.0952  0.2022
20266W        W37113   0.058   6.464   3.605 -0.0438  0.0607 -0.1494
20267W        W37114  13.918  17.268  12.341 -0.2098 -0.2170  0.1470
20268W        W37115   7.635   4.367   0.497  0.0412 -0.0328 -0.0528
20269W        W37116  11.027  16.746  14.061 -0.0990 -0.0633  0.0152
20270W        W37117   2.759   4.874   3.908  0.0311  0.0213 -0.1520
20271W        W37118   8.905  16.866  15.346 -0.0316  0.1271 -0.0116
20272W        W37119  11.046  14.196  16.686  0.0542  0.1458  0.0312
20273W        W37120  10.087  15.181   2.025  0.0124 -0.0142 -0.0935
20274W        W37121   9.565   9.857   5.909  0.0403  0.0963  0.0308
20275W        W37122   9.603   4.582   2.129  0.1845  0.0061 -0.0795
20276W        W37123  11.240  15.546  16.635 -0.0155  0.0100 -0.0756
20277W        W37124   2.586  12.809  12.749 -0.2130  0.1207  0.3112
20278W        W37125   5.890   8.563  13.508  0.2029  0.0760 -0.2875
20279W        W37126   5.755   6.308  16.633 -0.2281  0.1386 -0.2259
20280W        W37127   5.118   3.465   5.151 -0.0647  0.2956 -0.1231
20281W        W37128  16.173  13.482   2.680  0.1635 -0.0902  0.0651
20282W        W37129   4.977  11.051   6.534 -0.0697 -0.4184 -0.1036
20283W        W37130   7.709  17.069  15.369 -0.3967 -0.1469 -0.0223
20284W        W37131  16.445  16.169  15.869 -0.0748  0.0651 -0.1009
20285W        W37132  13.810   0.016   2.145  0.1556 -0.1466 -0.1824
20286W        W37133   7.035   6.172  14.730 -0.1104  0.1943 -0.2186
20287W        W37134  17.250  15.242   5.146  0.1356  0.0396 -0.4762
20288W        W37135  12.022   5.749  13.613  0.0571  0.0372 -0.3014
20289W        W37136   9.962  11.914   5.344 -0.1025  0.1765 -0.0635
20290W        W37137  14.032  14.351  15.970  0.2367 -0.1180 -0.0064
20291W        W37138   9.852  10.483  14.679 -0.0230 -0.2002  0.1526
20292W        W37139   1.379   2.508  12.506 -0.1940  0.1436 -0.0232
20293W        W37140   3.733  13.620   1.186 -0.0078 -0.0546  0.0535
20294W        W37141  13.966   5.674   1.477 -0.3793 -0.0040 -0.1089
20295W        W37142  17.645   8.698   2.096 -0.4067  0.2117 -0.2228
20296W        W37143   2.489  16.775   1.402 -0.2022 -0.4250  0.0552
20297W        W37144   3.509   1.776   0.436 -0.5150 -0.3731  0.0859
20298W        W37145   1.874   0.984   5.427 -0.0860  0.2743  0.0141
20299W        W37146   3.552   7.748   0.915  0.0616  0.0499 -0.0336
20300W        W37147   1.887   3.502  14.983 -0.0246  0.0520 -0.2640
20301W        W37148  17.057   6.879   3.296  0.2195  0.0365  0.2983
20302W        W37149  15.408  15.088   5.325 -0.1308 -0.0978 -0.2435
20303W        W37150   9.912   7.617   4.960  0.4303 -0.3068 -0.0112
20304W        W37151   7.358   4.354   1.468 -0.0540 -0.0715  0.2537
20305W        W37152   4.436  10.411  14.832 -0.0034 -0.1117  0.2371
20306W        W37153   1.534  14.934  15.409  0.0518 -0.0919 -0.0220
20307W        W37154   3.615   1.032   1.088 -0.0554 -0.0991 -0.0449
20308W        W37155   6.270   6.577   2.877  0.0718  0.2427 -0.1398
20309W        W37156   7.160   7.249   5.631 -0.0770  0.2154  0.0499
20310W        W37157  10.856  16.471  16.270  0.2271  0.0319 -0.0067
20311W        W37158   7.965   2.564  16.220 -0.1050 -0.1098 -0.1461
20312W        W37159   3.721   5.499   4.060  0.1946 -0.1143 -0.1039
20313W        W37160   6.624   7.933   5.639 -0.2684 -0.3177  0.1248
20314W        W37161  10.970   7.864  15.685  0.2949 -0.2423 -0.1643
20315W        W37162   2.842   2.840  16.639 -0.0864  0.0569  0.1129
20316W        W37163   8.120  14.970   2.736  0.2742 -0.1203 -0.0012
20317W        W37164  15.197   1.818   5.115 -0.0479  0.1123  0.0230
20318W        W37165   2.306   2.546   3.311  0.0657 -0.0800 -0.2693
20319W        W37166  15.551   7.254  12.286 -0.1268 -0.1195  0.1971
20320W        W37167  12.344  17.200  16.282  0.2529 -0.1556  0.2972
20321W        W37168  12.907   2.252  16.047 -0.0141 -0.0360  0.0045
20322W        W37169   9.151   3.375  11.406  0.2456 -0.1449 -0.1612
20323W        W37170   6.855   7.481  15.834 -0.0358  0.2282 -0.0443
20324W        W37171   9.530  14.428   4.093 -0.0443  0.1801  0.2564
20325W        W37172   9.728   8.477  14.507  0.1314 -0.3394  0.0245
20326W        W37173  13.887   2.576  12.264  0.0492  0.2583 -0.1972
20327W        W37174  11.911  16.039   4.381 -0.0326 -0.0259  0.0014
20328W        W37175  12.882  12.703   3.537  0.0170  0.0534 -0.2431
20329W        W37176  13.761  12.108  14.234 -0.0093 -0.1754 -0.0704
20330W        W37177   4.198   6.689  12.450 -0.0183  0.1332 -0.3631
20331W        W37178   6.316   6.843  12.545 -0.0583  0.2097  0.1790
20332W        W37179   5.929   5.225   0.390  0.0364 -0.1248 -0.1977
20333W        W37180   7.490   7.817   5.866  0.0584  0.1384  0.0511
20334W        W37181  16.942   7.592  15.977 -0.0570 -0.2794  0.0172
20335W        W37182  17.314  12.028  13.537  0.2349 -0.0580 -0.0155
20336W        W37183   3.885  16.984   2.812  0.1001  0.0189 -0.1579
20337W        W37184  13.221  13.822   4.292 -0.0480 -0.2568  0.1731
20338W        W37185  15.698  11.380   0.068  0.1004 -0.2087  0.0417
20339W        W37186  12.961   7.120  14.214  0.0897 -0.0187 -0.1243
20340W        W37187   1.260   5.935   1.174  0.0245  0.2574 -0.0799
20341W        W37188   5.912   2.058   3.811 -0.0855 -0.2219 -0.0014
20342W        W37189   0.111   0.135   3.286  0.0316 -0.2661 -0.2019
20343W        W37190   2.108  10.900  12.122 -0.0538  0.0614  0.0890
20344W        W37191   6.516   7.559  16.261  0.0393 -0.1824 -0.0760
20345W        W37192   2.387   9.454   6.252  0.2743 -0.2117  0.1322
20346W        W37193  16.303   7.080  16.272  0.0487  0.2191  0.0660
20347W        W37194  17.418  13.726   5.898 -0.0146 -0.1302 -0.0229
20348W        W37195   6.549   9.911   3.645  0.1059 -0.2453 -0.1822
20349W        W37196   2.528  10.767  16.777  0.1774  0.2378 -0.2737
20350W        W37197   0.854  13.385   2.783 -0.0226  0.0392  0.1443
20351W        W37198  17.523   5.882   1.381  0.3231  0.2619  0.2255
20352W        W37199  14.686   8.569  12.382  0.1196 -0.0913  0.0542
20353W        W37200  11.100   5.077   0.773 -0.0306  0.1942 -0.0543
20354W        W37201  14.057   3.486  12.739  0.1138  0.0391 -0.1843
20355W        W37202  13.541   4.754  14.968  0.2946 -0.2823 -0.0284
20356W        W37203   8.685  12.883   6.311  0.1553 -0.1615 -0.1812
20357W        W37204  16.075  10.615   5.530 -0.1089  0.3157  0.0669
20358W        W37205   9.410   0.833  16.681  0.0955  0.3438 -0.3492
20359W        W37206  11.918   7.723   5.278  0.0542 -0.1148  0.0215
20360W        W37207   0.261  11.311  15.672  0.2982  0.1634  0.1740
20361W        W37208  11.512   9.127  15.010  0.1638  0.2122 -0.1508
20362W        W37209  10.235  17.909  12.658 -0.1879  0.1374 -0.2353
20363W        W37210   0.132   6.663  11.902 -0.0129  0.0195  0.2525
20364W        W37211  14.918  12.837   5.541 -0.1086  0.0733  0.1297
20365W        W37212   4.408  11.045   3.107  0.1757  0.0904 -0.1732
20366W        W37213   9.908   7.644  12.343  0.0753 -0.1912 -0.3281
20367W        W37214   8.403   8.850   2.618 -0.0310  0.2438  0.1325
20368W        W37215   6.514   6.539   3.878  0.5358  0.1042  0.0220
20369W        W37216   5.698  16.099  12.611  0.1618 -0.1836  0.2244
20370W        W37217   3.870  12.900   4.459 -0.1382  0.2591  0.3381
20371W        W37218   9.862  17.503   2.454 -0.1463 -0.0011  0.1961
20372W        W37219  13.822   9.778   5.113  0.5488  0.1920 -0.1628
20373W        W37220  11.695   7.368   4.951  0.0228  0.0458 -0.1350
20374W        W37221  11.371  15.762   1.725  0.1371 -0.1076 -0.1085
20375W        W37222   1.144   1.826  11.419 -0.0248  0.2486  0.1350
20376W        W37223  14.758  12.454   5.794 -0.1343  0.0547  0.1220
20377W        W37224   2.458  11.532   4.629 -0.3050  0.1761 -0.0458
20378W        W37225   1.995   9.020  12.454  0.1133  0.0213  0.2798
20379W        W37226   0.639   1.385  16.444  0.1869 -0.0702 -0.5077
20380W        W37227   3.050  16.393   5.247 -0.0893 -0.0917  0.1257
20381W        W37228   6.492   7.433   1.682 -0.1527 -0.0022 -0.4182
20382W        W37229   5.994   8.284  12.645  0.2446 -0.0421 -0.0752
20383W        W37230   7.826  14.555   5.516  0.2798  0.0143 -0.3954
20384W        W37231  14.725  12.496   0.631 -0.2407 -0.0919 -0.1596
20385W        W37232   1.319  14.899   2.147  0.2327 -0.1179 -0.1186
20386W        W37233  17.589  13.437   2.902 -0.2929  0.0551 -0.1230
20387W        W37234   8.880  15.331   3.019 -0.0984  0.2031  0.0591
20388W        W37235   4.737   4.962  13.851 -0.0692 -0.2969 -0.1128
20389W        W37236   3.904  15.254  11.676 -0.0903 -0.1100 -0.2638
20390W        W37237  14.550  10.124   2.528 -0.1157  0.2414  0.1887
20391W        W37238  14.504   1.648  13.552  0.0180  0.1506  0.2746
20392W        W37239  12.157  12.568   3.082 -0.1648 -0.0169 -0.4448
20393W        W37240   9.173  15.451   4.412 -0.1199 -0.2661 -0.1840
20394W        W37241   7.248   6.448   5.657  0.1481 -0.2296  0.0136
20395W        W37242   1.445   0.449  14.118 -0.0133  0.0788 -0.0922
20396W        W37243  10.741   8.636   4.422  0.0391 -0.3022  0.1093
20397W        W37244  16.007   5.453  16.349 -0.0922 -0.2548 -0.2762
20398W        W37245  11.216  12.662   6.344  0.0351  0.0303 -0.0893
20399W        W37246  12.928   7.441   3.542 -0.2158 -0.2003 -0.2455
20400W        W37247   7.223  14.907   3.091  0.3081  0.0291  0.2606
20401W        W37248   6.422  10.414  16.586 -0.1123  0.1233 -0.1131
20402W        W37249   5.450  16.455   1.911 -0.2028 -0.2225 -0.1204
20403W        W37250  14.443   0.925  12.893 -0.1788 -0.1080  0.0116
20404W        W37251   0.201   2.960  13.289  0.0362  0.2451 -0.0060
20405W        W37252   5.210   0.089  13.520 -0.1602  0.2084 -0.2326
20406W        W37253  13.843  16.491  12.164 -0.0677  0.2681  0.0073
20407W        W37254  10.914  11.104   5.425  0.0074  0.0397 -0.1415
20408W        W37255   9.719   4.731   0.657 -0.3175 -0.1660  0.1614
20409W        W37256   6.398   1.106   1.188  0.1711  0.0912  0.1120
20410W        W37257  11.354  17.111   3.843  0.2716  0.0799  0.0865
20411W        W37258  12.967  12.092  13.556  0.0109 -0.0021 -0.0914
20412W        W37259  14.854   4.352   5.825 -0.1426 -0.0135 -0.1233
20413W        W37260   8.182   8.055   4.581  0.2614 -0.5552  0.0168
20414W        W37261  10.315   7.229   5.680 -0.1381 -0.1999 -0.0862
20415W        W37262  15.086   1.666  13.078 -0.3259 -0.2074  0.1492
20416W        W37263  10.201   0.188   3.924 -0.1627 -0.0986  0.1077
20417W        W37264   4.309  14.759  16.656  0.0734 -0.0008  0.1248
20418W        W37265   1.859   5.174   5.210 -0.2420 -0.0685 -0.0386
20419W        W37266  11.809  16.366  16.476  0.2173  0.4241 -0.1565
20420W        W37267  11.201   2.341  15.268 -0.1214  0.2029 -0.3866
20421W        W37268   0.236   0.186   1.797 -0.1288  0.0305  0.0657
20422W        W37269  10.128   3.386  15.810 -0.2306  0.2917  0.3213
20423W        W37270   3.013  15.495  13.350 -0.0279 -0.1558  0.0876
20424W        W37271   1.394   3.980  15.510 -0.0172 -0.2306  0.2088
20425W        W37272   6.967   8.929  13.532  0.0225 -0.0171 -0.5447
20426W        W37273  14.014   8.917   1.540 -0.0252  0.1636 -0.0802
20427W        W37274   8.810  12.251   1.534 -0.0414 -0.0605  0.0294
20428W        W37275  16.768   8.234  15.510  0.1850  0.2041 -0.0190
20429W        W37276   9.291  12.830  12.834  0.2008  0.0424 -0.1885
20430W        W37277  10.172   1.815   1.167 -0.0136  0.0099  0.0899
20431W        W37278   9.712   2.303  12.864  0.1072 -0.1090  0.1283
20432W        W37279   2.849   2.372   4.559  0.1634  0.1384 -0.3720
20433W        W37280  13.265   7.817   2.866 -0.2468 -0.1040 -0.1376
20434W        W37281   8.587   5.847   3.906  0.3268 -0.0583 -0.1253
20435W        W37282  12.803   3.353   2.380  0.0342 -0.1134  0.3601
20436W        W37283  13.786  14.321   5.624  0.0852 -0.1246  0.3944
20437W        W37284   3.959  16.127   5.303  0.0084  0.3543 -0.0024
20438W        W37285  13.132  14.102   0.935  0.2109  0.0840 -0.0086
20439W        W37286  12.392  12.025  13.801  0.2834 -0.3943  0.0123
20440W        W37287  13.601   3.910   3.053  0.1858  0.2905  0.1243
20441W        W37288  12.596   4.969   2.215 -0.0456 -0.2747  0.1546
20442W        W37289   1.967   4.242   1.486  0.0325 -0.1561 -0.0914
20443W        W37290  12.949  12.039   5.446  0.2108 -0.0844 -0.2537
20444W        W37291  10.273  15.282   0.679  0.0996  0.1890  0.4269
20445W        W37292   9.999  10.273  15.496 -0.2007  0.0965  0.4362
20446W        W37293   6.257   1.286   1.643 -0.2845  0.3230  0.1054
20447W        W37294   0.395  11.318   1.595  0.1276  0.0318 -0.3180
20448W        W37295  14.226  13.946   4.137 -0.1066 -0.0463  0.0206
20449W        W37296  12.741  11.086   5.663  0.0368 -0.0198 -0.0235
20450W        W37297   4.856   0.756   3.588 -0.1510  0.1123 -0.2147
20451W        W37298   9.693  10.967   4.240 -0.2432  0.0416  0.1283
20452W        W37299  16.191  12.099  16.203  0.0034 -0.2935 -0.0466
20453W        W37300   4.692  12.771  16.701 -0.1020  0.1027  0.2567
20454W        W37301   7.884   4.285   1.492 -0.0824 -0.1450 -0.0249
20455W        W37302  17.427  17.753  16.223  0.1021 -0.0675 -0.0829
20456W        W37303  10.141  15.110  14.887 -0.0541  0.2528  0.0376
20457W        W37304   8.083   7.050  16.064 -0.0083  0.1184 -0.1442
20458W        W37305   5.235  17.012   4.720 -0.0542  0.1321  0.0220
20459W        W37306  16.871  14.630   2.597 -0.0864 -0.0778 -0.0660
20460W        W37307  11.497  16.782   3.184  0.2269  0.0720  0.1417
20461W        W37308   9.304   4.661  13.368 -0.0983 -0.0677  0.2743
20462W        W37309  15.126  10.130   5.480 -0.3437 -0.2448 -0.1139
20463W        W37310  10.403  15.908  14.225  0.3536 -0.2253  0.1692
20464W        W37311   5.667   2.312   5.043 -0.1162  0.0819  0.0483
20465W        W37312   7.394   2.118   5.448  0.1963 -0.2931 -0.0434
20466W        W37313  17.232   4.424  16.784  0.0084  0.1142 -0.0420
20467W        W37314   5.873   5.141  13.071  0.0132 -0.1872 -0.0280
20468W        W37315  13.330  13.829   1.730  0.2626  0.1210 -0.2012
20469W        W37316  10.726  13.882   1.509 -0.0415 -0.0506  0.0155
20470W        W37317  16.325  16.990   4.202  0.1106 -0.1487 -0.2228
20471W        W37318   0.467   2.009   0.893  0.1643  0.3218 -0.4662
20472W        W37319  12.153  15.531   3.058 -0.0707  0.2119  0.0071
20473W        W37320  12.123   8.530   4.943  0.2696 -0.1686  0.4575
20474W        W37321  14.751  15.882  16.772 -0.0221  0.1438 -0.2117
20475W        W37322   9.047  12.349  12.832 -0.0522  0.2072  0.3109
20476W        W37323  11.841  17.297  14.216  0.0323  0.2272  0.3669
20477W        W37324  16.543  13.998   4.348 -0.1674 -0.2255 -0.0352
20478W        W37325   5.891   7.125  13.322 -0.0481  0.0328 -0.0381
20479W        W37326   4.754   0.971  15.166 -0.1657 -0.1786  0.0013
20480W        W37327  12.766   6.042  14.861 -0.4666  0.1003  0.1918
20481W        W37328  11.514  14.318   3.385 -0.1972 -0.0845 -0.1061
20482W        W37329   7.817  12.077   5.680  0.2393  0.0585  0.3585
20483W        W37330   5.627   6.336  12.342  0.2542 -0.2282 -0.0326
20484W        W37331  13.592  13.134   2.417  0.1061 -0.1056 -0.0907
20485W        W37332   1.618  13.824   2.053 -0.1256  0.1963  0.0198
20486W        W37333   7.251   4.938  12.590 -0.1331  0.0050 -0.2994
20487W        W37334  12.484   1.157  15.204 -0.0351 -0.0186  0.1908
20488W        W37335   2.101  14.796  12.149 -0.1587  0.1331 -0.3615
20489W        W37336   1.262  10.582   1.596  0.1422 -0.0407  0.1892
20490W        W37337   6.653   8.168  13.084  0.3495  0.0489 -0.0712
20491W        W37338   8.267  16.516   4.857 -0.1650 -0.2649  0.1459
20492W        W37339  10.015  17.184  15.183  0.0646 -0.1339 -0.2014
20493W        W37340   5.736   6.392   4.023 -0.2042 -0.0739 -0.4165
20494W        W37341  14.427   2.952   1.080  0.4829 -0.3602 -0.1897
20495W        W37342   7.442   6.249  13.188  0.1561 -0.0019  0.0174
20496W        W37343  13.817   8.479   0.450 -0.1162 -0.0296 -0.1339
20497W        W37344  16.710   8.833  13.253  0.0121 -0.3652 -0.2864
20498W        W37345   3.027  10.704  10.728  0.2321 -0.1153 -0.2919
20499W        W37346  14.635   4.072   4.833  0.0848 -0.2396  0.1570
20500W        W37347  10.018   8.482   0.954  0.0309  0.1117  0.0516
20501W        W37348   2.025   1.743   2.892  0.0801 -0.1078 -0.0428
20502W        W37349   3.511   7.262   1.043 -0.0460  0.0793 -0.1171
20503W        W37350  16.509  14.834  15.913 -0.2255  0.1127 -0.0372
20504W        W37351   0.996  12.284   1.390 -0.1713 -0.0352 -0.0613
20505W        W37352  12.712   5.185   0.846 -0.1923 -0.3112  0.0590
20506W        W37353   8.968   6.403   4.531  0.1544  0.2176  0.2766
20507W        W37354   6.281  17.466  15.917 -0.1968 -0.2213 -0.2167
20508W        W37355  12.429  16.204  12.959  0.0579 -0.0738 -0.0179
20509W        W37356   0.070  15.031   1.913 -0.0095 -0.1965  0.1275
20510W        W37357  11.957   7.058   0.798  0.2053 -0.0518 -0.0651
20511W        W37358   8.593   3.901  14.039  0.2092  0.2218  0.4181
20512W        W37359   3.815  11.981   4.577  0.2174 -0.1955 -0.0082
20513W        W37360   1.622  14.980   3.161  0.2604  0.4134 -0.0450
20514W        W37361   1.945  17.208   0.189 -0.3125 -0.0951  0.2429
20515W        W37362   9.466   1.715   5.946 -0.3044  0.0065  0.0535
20516W        W37363  16.193   8.663  15.939  0.3472  0.1057  0.2728
20517W        W37364   1.332   7.645   3.831 -0.0950  0.2178 -0.2443
20518W        W37365   5.235  10.659   1.261  0.0653  0.3677 -0.2508
20519W        W37366   0.145   4.163  13.303  0.0059 -0.0217 -0.0694
20520W        W37367  16.122   2.639  14.152  0.0756  0.1665  0.2934
20521W        W37368   9.731   4.302   1.629  0.0010  0.0755 -0.0018
20522W        W37369   2.416  13.151   1.288 -0.0176  0.0440  0.0157
20523W        W37370  10.249   0.679  15.231 -0.0538 -0.0548  0.0821
20524W        W37371  10.609  16.667   4.169 -0.0690  0.0867 -0.2122
20525W        W37372   8.146  11.188   5.235  0.1385  0.1246 -0.0671
20526W        W37373  15.820   3.636  13.845 -0.0665  0.0266  0.0146
20527W        W37374   8.506  14.086   1.711 -0.0569 -0.0449  0.1429
20528W        W37375   4.205  10.494   6.063  0.1147 -0.1600  0.0541
20529W        W37376  11.821   1.461  15.348  0.3317 -0.2047 -0.0487
20530W        W37377   0.510  11.871   0.659 -0.0431 -0.3927 -0.3783
20531W        W37378   7.694  11.086   5.490 -0.1138 -0.1526 -0.1554
20532W        W37379   3.577  10.863   5.384  0.0707 -0.0045  0.2638
20533W        W37380   4.664   8.095  13.617  0.2695  0.1561 -0.0343
20534W        W37381  17.704  17.114  15.334 -0.2305 -0.1239 -0.4346
20535W        W37382   4.111   3.681   5.145  0.3286  0.0969 -0.2291
20536W        W37383  16.835   3.688  12.573  0.1810 -0.1547 -0.3176
20537W        W37384   5.374  10.049  13.105 -0.0634  0.1595  0.0069
20538W        W37385   7.294  17.527   5.954 -0.1013 -0.2516  0.0628
20539W        W37386   0.554  11.049  14.782  0.1404  0.1122 -0.0898
20540W        W37387   3.179   5.660  13.769  0.2888 -0.3852  0.1459
20541W        W37388  17.779   4.657   0.860 -0.0118 -0.0705  0.1624
20542W        W37389   9.259  10.086  13.052 -0.2308 -0.0274  0.0447
20543W        W37390   3.182  16.712  13.160 -0.1377 -0.2469 -0.1338
20544W        W37391   9.741   4.666  13.086  0.1449  0.0062 -0.0840
20545W        W37392   2.516   1.041   3.531 -0.0921 -0.3269 -0.2612
20546W        W37393   5.941   6.555   0.285 -0.1758  0.0621 -0.0437
20547W        W37394   1.960   7.031   3.117 -0.1823  0.1828 -0.0938
20548W        W37395  13.595   8.074   4.913 -0.0285 -0.0329 -0.1194
20549W        W37396  11.547   8.838  12.315  0.0519  0.1015  0.0921
20550W        W37397  14.676   9.952   0.680 -0.2317 -0.2035 -0.0362
20551W        W37398   0.789   4.100   3.604  0.2770 -0.1081 -0.0805
20552W        W37399  14.849  13.013  15.351 -0.0533 -0.0980 -0.0006
20553W        W37400   3.964   8.941  11.755  0.1181  0.0720 -0.4760
20554W        W37401   8.972  12.273   2.031 -0.1507 -0.2407  0.1285
20555W        W37402  13.131  10.637  15.179 -0.1551 -0.1041  0.1498
20556W        W37403  10.841   1.432   0.513  0.0233  0.1199 -0.2382
20557W        W37404  16.827  11.452   1.627 -0.2443  0.1846 -0.1461
20558W        W37405   2.765  15.049   2.099 -0.0509  0.0611  0.0999
20559W        W37406   9.022   0.069   6.230 -0.2760 -0.2388  0.0907
20560W        W37407   7.116  13.283   4.956  0.0633  0.3828  0.1738
20561W        W37408   3.324  15.125  12.507 -0.1748 -0.0137 -0.2528
20562W        W37409  17.571   0.120  14.275 -0.1704 -0.0326  0.5167
20563W        W37410   8.439   7.074   0.292  0.0133 -0.2913 -0.1282
20564W        W37411  14.290  14.196  14.044 -0.0793  0.1625 -0.2367
20565W        W37412   3.046   4.211   1.397  0.2013 -0.0249 -0.0851
20566W        W37413  14.632  10.174   5.346  0.2112  0.0167 -0.4741
20567W        W37414   9.457   1.101   0.903 -0.2503  0.1712  0.0013
20568W        W37415   9.539  10.544   4.420  0.0241 -0.2150  0.0976
20569W        W37416   1.644   1.609  11.343  0.1036  0.0250 -0.0002
20570W        W37417   9.283  15.077  15.209 -0.0328  0.1115  0.2251
20571W        W37418   2.317  17.468   0.376 -0.0075  0.1290  0.0049
20572W        W37419   9.084   8.905  13.172  0.4487 -0.2875  0.1077
20573W        W37420   4.279  17.009  13.937 -0.1810  0.1295 -0.0753
20574W        W37421   6.883   3.488  12.775  0.0624  0.0650  0.1013
20575W        W37422   9.139   6.388  14.680  0.1233  0.1195  0.0029
20576W        W37423  12.004  10.812   4.536  0.0855 -0.2569 -0.0902
20577W        W37424   4.093  15.821   2.217 -0.1936  0.0329  0.2194
20578W        W37425   6.645  14.095   1.712 -0.1437  0.0580 -0.1700
20579W        W37426   0.246  13.775   5.064  0.4657 -0.1889  0.0989
20580W        W37427   8.788  15.910   5.265  0.1377 -0.1498 -0.2749
20581W        W37428   3.856  15.810   3.377 -0.0810 -0.0525  0.5543
20582W        W37429   9.077   7.664  14.225 -0.0125  0.0846  0.3873
20583W        W37430   2.029  11.592   3.292 -0.0761 -0.0114 -0.0370
20584W        W37431   7.604   0.163   0.262  0.2480 -0.1726  0.0341
20585W        W37432   8.636   2.255  13.666  0.1328  0.2264  0.3242
20586W        W37433   2.773   7.815   5.380 -0.1194 -0.1497  0.0806
20587W        W37434   3.422  10.821   4.037  0.0208  0.0525  0.1005
20588W        W37435  10.111  14.485  15.498  0.1851  0.0105 -0.1110
20589W        W37436  15.201   3.095   0.049 -0.4048 -0.0495 -0.2081
20590W        W37437   3.695   7.793  14.054  0.0217  0.0431 -0.0812
20591W        W37438   2.237   3.346  14.628 -0.1154 -0.3110  0.0411
20592W        W37439   1.867  13.266   4.793 -0.0569 -0.0287 -0.1852
20593W        W37440   8.826   5.041  15.881  0.3436  0.0571 -0.1652
20594W        W37441  13.098   8.359  15.031 -0.1105 -0.1478  0.0230
20595W        W37442   9.206   8.617   3.131  0.1463  0.2000 -0.1278
20596W        W37443   6.078  10.755  16.798 -0.1509 -0.0367 -0.0584
20597W        W37444  16.209   2.364  16.525 -0.0027 -0.1178  0.3698
20598W        W37445  10.758   8.577  13.406  0.0757  0.0288 -0.1048
20599W        W37446   9.415   6.819   1.867 -0.1312  0.2992 -0.0600
20600W        W37447   5.767   3.298  16.184  0.1426  0.0646  0.1781
20601W        W37448  13.716  17.499   2.141 -0.0780  0.1145 -0.1901
20602W        W37449  11.802  15.544  13.011 -0.0257  0.1037  0.3254
20603W        W37450  14.826   3.890  16.263 -0.0403  0.2461  0.0781
20604W        W37451  17.743  16.173  15.477  0.3298  0.1261  0.4041
20605W        W37452  10.754   3.134  14.879 -0.1725 -0.1590 -0.1007
20606W        W37453   8.482  11.722   0.528 -0.0372 -0.1091 -0.2970
20607W        W37454  13.692  12.434   1.886 -0.2528  0.1377  0.2526
20608W        W37455  16.502  13.010   5.354 -0.2173  0.0785  0.1802
20609W        W37456  16.356  15.893   2.237 -0.1245 -0.1663  0.2971
20610W        W37457   1.557   9.654   3.159 -0.0793 -0.0016 -0.1219
20611W        W37458   9.019  15.576  13.224 -0.1189 -0.0499  0.1573
20612W        W37459   1.229  15.305  12.623  0.0566 -0.2161  0.3706
20613W        W37460   6.410  11.970  15.399  0.0917  0.1139  0.2097
20614W        W37461   7.142   1.905  14.614 -0.3472  0.0124  0.3407
20615W        W37462  11.378   0.048   5.079  0.1795 -0.2191 -0.0852
20616W        W37463   0.768   1.183   2.592 -0.1692  0.0612 -0.0310
20617W        W37464  16.559   6.457   5.598 -0.2310 -0.0346  0.1561
20618W        W37465   5.835  14.594  13.882 -0.1289  0.2941 -0.2195
20619W        W37466  12.526   0.246  16.227  0.0070  0.1219  0.2179
20620W        W37467  14.084   0.342  16.087  0.4864 -0.2863 -0.1325
20621W        W37468  15.428  10.571  15.493  0.1076 -0.3424 -0.0197
20622W        W37469   8.652   4.310  12.859 -0.1885  0.1185 -0.1970
20623W        W37470  16.860   3.267  11.419  0.1485 -0.0419 -0.2271
20624W        W37471  11.695  15.344  12.166  0.2358 -0.1532 -0.4393
20625W        W37472   6.104   3.082  16.549  0.3908  0.1003 -0.3803
20626W        W37473  15.224   3.581  13.035 -0.3241 -0.0617 -0.2148
20627W        W37474  13.823   8.013  13.840 -0.1467 -0.1001  0.3555
20628W        W37475   0.763  15.647   5.250 -0.3709 -0.0403  0.1888
20629W        W37476  12.832   4.282  13.094  0.1300  0.1297 -0.1695
20630W        W37477   9.778  12.389   1.551  0.2224  0.1439 -0.1509
20631W        W37478   0.454  13.865   3.800 -0.0338 -0.0269  0.2508
20632W        W37479   1.147   5.423  14.037  0.1950 -0.2374 -0.3127
20633W        W37480  17.641   0.368   0.328  0.0344 -0.1208 -0.1777
20634W        W37481   8.856   4.818   0.858  0.2775 -0.3250 -0.0298
20635W        W37482   8.027   6.508   2.048  0.4673  0.0658  0.1531
20636W        W37483   6.762   6.104  15.670  0.0826  0.0327 -0.0317
20637W        W37484   5.746   6.401  15.724  0.2205  0.1752  0.1729
20638W        W37485   4.834  15.250  12.117  0.1616  0.1492 -0.1116
20639W        W37486  16.286  13.684   0.550 -0.1482  0.2179 -0.1830
20640W        W37487   8.093   6.237   0.665 -0.2982  0.5265  0.5157
20641W        W37488  12.500   1.281  12.427  0.0196 -0.1381 -0.0296
20642W        W37489   9.243  10.175   3.834  0.6485 -0.0230 -0.0245
20643W        W37490  10.745   7.245   2.146  0.0347  0.2086  0.0720
20644W        W37491   6.293   1.106   3.627 -0.0398  0.0069  0.1552
20645W        W37492   9.658   1.006   0.490  0.0158  0.1029  0.1078
20646W        W37493   9.658  17.160   0.235  0.2227 -0.0821 -0.5110
20647W        W37494   9.610   9.943   2.409  0.0678  0.1193  0.0531
20648W        W37495   2.850   8.400  13.530  0.3146 -0.0729 -0.0952
20649W        W37496   8.075   7.617  15.618 -0.0415 -0.2102 -0.0147
20650W        W37497  17.100   2.570   1.202  0.0728  0.0802 -0.2324
20651W        W37498   2.136  17.839  16.205 -0.3597  0.0704 -0.3483
20652W        W37499  16.123  17.738   0.218  0.2968 -0.0321  0.0587
20653W        W37500   1.605   2.696   1.999  0.1271  0.0002  0.0884
20654W        W37501   3.170   5.775  13.277  0.0275  0.0544  0.2677
20655W        W37502  12.842   9.416  15.976 -0.1480  0.1302  0.2543
20656W        W37503   8.778   1.769  12.081 -0.0139  0.0341 -0.1270
20657W        W37504  12.806   2.132  12.476 -0.1362 -0.3383 -0.3270
20658W        W37505   3.439  16.696  12.011  0.0173  0.0647  0.3181
20659W        W37506  15.914   9.555  11.758  0.0226 -0.0397  0.0905
20660W        W37507  15.890   0.676   3.878 -0.0336  0.2157 -0.0851
20661W        W37508   8.083  13.899  16.637 -0.2881 -0.0750  0.0361
20662W        W37509   5.444  13.193  16.572 -0.1515 -0.0790  0.1345
20663W        W37510   1.183  12.615  15.910  0.4293 -0.1344  0.1812
20664W        W37511   0.260  14.077   4.642  0.1579 -0.1572 -0.1435
20665W        W37512  12.264  15.323   3.520 -0.0005  0.0328 -0.1393
20666W        W37513   2.772   9.360  13.518  0.1380  0.1748  0.0433
20667W        W37514   6.750  12.399  13.231  0.0719  0.0732 -0.0828
20668W        W37515  13.838  13.053   5.051 -0.2910  0.0794  0.0605
20669W        W37516   2.750   1.785   3.862 -0.1774 -0.3851  0.0047
20670W        W37517  15.397   4.367   2.649 -0.1253  0.0391  0.2324
20671W        W37518  17.323   2.012   0.454  0.1109  0.2098 -0.2174
20672W        W37519  11.714  11.571   0.689 -0.1060  0.2895 -0.0830
20673W        W37520  11.350   1.476  16.318 -0.1922  0.1397  0.0820
20674W        W37521  15.732   5.318  12.837 -0.0207  0.1104  0.0987
20675W        W37522   4.410  14.062   3.730  0.1519  0.3096  0.2605
20676W        W37523   7.186   0.136  11.732 -0.0804 -0.1935  0.0745
20677W        W37524   9.385   2.220   0.158 -0.1726 -0.0925  0.0514
20678W        W37525   2.094  15.712  13.436 -0.1543  0.1679  0.0955
20679W        W37526   5.760   2.277   5.601  0.0614  0.0318  0.1337
20680W        W37527  11.971  13.214   6.045 -0.1158 -0.2818  0.2503
20681W        W37528  14.715  16.203  12.359 -0.1942  0.1851  0.2505
20682W        W37529   0.809   3.247  12.696 -0.2104  0.0190  0.1543
20683W        W37530   4.130   6.400   2.496 -0.0293 -0.0036  0.1437
20684W        W37531  17.375   2.236  11.421 -0.0972 -0.0811  0.0907
20685W        W37532   1.040   7.280   3.172 -0.2661  0.0957  0.1380
20686W        W37533   3.391   4.329  11.713 -0.0230 -0.2235  0.0007
20687W        W37534   5.614   2.773  14.790 -0.0506  0.0555  0.1095
20688W        W37535  17.349   3.149   5.030 -0.0963 -0.0161  0.0803
20689W        W37536   6.575  15.617  11.778 -0.1045  0.4276 -0.3294
20690W        W37537   6.697   3.623   3.634 -0.0940  0.2316 -0.0413
20691W        W37538   7.004   8.395  14.442  0.2305 -0.0639  0.1745
20692W        W37539   0.168   4.792   0.357 -0.0985 -0.2037 -0.0763
20693W        W37540   8.154   8.798   0.241  0.2967  0.1040 -0.1520
20694W        W37541   5.206   6.054   3.459  0.1496  0.3845  0.0837
20695W        W37542   5.871  16.076  15.386 -0.2887  0.2377  0.0216
20696W        W37543   3.767  16.548  11.690 -0.4171  0.3230 -0.0557
20697W        W37544  14.741   8.806   2.879 -0.1445 -0.0176  0.1727
20698W        W37545   1.709   6.013  13.992 -0.0113  0.0096 -0.0205
20699W        W37546  12.758   9.529  15.506 -0.0427  0.2605  0.0448
20700W        W37547   9.994   6.030  13.077  0.1901 -0.2547 -0.0891
20701W        W37548   7.070   2.424   0.311  0.2093 -0.3235 -0.1775
20702W        W37549  16.510   5.761   5.014  0.1335 -0.0197 -0.0271
20703W        W37550   8.339   1.471   3.713  0.0576 -0.1773 -0.1298
20704W        W37551  14.187   2.358   4.253 -0.3853  0.1102 -0.1911
20705W        W37552  15.457   3.870  16.530  0.3955  0.1632  0.1279
20706W        W37553   8.114  14.043   3.022  0.1125 -0.0611  0.1895
20707W        W37554   8.316  16.898  11.743 -0.1850 -0.0663 -0.2646
20708W        W37555   8.942  15.366  15.383 -0.0652  0.0351 -0.2531
20709W        W37556   1.556  16.275  14.390  0.0384  0.1706 -0.0312
20710W        W37557   7.516  16.718   0.291 -0.1191  0.3710  0.1981
20711W        W37558  11.527   3.506   0.157 -0.1222 -0.2349  0.0524
20712W        W37559  13.480  16.860  16.705 -0.0707  0.0843 -0.0646
20713W        W37560   3.398   9.001  11.877  0.2568  0.3414 -0.0175
20714W        W37561  14.714   3.953  13.143  0.3212  0.1954  0.1508
20715W        W37562   2.647  13.217  12.534 -0.2690 -0.2832  0.0099
20716W        W37563   3.412   0.291   4.672  0.1877 -0.1877 -0.0608
20717W        W37564   0.651  13.606   1.781  0.0969 -0.1561  0.1927
20718W        W37565   0.986  11.365  14.981  0.0865  0.0226  0.2452
20719W        W37566   0.398   8.992   5.318 -0.0887 -0.1400 -0.1334
20720W        W37567   0.434  15.736  13.738  0.1260  0.0391 -0.0918
20721W        W37568   7.375   5.362  15.192  0.1054  0.0792 -0.0880
20722W        W37569   1.340  12.933   5.891 -0.0067  0.3198 -0.0112
20723W        W37570   7.839  11.115  14.667 -0.0386  0.0540 -0.2559
20724W        W37571  10.524   4.518  16.450 -0.0884  0.0863 -0.1640
20725W        W37572   5.418   3.993  12.352 -0.2995 -0.0009 -0.1903
20726W        W37573   9.871  16.368   4.822 -0.0442  0.0908  0.2208
20727W        W37574  13.445   2.447   1.244 -0.0269 -0.0080 -0.3243
20728W        W37575   8.007   5.403  12.649  0.1898  0.0048  0.2203
20729W        W37576  15.776  10.155   0.097  0.0134 -0.1401 -0.2135
20730W        W37577  15.049  13.250   0.738 -0.1282  0.0331  0.0174
20731W        W37578  13.569   1.414   3.993 -0.0738 -0.1150 -0.2282
20732W        W37579  14.411  14.137   0.915  0.0518  0.0632  0.1941
20733W        W37580   5.689   2.301  15.697  0.1454  0.0525 -0.1723
20734W        W37581   3.192  16.501   5.884 -0.0478 -0.1803 -0.0530
20735W        W37582   3.383  10.404  11.673 -0.1322  0.0986 -0.1719
20736W        W37583   5.086  14.492   2.635 -0.1744  0.0693  0.1378
20737W        W37584  15.076   2.203   4.743 -0.0566 -0.1548 -0.1010
20738W        W37585   4.599   8.051  14.638  0.3008  0.0046  0.0450
20739W        W37586   6.319  12.986   0.835 -0.3390  0.0196 -0.3211
20740W        W37587  16.076  17.533   0.674  0.1717  0.0572 -0.1013
20741W        W37588   8.465  15.359  15.061 -0.2463 -0.0073  0.0619
20742W        W37589  14.976   3.455  15.183  0.0114  0.4471  0.1799
20743W        W37590   6.490  14.585  11.857 -0.1528  0.0387 -0.2231
20744W        W37591  12.556  13.637  15.634  0.1107 -0.0081 -0.1419
20745W        W37592   9.452   8.930  12.279  0.0458  0.0937 -0.4959
20746W        W37593   8.110   3.765   4.662 -0.0302 -0.0972 -0.2434
20747W        W37594   8.785   7.255   2.878  0.1539  0.0376  0.2123
20748W        W37595   1.599   9.774  14.292 -0.2389 -0.0466  0.5634
20749W        W37596   6.093  16.710  14.649  0.0759 -0.1436 -0.0518
20750W        W37597   3.829   7.980  16.421 -0.2817 -0.2377  0.1291
20751W        W37598  14.265   4.942   5.088  0.1810 -0.1124  0.0448
20752W        W37599  16.172  16.312   2.040 -0.1751  0.1863  0.1587
20753W        W37600  10.083   5.603  15.414 -0.1599  0.2708  0.2692
20754W        W37601  13.565  10.122   2.039  0.2103 -0.2106  0.0274
20755W        W37602   8.633   6.961   2.299 -0.1454 -0.0202 -0.0670
20756W        W37603   0.492   1.996   4.067 -0.2582 -0.0711  0.1837
20757W        W37604  16.969  11.162  16.477 -0.1108 -0.2463  0.0473
20758W        W37605   1.312   2.548  15.651  0.0116 -0.0691 -0.0551
20759W        W37606   8.011  16.813  15.713 -0.3478 -0.0028 -0.0114
20760W        W37607   6.614  13.997  16.240  0.0511 -0.0565 -0.0520
20761W        W37608   9.368  13.640   2.241 -0.0116 -0.1578 -0.1464
20762W        W37609   4.772   0.885   4.492 -0.2666  0.0880  0.0303
20763W        W37610   9.516   7.232  15.756  0.0790 -0.0838 -0.0510
20764W        W37611  12.068  17.861  15.397 -0.1697 -0.1921  0.1638
20765W        W37612   1.486  14.646  15.979 -0.1299 -0.0025 -0.0856
20766W        W37613   2.859  17.600  11.672 -0.1724  0.0985 -0.2432
20767W        W37614   5.213   5.510   2.647 -0.1080 -0.0728 -0.0155
20768W        W37615   1.708   6.638  12.030  0.0486  0.0936 -0.0010
20769W        W37616   7.611   7.940   3.949 -0.2188 -0.1315 -0.2614
20770W        W37617   8.038   3.989  15.244  0.3888 -0.1027 -0.0410
20771W        W37618   7.431   7.038   4.841  0.0401  0.0990  0.3536
20772W        W37619  11.536  15.232   0.450 -0.2525  0.0935 -0.1182
20773W        W37620   7.270  16.181  11.405 -0.1144  0.1200 -0.1552
20774W        W37621  11.625   6.904  16.310  0.1548 -0.0588  0.0278
20775W        W37622   8.570   6.715  15.830  0.2163  0.0261  0.0953
20776W        W37623   4.605   2.147   1.028  0.2613  0.0825  0.2367
20777W        W37624   2.327  11.688   0.933 -0.0314  0.1309 -0.2219
20778W        W37625   5.619  10.292  16.282  0.1286  0.0763 -0.0241
20779W        W37626  13.615   6.333  12.196 -0.0968 -0.0186 -0.0719
20780W        W37627  11.435  13.090  14.928 -0.0400  0.1908 -0.1550
20781W        W37628   8.784   4.496  13.343  0.1447 -0.2907  0.1422
20782W        W37629   8.618  15.621  13.687 -0.1259  0.0043  0.1365
20783W        W37630   3.453   5.611   4.864 -0.0287  0.2482 -0.0689
20784W        W37631   8.698  15.599   2.456 -0.0642 -0.0900  0.1514
20785W        W37632  13.973   1.307   4.403  0.0823  0.0165  0.3123
20786W        W37633   6.635  10.266  12.518 -0.0353  0.0368  0.0603
20787W        W37634  12.328  13.437   2.030 -0.1637 -0.0706 -0.2659
20788W        W37635  13.119   1.966   5.106  0.1452  0.0386  0.0600
20789W        W37636  12.147  10.987  11.775  0.1081 -0.1835  0.1846
20790W        W37637   1.976   9.495   4.549  0.2202 -0.3466  0.0361
20791W        W37638  12.320   0.541   4.212 -0.2478  0.0057  0.1771
20792W        W37639  12.502   2.768  13.337  0.1674 -0.0816  0.1651
20793W        W37640   7.453  10.962  12.209  0.1194  0.1745 -0.0165
20794W        W37641  17.543   3.911  15.554 -0.0015 -0.1091  0.0716
20795W        W37642  10.456   3.944   4.777  0.0393  0.2074 -0.3341
20796W        W37643   9.821  14.560   0.151  0.0163 -0.0817  0.0482
20797W        W37644   5.268  11.498   6.564  0.2343  0.2674  0.1290
20798W        W37645   3.115  10.996  14.415  0.0016  0.0747 -0.0929
20799W        W37646   0.819  14.402  10.817  0.3208  0.1321 -0.0552
20800W        W37647   6.924   5.715  12.023  0.2480 -0.0131 -0.1111
20801W        W37648  11.059   0.170  16.459  0.0653 -0.1140 -0.0160
20802W        W37649  12.343   2.383   5.320 -0.3787 -0.0552 -0.1075
20803W        W37650   3.301   8.890   3.523  0.0802  0.0399  0.3405
20804W        W37651   3.927   9.050   4.363 -0.0798 -0.1477 -0.4466
20805W        W37652  10.329   1.320   1.095 -0.0306  0.1898  0.2902
20806W        W37653   3.091   7.223   5.928  0.0642 -0.0036 -0.0844
20807W        W37654   5.839   8.686  12.361  0.1312  0.2247 -0.3074
20808W        W37655   2.898   5.249   3.607  0.0007  0.2524 -0.0608
20809W        W37656  17.261  17.008   0.691 -0.0749  0.0761  0.0096
20810W        W37657   9.221   3.406   0.724  0.0938  0.0268 -0.0237
20811W        W37658   5.854   0.869   5.336 -0.0045 -0.2958  0.0300
20812W        W37659   5.141  16.267   3.206 -0.0689 -0.2448 -0.0047
20813W        W37660  10.372  11.321  12.776  0.3187  0.4120 -0.3151
20814W        W37661   3.878   3.994   3.289 -0.0634  0.0422 -0.4262
20815W        W37662   2.513   0.780  16.464 -0.1235 -0.1009 -0.0005
20816W        W37663  14.393   8.042   5.353  0.0100 -0.3309 -0.1486
20817W        W37664   2.328   3.472   0.635  0.0549  0.0975  0.0746
20818W        W37665  15.186   7.240  16.394  0.1810 -0.0875  0.0272
20819W        W37666  17.568   8.258  15.025  0.1187 -0.2166  0.2248
20820W        W37667  16.722  17.480   5.495  0.0840 -0.0530 -0.0875
20821W        W37668  10.142  16.993  12.809  0.1527  0.2650 -0.1622
20822W        W37669   0.490  12.345  12.060  0.1211  0.2374  0.0604
20823W        W37670  13.013  15.398  12.452 -0.2588  0.1675 -0.4414
20824W        W37671   9.399  12.603   4.268  0.2550 -0.2875  0.0823
20825W        W37672   9.717  17.874  13.579  0.2082 -0.1530 -0.2306
20826W        W37673  16.545  14.013  12.883  0.0367 -0.1058  0.0044
20827W        W37674   1.867  12.425  12.709  0.2061 -0.0578  0.0843
20828W        W37675  12.531  14.726  12.140  0.0124  0.1596  0.2045
20829W        W37676   2.916   8.464  14.032 -0.2589 -0.1625  0.2494
20830W        W37677   3.706   5.215   1.089  0.2051  0.1250 -0.2370
20831W        W37678   4.398  11.450   0.405  0.0102  0.0446  0.1629
20832W        W37679  16.791   9.845   2.694 -0.5083  0.0010 -0.0520
20833W        W37680   9.047   9.707  12.676 -0.1006  0.0041 -0.1956
20834W        W37681   1.219   4.707  15.806  0.0603  0.4978 -0.1814
20835W        W37682  14.358  15.258  11.505  0.2929 -0.0193  0.2088
20836W        W37683   7.619  16.208   4.312 -0.0688 -0.0480  0.0659
20837W        W37684   1.800  16.927  11.300  0.0174  0.1870  0.2462
20838W        W37685   0.169   9.668  14.100  0.2484 -0.0681  0.3399
20839W        W37686  14.860  17.249  12.765 -0.0416 -0.2981  0.0920
20840W        W37687  17.646   6.314   3.137  0.2646  0.1064  0.2247
20841W        W37688   4.196  14.590  15.831  0.2585  0.1061 -0.1627
20842W        W37689  16.532   5.650   2.031  0.1384  0.1036 -0.0048
20843W        W37690  10.956   8.809   2.259  0.0497 -0.1219 -0.0952
20844W        W37691  16.711   9.813  14.377  0.3287  0.1285 -0.2484
20845W        W37692   7.575  11.038  15.979  0.1923  0.1768 -0.0561
20846W        W37693   8.356  17.320  13.616  0.1047  0.1841 -0.1130
20847W        W37694   4.211  13.675   0.949  0.0272  0.0603  0.2903
20848W        W37695   0.005   3.314  12.450 -0.0177  0.1396  0.0027
20849W        W37696   1.248  10.289   4.078 -0.1068 -0.0371 -0.0638
20850W        W37697  13.997  17.315   5.373 -0.4012  0.0590  0.0971
20851W        W37698  13.790  14.817  13.704  0.2905  0.2592  0.2196
20852W        W37699   1.586  13.867   4.154 -0.0849  0.0894 -0.0896
20853W        W37700  10.146   7.356   3.241 -0.3346  0.1116  0.1571
20854W        W37701  15.960   3.739  16.597 -0.1130 -0.2860 -0.2160
20855W        W37702  12.712  15.931  13.897 -0.1533 -0.1874 -0.1738
20856W        W37703  13.680   1.231  12.121 -0.1426  0.3287 -0.2566
20857W        W37704   7.159   6.781  16.350 -0.0518 -0.0091  0.0959
20858W        W37705  12.881   2.772   4.518 -0.1735 -0.3631 -0.0560
20859W        W37706  16.430   0.310  13.638  0.2784  0.0625 -0.0786
20860W        W37707   5.000   7.720  12.100  0.0466  0.0172 -0.2324
20861W        W37708  11.171  13.952   0.652  0.3781  0.2712  0.1014
20862W        W37709   8.662   1.472   5.592 -0.0107 -0.1056  0.0064
20863W        W37710  10.177   2.229  12.656 -0.0202  0.0472 -0.3284
20864W        W37711   2.391   2.661  16.589  0.0597  0.1189  0.3142
20865W        W37712  10.525   1.719  15.369 -0.1200  0.1315 -0.0391
20866W        W37713   7.263   2.275  13.648 -0.1503  0.1234  0.1445
20867W        W37714  15.350  10.667  12.027  0.1062  0.0771  0.0440
20868W        W37715   6.943  10.202   3.869 -0.0489 -0.1225  0.1909
20869W        W37716  10.329  13.492   3.094 -0.1676  0.0205 -0.2036
20870W        W37717  11.621   7.052   2.600 -0.0800 -0.0377  0.2147
20871W        W37718   0.591  16.531  14.133 -0.1175 -0.3565 -0.1783
20872W        W37719   3.083   9.348   4.434  0.3475 -0.2051  0.0018
20873W        W37720  16.591   9.551  12.715 -0.1692 -0.1348 -0.2585
20874W        W37721   6.062  14.940  13.018 -0.0322  0.4492  0.2644
20875W        W37722   4.825  14.426   4.222  0.1489  0.3584 -0.0914
20876W        W37723   8.859  17.444   3.581  0.0892 -0.2383  0.0563
20877W        W37724   4.554   9.867   3.312  0.0310  0.2612 -0.3392
20878W        W37725  17.774   4.408  15.715  0.2002  0.1674 -0.1163
20879W        W37726   3.672   7.416   3.126  0.2930 -0.0060 -0.0072
20880W        W37727   9.753   3.594   0.641  0.0317  0.1810 -0.1974
20881W        W37728  14.510  16.166  13.574 -0.1579  0.1028  0.1729
20882W        W37729   7.946   7.002   1.731 -0.1138  0.0430  0.1612
20883W        W37730  14.744  11.151  15.341 -0.1609  0.0252 -0.0877
20884W        W37731   0.484   5.072   5.294 -0.1057  0.3351 -0.2348
20885W        W37732   6.814  17.356  12.097 -0.2086 -0.2662  0.1044
20886W        W37733  11.563   9.805  16.003 -0.1370  0.0520  0.0789
20887W        W37734   3.567   6.619  14.361 -0.0739 -0.2055 -0.2425
20888W        W37735   3.496   0.564  14.111  0.2903 -0.0047  0.4364
20889W        W37736  11.695   3.974  14.575  0.1537  0.0280  0.0016
20890W        W37737   7.370   7.310  14.052  0.0441  0.1146  0.2326
20891W        W37738   6.141   4.208   6.137  0.3471  0.1479  0.0820
20892W        W37739  13.753   6.684   1.019  0.0654  0.1617  0.5022
20893W        W37740   4.444  11.333  16.526 -0.0272  0.0335 -0.4264
20894W        W37741  16.429   3.484  11.766  0.1466  0.1192  0.1301
20895W        W37742   5.528   7.708   1.579  0.3136  0.2368  0.0444
20896W        W37743  14.808   0.952  15.508  0.1113 -0.1472  0.0296
20897W        W37744   9.967   7.333  12.736  0.2218  0.0521 -0.1618
20898W        W37745   5.758   8.547   2.565  0.1609 -0.1799 -0.0899
20899W        W37746   3.528  10.556  14.799  0.0574 -0.2800  0.0862
20900W        W37747   7.451   5.259  14.557 -0.0405  0.3727  0.1759
20901W        W37748   8.423  14.482   2.008 -0.3380  0.2748  0.0518
20902W        W37749   0.056   8.001   4.066 -0.0141  0.4033  0.1537
20903W        W37750   4.420   3.747  16.529  0.0378  0.1906  0.1027
20904W        W37751   1.890  16.157   2.094  0.2671 -0.1149 -0.1861
20905W        W37752   9.184   0.842   4.755  0.2723 -0.1056 -0.4023
20906W        W37753   5.404  10.030   3.513 -0.1158 -0.2338 -0.1995
20907W        W37754   0.885   9.060  14.440  0.1167 -0.1952  0.4414
20908W        W37755  16.878   5.387   5.072  0.1979  0.1215  0.0882
20909W        W37756  13.099   7.856  15.215 -0.1659  0.0644  0.0360
20910W        W37757  16.302  11.287  12.363 -0.2277  0.2679  0.0377
20911W        W37758   5.737   5.694  14.233 -0.0384 -0.1047 -0.0490
20912W        W37759  17.227   0.839  13.763  0.2126 -0.1051 -0.0143
20913W        W37760   6.158   7.886   5.946  0.0085 -0.2069  0.0008
20914W        W37761  14.423  17.682  11.808 -0.1116  0.2115  0.0783
20915W        W37762   2.775   7.779   0.830 -0.1251  0.0294  0.0968
20916W        W37763   7.950   4.196  12.337  0.0141  0.1661  0.1678
20917W        W37764   4.111  15.594  12.027 -0.1267  0.0604  0.2661
20918W        W37765   6.983   7.614  13.905 -0.2290 -0.0385 -0.0655
20919W        W37766   0.571   6.397  13.750 -0.1222 -0.3519  0.1953
20920W        W37767  12.191   8.518   2.977 -0.0799 -0.1576 -0.3075
20921W        W37768  10.745  11.496   4.317 -0.1014  0.0089 -0.0773
20922W        W37769   6.796   3.357   2.108 -0.2556 -0.0136 -0.0587
20923W        W37770   5.639  11.288  16.004  0.2556  0.2477  0.1254
20924W        W37771  14.788   4.933  15.005 -0.0510  0.1399  0.1895
20925W        W37772  11.074  16.595  15.838 -0.0437 -0.0197 -0.1710
20926W        W37773  17.401   5.784  13.173 -0.2739  0.1649 -0.2315
20927W        W37774   2.269   1.670  13.166  0.1953  0.2800 -0.2945
20928W        W37775   1.375   6.846  14.683 -0.2710  0.0803  0.3924
20929W        W37776   3.017   2.291   0.513 -0.0378  0.1445 -0.1680
20930W        W37777   0.117   8.240  15.273 -0.0097  0.1317 -0.1651
20931W        W37778   3.586   4.872   3.602 -0.1353 -0.1905 -0.0029
20932W        W37779   5.819  13.382   2.996 -0.0636  0.2400 -0.0998
20933W        W37780  17.841   9.303   6.154  0.0368  0.0142  0.0592
20934W        W37781   0.733  16.147   2.836 -0.1271  0.0367 -0.1529
20935W        W37782   8.902   7.333   1.005 -0.0991 -0.1913  0.1973
20936W        W37783  11.953   3.731   0.348 -0.1468  0.1252  0.0071
20937W        W37784  11.058   0.067   2.958 -0.1730 -0.0362 -0.3954
20938W        W37785   7.591   2.859   4.259  0.0951  0.1070 -0.1378
20939W        W37786  11.284  11.967   2.078  0.1010 -0.0010 -0.1024
20940W        W37787   3.861  16.633  13.841 -0.0244  0.1405 -0.1102
20941W        W37788   0.378  15.579  14.675  0.0472 -0.1077 -0.1950
20942W        W37789   8.607  14.584  14.569  0.0145  0.3281 -0.1347
20943W        W37790  16.549   2.857  15.351  0.1200  0.0561  0.0459
20944W        W37791   9.828   6.010   1.200 -0.1029  0.2231  0.3235
20945W        W37792  14.621   5.904   4.391  0.3111 -0.1148 -0.0485
20946W        W37793   7.457  16.167  15.937  0.2534 -0.3248 -0.1130
20947W        W37794   3.279  10.671   5.841 -0.1473 -0.1497  0.1435
20948W        W37795   0.175   3.951   1.838 -0.0646 -0.1558  0.5852
20949W        W37796   1.583   8.701   3.622  0.3582  0.2124  0.3778
20950W        W37797   7.333   2.470  11.934 -0.2352  0.1671  0.2214
20951W        W37798  15.814  17.625  12.662  0.0964  0.0864 -0.0103
20952W        W37799  16.549  10.139   3.578 -0.4524  0.2327  0.1348
20953W        W37800  12.674  16.992  15.599 -0.0005  0.2878 -0.3072
20954W        W37801  17.779   3.465   4.986  0.0671 -0.3344  0.2656
20955W        W37802   3.638  10.820  12.439  0.0412  0.0179 -0.1856
20956W        W37803  16.421   6.535   4.164 -0.1383 -0.1184  0.3630
20957W        W37804   8.691  12.195   3.275  0.1404 -0.2617  0.0730
20958W        W37805   6.496   5.459   4.130  0.2062  0.3494 -0.0081
20959W        W37806   8.657   8.609   5.158 -0.1784  0.0915  0.1980
20960W        W37807   1.132  13.473   1.925  0.0980 -0.2473  0.1478
20961W        W37808  15.317   4.433   4.857 -0.0074 -0.1002  0.2100
20962W        W37809   0.900  16.035   3.329  0.1562  0.1957  0.0451
20963W        W37810  15.052  10.833   2.895  0.0879 -0.4059  0.1050
20964W        W37811  10.073  11.526   5.631  0.1293  0.2512 -0.1534
20965W        W37812  16.229   4.556  12.540  0.0780 -0.0190 -0.0537
20966W        W37813  14.924  11.466  14.184  0.2571 -0.0928 -0.1187
20967W        W37814  14.524   1.767  14.055  0.1818 -0.0967  0.3048
20968W        W37815   8.309   1.331  12.880  0.1512 -0.0405  0.1659
20969W        W37816   0.778   5.415   5.492  0.0067  0.2144  0.1400
20970W        W37817  14.696   7.294  10.806  0.0432 -0.0224 -0.3849
20971W        W37818  11.179   6.252  13.829  0.0506  0.1805  0.0488
20972W        W37819   5.853  14.775  15.392 -0.1641  0.0304  0.0272
20973W        W37820  17.621   0.970   2.941  0.2722 -0.1697  0.1451
20974W        W37821   0.714   9.883  14.629  0.1782  0.0191 -0.2653
20975W        W37822   6.275   9.949  12.690  0.2639  0.1620 -0.0555
20976W        W37823   3.425  10.474   2.388 -0.2168 -0.0117  0.0352
20977W        W37824   3.254  15.546  12.930 -0.0135 -0.0028 -0.2316
20978W        W37825  16.869   0.213  15.100 -0.0477 -0.0290 -0.2509
20979W        W37826  12.230   5.634  14.757 -0.1333 -0.2466  0.3955
20980W        W37827   1.554  11.254  16.177 -0.1018 -0.2638 -0.2310
20981W        W37828   0.906  11.713   1.056  0.0079  0.0765 -0.0260
20982W        W37829  17.284   2.591   2.224  0.0092  0.1360  0.1916
20983W        W37830  15.547   3.788  15.669  0.0423 -0.1427 -0.0046
20984W        W37831   3.943  11.290   3.537 -0.0304 -0.1070 -0.2054
20985W        W37832   8.333   2.646  15.821 -0.3640  0.1700 -0.1519
20986W        W37833   8.045   8.531  16.171  0.1124  0.1589 -0.1368
20987W        W37834   8.707   9.167   1.667  0.0858  0.1302 -0.2228
20988W        W37835  14.944  15.221   5.118  0.1176  0.0797  0.1583
20989W        W37836  12.672  14.051  12.760 -0.1209  0.2158 -0.1483
20990W        W37837  14.091  15.863   0.322 -0.4900  0.1180 -0.0740
20991W        W37838  16.912   9.256   5.084 -0.0976 -0.1163  0.0357
20992W        W37839   1.244   1.636   5.237 -0.0168  0.1160 -0.0103
20993W        W37840   5.565   6.534   3.465 -0.2746  0.0027  0.0656
20994W        W37841  15.890   8.623   5.933  0.0888  0.0394 -0.1412
20995W        W37842   6.879  12.087  15.207  0.1615  0.2551  0.3152
20996W        W37843   5.112   6.057   4.331  0.1336 -0.0748  0.0716
20997W        W37844   7.548   1.033   0.869  0.0020  0.0042  0.1207
20998W        W37845   4.147   6.197  12.646  0.2206  0.0361 -0.3027
20999W        W37846   9.235   2.979   2.194  0.0661  0.0138  0.2136
21000W        W37847   9.769  13.596  14.455 -0.1203 -0.0742 -0.1034
21001W        W37848  10.081  13.151   1.686 -0.1336  0.0777 -0.0437
21002W        W37849  17.767  14.640   2.070 -0.0024 -0.3388  0.0776
21003W        W37850   4.628   6.904   3.957  0.1532 -0.1906  0.1076
21004W        W37851   0.905  16.660   1.213  0.1212 -0.0461  0.0409
21005W        W37852   7.347   4.200  13.805  0.1576  0.0672 -0.0429
21006W        W37853   3.850   9.926   4.442  0.1763  0.0108 -0.1619
21007W        W37854   3.740   5.884   3.706 -0.0625 -0.0416 -0.0611
21008W        W37855   8.663  11.523   3.050  0.1418 -0.0908 -0.0732
21009W        W37856   9.243   2.741  15.134  0.0655  0.0804 -0.3113
21010W        W37857   8.036   9.119   4.508 -0.2552  0.1687 -0.2305
21011W        W37858  10.307   9.073  14.149 -0.1011  0.1060 -0.1508
21012W        W37859   3.755  17.412   4.759 -0.2172 -0.0136 -0.1066
21013W        W37860  10.043   2.465   2.158  0.2003  0.2195  0.0621
21014W        W37861  11.445  16.958  11.805  0.3229  0.3720 -0.1522
21015W        W37862   0.017   2.857  13.825  0.0662  0.0357 -0.0974
21016W        W37863   1.833  11.240   4.100  0.1432 -0.2867  0.1539
21017W        W37864   4.538   2.008   3.322 -0.1111 -0.1981  0.0980
21018W        W37865  16.421   7.377   4.895 -0.0688  0.1859 -0.0141
21019W        W37866  12.606  11.024  14.114 -0.0285  0.1254 -0.3813
21020W        W37867  12.975   7.267  14.677 -0.1843  0.3376  0.2095
21021W        W37868   4.351   9.442   3.467 -0.3064  0.5287 -0.0997
21022W        W37869  16.703  13.821  15.694  0.0492  0.3843 -0.0913
21023W        W37870  12.976  13.407  14.781 -0.2010  0.2522  0.1452
21024W        W37871  10.431   8.104  13.247  0.2585  0.2746  0.0598
21025W        W37872   5.612   0.005   1.817  0.2824 -0.0046 -0.1479
21026W        W37873   8.641   3.545  15.662  0.1521  0.3017  0.0222
21027W        W37874  13.741   3.150   4.114 -0.1190 -0.0859  0.1938
21028W        W37875   2.744   1.726   2.020 -0.1482  0.1413 -0.1944
21029W        W37876   2.997   7.712   2.252  0.0646 -0.2431  0.2838
21030W        W37877  10.461   8.279  12.773  0.0143 -0.1593  0.3280
21031W        W37878  17.448   4.896   1.203  0.3209  0.1373  0.0268
21032W        W37879   8.081  10.920  16.721  0.0033 -0.1497 -0.0113
21033W        W37880  16.728   2.765   1.479 -0.0603  0.1463  0.1086
21034W        W37881   2.583   4.060   3.518  0.0613  0.0950  0.2591
21035W        W37882   3.087  11.547   4.601  0.0136  0.1836  0.0441
21036W        W37883   3.267  17.253   0.499 -0.0033 -0.1243  0.3103
21037W        W37884   7.171   1.589  15.934  0.1435 -0.1097  0.2391
21038W        W37885   6.243  11.035  14.333 -0.1304 -0.1207  0.0353
21039W        W37886   5.353   4.023   2.600 -0.1459 -0.2947 -0.0457
21040W        W37887  11.816  14.752  14.431 -0.2662  0.0757  0.0017
21041W        W37888   2.571  16.767  11.784  0.3576 -0.2099  0.0155
21042W        W37889  15.782   0.627   4.813  0.0549 -0.1593  0.0478
21043W        W37890   9.280  11.108  16.232 -0.1729  0.0837 -0.1260
21044W        W37891   8.776  10.719  12.523 -0.0097 -0.0297  0.0363
21045W        W37892   3.229  10.625   3.483 -0.0105  0.1985  0.0815
21046W        W37893  15.252   4.991   3.869  0.1308  0.0732  0.1714
21047W        W37894  10.615   1.134   3.818  0.0577 -0.1082  0.0568
21048W        W37895   8.385   3.183   0.602 -0.2549  0.0983  0.0028
21049W        W37896  11.490   5.204   0.326  0.2416  0.3145 -0.1642
21050W        W37897  11.033   9.284  13.751 -0.2964 -0.1899  0.0130
21051W        W37898   1.937   0.561  12.288  0.1339 -0.2308 -0.0369
21052W        W37899   8.595   2.919   2.689 -0.3424  0.3366 -0.3792
21053W        W37900  12.545   2.108  16.402  0.0575 -0.0128  0.0802
21054W        W37901   9.783   9.926  16.692  0.2013 -0.0937 -0.2074
21055W        W37902   1.105  17.102  12.776  0.1256  0.2971  0.1621
21056W        W37903   3.655   7.807   2.384  0.0982 -0.3165 -0.4063
21057W        W37904   0.659   6.491  13.242  0.4325 -0.2244  0.2023
21058W        W37905  13.629  10.022  13.162 -0.0133 -0.2192 -0.1701
21059W        W37906  10.729   0.308   0.370 -0.2071  0.2003  0.0423
21060W        W37907  15.463   0.018   1.570  0.1157 -0.0984 -0.0634
21061W        W37908  11.823  10.258  16.002  0.0191 -0.0463 -0.4837
21062W        W37909  12.468   2.554  12.477  0.0820 -0.2756 -0.0860
21063W        W37910   1.311   5.954   5.909  0.0609  0.1843  0.0932
21064W        W37911   6.219   8.060  15.598 -0.2430  0.0655  0.3173
21065W        W37912  17.787  10.026  15.066 -0.3055  0.3283  0.1725
21066W        W37913   1.401   3.986  13.627  0.0323 -0.3560  0.1895
21067W        W37914  11.112   6.104  16.562 -0.3844 -0.0677  0.0700
21068W        W37915   8.477  15.997   4.126 -0.3681 -0.0221 -0.1460
21069W        W37916   7.239  16.021   5.566 -0.0692 -0.0250 -0.0331
21070W        W37917  15.616   5.688   2.151  0.3499  0.0417  0.0706
21071W        W37918   2.323  10.697  12.551  0.1463 -0.0814 -0.0937
21072W        W37919   7.052   8.204   2.314 -0.1350 -0.0937  0.1786
21073W        W37920  15.232   8.029   5.786  0.2887  0.0005 -0.0676
21074W        W37921   2.565   9.960  15.212 -0.0115 -0.0812 -0.2393
21075W        W37922  15.408  10.898  13.091  0.0319  0.2210 -0.2235
21076W        W37923   2.155  11.603   2.397  0.2760 -0.0346  0.0300
21077W        W37924   5.001   8.941  16.506 -0.0770 -0.2242  0.0672
21078W        W37925   9.213   1.344   2.391  0.0591  0.1409 -0.0882
21079W        W37926  17.076  12.775   3.958 -0.1993  0.0985  0.0265
21080W        W37927   8.607   5.035  15.243 -0.1230 -0.2822  0.0502
21081W        W37928   3.648  13.926   1.580 -0.1588 -0.0944  0.2105
21082W        W37929  13.195   9.298   0.393 -0.0239  0.1930 -0.3311
21083W        W37930   9.032  11.401  15.854  0.0279 -0.1147  0.1506
21084W        W37931   5.242  15.425  15.277  0.2896 -0.1958  0.0636
21085W        W37932  11.658  16.066  16.068 -0.3045  0.1940 -0.0693
21086W        W37933   3.573   3.441   0.427  0.0058  0.0272  0.4582
21087W        W37934   1.652   5.389   2.040  0.1081 -0.0153 -0.2209
21088W        W37935  12.211   1.336  15.678  0.2829  0.0800 -0.0372
21089W        W37936  11.112   8.694   4.071 -0.0541 -0.0680 -0.0951
21090W        W37937  16.816  16.294   3.229  0.4109 -0.0245  0.1603
21091W        W37938   3.690  17.502  15.987 -0.2371 -0.1046 -0.0850
21092W        W37939   4.506   0.155   2.238 -0.1529 -0.2302 -0.0507
21093W        W37940  15.303  11.492   3.721  0.3457 -0.0590  0.1555
21094W        W37941   7.869   3.530  13.442 -0.4089  0.0661 -0.1728
21095W        W37942   4.835   3.632  15.742 -0.0948  0.0247  0.0050
21096W        W37943   7.415  11.735   0.017 -0.1118  0.1106 -0.4038
21097W        W37944  10.510   8.636   5.177 -0.0583  0.1790 -0.1933
21098W        W37945  17.268   1.258   1.240  0.1643  0.1353  0.0685
21099W        W37946   8.198   0.058   2.548 -0.0099 -0.0298 -0.1018
21100W        W37947   0.877   5.345   0.409  0.0199  0.0122  0.0877
21101W        W37948   7.952  17.577   3.898 -0.4901 -0.1191  0.0922
21102W        W37949   9.295  11.146  16.747  0.0116  0.1433  0.1559
21103W        W37950   0.625  16.750  12.949  0.0842 -0.1212 -0.2880
21104W        W37951   2.821   4.194   1.904 -0.1414  0.3593  0.4808
21105W        W37952   7.270  14.084   2.544  0.0548 -0.1232 -0.0045
21106W        W37953   3.358   7.731  13.199  0.2939 -0.1618  0.4533
21107W        W37954   2.628  16.981  16.471 -0.1249  0.2503  0.1055
21108W        W37955  10.195  11.182   2.732  0.1377 -0.1776 -0.2796
21109W        W37956  14.367  17.171   4.864  0.2428  0.1466  0.2317
21110W        W37957   7.222  11.196   2.803  0.1134  0.0583 -0.1059
21111W        W37958   7.248  12.761   6.136 -0.1277 -0.1609  0.2345
21112W        W37959   2.623   5.255   2.150 -0.4042 -0.0871 -0.0770
21113W        W37960  16.763  13.829   5.244  0.0783 -0.2375  0.0314
21114W        W37961  11.039   7.670   5.621 -0.1098 -0.0048 -0.0944
21115W        W37962   5.458  17.450  15.549 -0.0828 -0.2156  0.1547
21116W        W37963  13.444   8.270   3.604  0.2684  0.0202  0.0859
21117W        W37964  14.536   7.144  13.215 -0.0536 -0.2140  0.0261
21118W        W37965   9.415   1.704   5.104  0.0613  0.0684  0.0555
21119W        W37966   2.691   1.801  11.968  0.0105  0.1145  0.0806
21120W        W37967   1.783   0.129   5.083  0.1363  0.1943 -0.1027
21121W        W37968  11.793   4.111  12.836  0.4516  0.0616  0.1333
21122W        W37969  12.394   4.157  15.106  0.0689  0.1118 -0.0662
21123W        W37970  11.905  12.307  12.412 -0.0789 -0.0371  0.1177
21124W        W37971  10.393  13.259  16.768  0.1516  0.2266 -0.1671
21125W        W37972   0.114  13.367  12.398  0.1796 -0.2081 -0.0795
21126W        W37973   5.073   1.794   3.607  0.2050  0.1031 -0.2895
21127W        W37974   9.688  10.021   4.041  0.4049  0.0052 -0.1866
21128W        W37975  15.529  10.224   0.540  0.0339  0.0132 -0.1981
21129W        W37976   7.157  10.060  12.480  0.1031 -0.0506 -0.1207
21130W        W37977   8.956   8.614   0.884  0.3324 -0.0874  0.2004
21131W        W37978  15.861   0.484  12.850 -0.1547 -0.2221  0.2098
21132W        W37979   7.455   7.051   0.714 -0.2197 -0.2725  0.0756
21133W        W37980   4.512   1.923  15.214 -0.0666 -0.0803 -0.1415
21134W        W37981   3.875  12.466  16.443  0.0191  0.0967 -0.1728
21135W        W37982   8.369  16.542  15.315 -0.2259 -0.0808  0.0958
21136W        W37983   8.843   2.405  16.076 -0.0217  0.0326  0.2303
21137W        W37984  11.680   8.224   3.011  0.1368 -0.0381  0.1310
21138W        W37985   7.530   7.287   2.677  0.0879 -0.0707 -0.0682
21139W        W37986  13.814  11.442  15.005  0.1363 -0.0988  0.1345
21140W        W37987  16.637  16.368   0.383  0.3362 -0.0704 -0.1218
21141W        W37988  11.726   1.470  13.659  0.0177 -0.0375  0.2936
21142W        W37989   7.838   3.735   1.282 -0.2577 -0.2596  0.2121
21143W        W37990   1.416   4.635  13.094 -0.2104  0.0161 -0.1569
21144W        W37991  10.679   3.724   2.498  0.3163  0.2426 -0.2079
21145W        W37992   7.249   0.638  16.176  0.0982 -0.1811 -0.2119
21146W        W37993  14.641   3.839   0.622 -0.1007 -0.0169  0.1330
21147W        W37994  17.279   6.124   1.771  0.1751  0.2464 -0.0309
21148W        W37995   5.346   7.326   0.068 -0.1066  0.0246 -0.0465
21149W        W37996  16.889  14.793   3.434 -0.2925  0.1625  0.0660
21150W        W37997   9.952   1.575  14.450 -0.1714  0.1893  0.0071
21151W        W37998  10.086  13.552  12.332  0.1800 -0.1166  0.1414
21152W        W37999  13.938   9.334   3.207 -0.1706 -0.2383 -0.2453
21153W        W38000   2.054   4.710  11.392 -0.0342  0.0615  0.1268
21154W        W38001   2.605  17.160   3.787  0.2371 -0.1274 -0.0148
21155W        W38002  15.103   4.099   2.277 -0.0730 -0.0438 -0.2355
21156W        W38003  17.126  12.643  12.313 -0.1534 -0.1098  0.0195
21157W        W38004   4.999  14.558   1.181 -0.2963 -0.2522 -0.0387
21158W        W38005  10.096  13.037  12.163  0.0482  0.1257  0.3820
21159W        W38006  10.866   3.681  15.635  0.1523  0.1001 -0.0068
21160W        W38007   2.467   6.244  12.298 -0.0367  0.0900  0.0557
21161W        W38008  14.761   0.326  15.500  0.0249  0.0129 -0.1595
21162W        W38009   2.201  12.066   3.327 -0.2593 -0.3776 -0.1140
21163W        W38010   9.506  13.219  13.069  0.1636 -0.0584 -0.0099
21164W        W38011   0.525   2.704  14.089  0.0816  0.1966  0.0333
21165W        W38012   1.718   3.656  13.420  0.0271  0.0593 -0.3910
21166W        W38013   7.230  11.023  12.707  0.1834  0.3179  0.0155
21167W        W38014   7.703  17.009  16.676  0.2063 -0.2872  0.0715
21168W        W38015   3.434  17.620  15.238 -0.1799 -0.1772 -0.0105
21169W        W38016   1.208  15.001   0.325  0.0703 -0.1331 -0.0403
21170W        W38017   7.643   5.709  12.356  0.2007  0.0074 -0.1352
21171W        W38018   1.757  15.456  13.659  0.1994 -0.0429  0.0667
21172W        W38019   7.273   5.888   1.727 -0.0682  0.0518  0.1945
21173W        W38020   3.749  14.437   4.482  0.0601 -0.0317  0.1095
21174W        W38021   3.939  13.774   1.990  0.0741  0.1480 -0.0222
21175W        W38022  13.495   1.541   4.429  0.1742  0.1388 -0.3986
21176W        W38023  14.860   8.835  16.384  0.0783 -0.0852 -0.0045
21177W        W38024   7.485  15.968  12.438 -0.0664 -0.0143  0.1531
21178W        W38025  16.620   3.180   1.013  0.3313 -0.4573 -0.0783
21179W        W38026   1.757  16.084  11.542 -0.2846  0.1059  0.2837
21180W        W38027  16.931   0.052   2.604  0.3037 -0.0030 -0.0146
21181W        W38028  17.278   3.064  15.618 -0.1923  0.0436  0.0016
21182W        W38029  15.738   4.147   0.047  0.1161  0.0287  0.0052
21183W        W38030   7.863  16.150   4.892  0.3117 -0.0402  0.2124
21184W        W38031  12.591  14.220  13.280  0.1645 -0.0059 -0.1108
21185W        W38032  15.793   1.897  15.047 -0.3394  0.1517 -0.0825
21186W        W38033  17.113   5.662   2.004  0.1721 -0.1170  0.0944
21187W        W38034   6.428   0.603  14.783 -0.0460  0.0190 -0.0232
21188W        W38035   5.104  16.365  11.627 -0.1139  0.1969 -0.0700
21189W        W38036  11.748   7.391  13.909  0.2339  0.0038 -0.1725
21190W        W38037   2.000   7.299  15.099 -0.0241  0.1259  0.1269
21191W        W38038  14.971   9.282  16.351  0.2831 -0.1551  0.1604
21192W        W38039  17.708   3.866   0.483 -0.0795 -0.0722 -0.1967
21193W        W38040  14.696  16.558   1.498 -0.1184 -0.0205 -0.3325
21194W        W38041   0.786  10.099  16.321  0.2337 -0.1378 -0.2051
21195W        W38042   0.994  10.264   4.943  0.0154 -0.0673 -0.0129
21196W        W38043  10.515  16.256  12.397  0.0819 -0.1392  0.0623
21197W        W38044  17.892   7.056   2.306 -0.0479  0.0257 -0.0671
21198W        W38045  17.879  15.878  13.773 -0.0496 -0.0373  0.1247
21199W        W38046   6.354   8.545  12.859  0.1398  0.1140  0.0230
21200W        W38047   3.025  11.188   0.726  0.2326 -0.1256 -0.0724
21201W        W38048   1.293   1.243   1.559 -0.0972  0.0129 -0.3290
21202W        W38049   3.893   7.274  11.847  0.0552  0.2554 -0.0103
21203W        W38050   0.734   3.382  11.379 -0.0504 -0.1136  0.2731
21204W        W38051   9.073   7.828   3.259 -0.2137 -0.0280 -0.2525
21205W        W38052  17.128   5.213  15.563  0.2665  0.1314 -0.1032
21206W        W38053   4.875  13.127  16.392  0.0953 -0.1120  0.0655
21207W        W38054   2.789   6.785   3.206  0.1881  0.1162 -0.0494
21208W        W38055  13.361   3.953   4.907 -0.1008  0.2393  0.3161
21209W        W38056  17.580  10.796  14.228 -0.2647 -0.1887 -0.1836
21210W        W38057   2.865   3.340   3.054  0.0392  0.0855  0.2326
21211W        W38058   4.119   0.208  14.495  0.0632  0.1731 -0.2175
21212W        W38059   4.146   1.713  16.147  0.1856  0.1037  0.0536
21213W        W38060  16.329  11.626   1.616 -0.3530 -0.0585  0.1472
21214W        W38061  15.668   3.416  12.339  0.1411 -0.0582  0.0260
21215W        W38062  16.234   8.566  16.545  0.0267  0.0266  0.0474
21216W        W38063   7.074   7.068   0.362 -0.1532 -0.0230  0.1283
21217W        W38064   3.299  13.029   3.280  0.2710  0.0460 -0.1126
21218W        W38065   2.670   1.625  14.165  0.2348  0.0287 -0.0924
21219W        W38066   1.045   1.143   0.493 -0.0305 -0.0779 -0.0385
21220W        W38067   9.080   9.360  13.518 -0.1338  0.1852 -0.1639
21221W        W38068   2.441  12.628  11.965  0.0622 -0.0210  0.0283
21222W        W38069  17.189   7.357   3.274 -0.0265 -0.1938 -0.1019
21223W        W38070   2.451  17.609   5.434  0.2522  0.0849  0.0510
21224W        W38071  17.435  17.858   2.532  0.2164  0.0061  0.0917
21225W        W38072  14.775  13.223   0.294  0.0777 -0.4106  0.0622
21226W        W38073  13.551  11.220  16.288 -0.1724 -0.1052 -0.1664
21227W        W38074   7.336   3.566   4.253  0.0580 -0.0187 -0.1193
21228W        W38075  17.202  17.608  14.498  0.0667 -0.2019 -0.2037
21229W        W38076   6.330   9.207   2.043 -0.2135 -0.0703  0.0337
21230W        W38077   4.823   7.166  16.690 -0.1995 -0.1124  0.2750
21231W        W38078   9.815   5.369  14.448  0.1927 -0.4140  0.0383
21232W        W38079   4.329  15.853  16.606 -0.3283  0.3186  0.3001
21233W        W38080   1.624   7.197  13.458  0.1698  0.1877 -0.0979
21234W        W38081  12.595   7.691  16.438 -0.2153 -0.0464 -0.0646
21235W        W38082   5.594   2.967   4.102  0.0094  0.2652  0.0689
21236W        W38083  14.699   3.340   3.039  0.1615 -0.0494 -0.0188
21237W        W38084   5.057   2.625   1.462 -0.0928  0.1929 -0.1795
21238W        W38085   1.275  16.429  14.808  0.3076 -0.1168 -0.1101
21239W        W38086  16.143   7.996   2.880  0.2165  0.2130 -0.1263
21240W        W38087   5.545   6.401  15.128  0.1129 -0.0362  0.1158
21241W        W38088  17.139   8.050   4.396 -0.0330  0.0177  0.1638
21242W        W38089   7.012   4.207  11.488 -0.2233  0.2630  0.1620
21243W        W38090  14.199  10.205   5.102  0.0740 -0.3956 -0.0478
21244W        W38091  16.757  14.583  13.570 -0.1303  0.0919 -0.1296
21245W        W38092   0.868   2.689  15.472 -0.0142  0.0242 -0.1153
21246W        W38093   7.921  13.080   0.851  0.0839 -0.0650  0.1793
21247W        W38094   7.128  17.725   2.784 -0.0074  0.1375  0.0341
21248W        W38095   9.002  10.277  12.004  0.0564 -0.0101  0.0223
21249W        W38096  16.366   1.779   5.520  0.0961  0.0623  0.0535
21250W        W38097  13.081   4.200   1.620 -0.1462 -0.0734 -0.4308
21251W        W38098   1.668   1.317  16.208  0.1488 -0.1223 -0.3578
21252W        W38099   0.830   2.365  12.664  0.1058  0.0292 -0.0390
21253W        W38100   3.116  12.703   0.394 -0.0883 -0.0906  0.3710
21254W        W38101   6.880   3.222  16.092 -0.1839  0.2657  0.1964
21255W        W38102  10.409  13.557   1.804 -0.0305 -0.0830 -0.3676
21256W        W38103   3.151  11.686  15.358  0.1140 -0.0228 -0.1365
21257W        W38104   9.337   5.121   0.567  0.0932  0.2617  0.1094
21258W        W38105  15.814  15.957  14.714 -0.4470  0.0378 -0.2860
21259W        W38106  16.992  15.342   1.303 -0.3097 -0.1610 -0.0520
21260W        W38107  12.674  10.547   2.605 -0.0407 -0.0428  0.0736
21261W        W38108  16.352  10.058   0.211  0.0247 -0.1702 -0.3049
21262W        W38109   9.651   0.128   5.403  0.1519 -0.1388  0.0374
21263W        W38110   1.464  15.398   2.831 -0.1246 -0.1565 -0.1084
21264W        W38111  10.838  17.483  15.133 -0.0311 -0.0727  0.0088
21265W        W38112   9.601   3.021  16.406 -0.3273  0.0403  0.0225
21266W        W38113  17.381  12.445  13.279 -0.0491  0.1333  0.0273
21267W        W38114   8.581  12.733  14.041  0.2235  0.2332 -0.0003
21268W        W38115  14.939  10.080   0.254  0.0700  0.1701  0.1836
21269W        W38116  10.240   0.551  11.788 -0.2239  0.0501  0.1545
21270W        W38117   0.883   5.802  14.314 -0.3942 -0.0417  0.0290
21271W        W38118   5.551  16.540  12.365  0.0377 -0.0347  0.5353
21272W        W38119   6.822   1.936   4.765 -0.1674  0.0787 -0.0244
21273W        W38120   9.920  16.282   2.574  0.2896  0.1740  0.0205
21274W        W38121   2.846   0.687  14.214  0.0279  0.2336  0.0816
21275W        W38122  12.060   4.458  11.844  0.2936  0.0821  0.2044
21276W        W38123  15.040   9.061   0.022 -0.0388 -0.3981 -0.1426
21277W        W38124  13.456   4.141   1.285 -0.0342  0.0189  0.0629
21278W        W38125   9.259  15.800  15.639 -0.3508  0.1605 -0.0726
21279W        W38126  15.178   9.225  11.737 -0.0243 -0.0580  0.0894
21280W        W38127   0.124   3.303   3.177  0.1748  0.0009  0.1037
21281W        W38128  16.037  11.139  15.998  0.1905 -0.3282 -0.1502
21282W        W38129  13.039  13.043   3.217 -0.1757  0.4535 -0.0045
21283W        W38130  14.113   9.008  12.433  0.2795 -0.2369 -0.1179
21284W        W38131  12.824   2.708  15.954  0.0014  0.0271 -0.2040
21285W        W38132   6.369   1.418  15.027 -0.1729 -0.1282 -0.1850
21286W        W38133  14.049   4.551   1.971  0.1887 -0.0294 -0.1600
21287W        W38134  15.049  11.041  14.294 -0.0792  0.1444  0.0901
21288W        W38135  14.441   0.467  16.475 -0.1598  0.0342  0.2712
21289W        W38136   6.892   5.228   4.617  0.0764 -0.1773 -0.1032
21290W        W38137  13.869   2.781  13.279 -0.1595 -0.1062 -0.0793
21291W        W38138  17.552  12.666  15.259  0.5430 -0.0899  0.2144
21292W        W38139  11.076   9.115   5.309 -0.0109  0.1206  0.0096
21293W        W38140   9.375  14.533   1.644 -0.0928  0.2329  0.3714
21294W        W38141   3.795  17.418  12.199 -0.0772 -0.1890 -0.0170
21295W        W38142  14.532  13.260   6.216 -0.0517  0.0551 -0.1224
21296W        W38143  17.364  13.212  13.805  0.0105  0.1147 -0.2529
21297W        W38144   7.377   3.408   2.819  0.1862 -0.1998 -0.0555
21298W        W38145  14.488  13.659  12.318 -0.0092  0.1360  0.2868
21299W        W38146   4.955   8.581   3.647 -0.1562  0.0090 -0.2161
21300W        W38147  12.203  14.850   3.442  0.0856  0.2112  0.3219
21301W        W38148  13.826   8.975  14.839 -0.2561 -0.1391  0.2806
21302W        W38149  11.751   3.290   1.918 -0.1810 -0.0403 -0.1637
21303W        W38150   5.050   6.709   0.018  0.0604 -0.1347 -0.1514
21304W        W38151   7.285   3.772  15.548  0.0924  0.3329  0.3359
21305W        W38152   6.819   0.632   3.434  0.1267 -0.0687  0.0025
21306W        W38153  10.182   4.484  12.417  0.1322 -0.1024  0.0603
21307W        W38154  15.221   7.036   5.563 -0.0295  0.3035 -0.2161
21308W        W38155  10.214   7.407   2.742 -0.0795 -0.1255  0.2061
21309W        W38156  10.334   7.061  14.817  0.0604 -0.0956 -0.0589
21310W        W38157   9.111  11.867   5.982 -0.3525  0.2439  0.1615
21311W        W38158  17.253  14.024   4.356  0.0052 -0.2362  0.1024
21312W        W38159  17.458   0.447  16.111  0.0263 -0.0145  0.2556
21313W        W38160   8.571  11.248   3.502 -0.0485  0.3281  0.0332
21314W        W38161  11.051  15.920  13.571  0.1932 -0.0852 -0.1864
21315W        W38162   7.095  17.236  12.843 -0.1084  0.0536 -0.0460
21316W        W38163   9.336  13.826   3.465  0.1506  0.1471 -0.0850
21317W        W38164   1.012   2.813  12.367  0.3435  0.0049  0.0082
21318W        W38165   0.581   2.100  12.274  0.1582  0.1034 -0.0394
21319W        W38166  14.927   7.543  13.280  0.2158  0.0009 -0.3060
21320W        W38167   8.524   6.683   5.255 -0.0562  0.2151 -0.1187
21321W        W38168   1.686   5.184  15.276 -0.0233  0.0979  0.0809
21322W        W38169  15.478   1.671   2.634 -0.1745 -0.0351 -0.2057
21323W        W38170  12.412   5.016   1.650  0.0238 -0.1264 -0.2056
21324W        W38171   4.936  14.720   5.726 -0.0994 -0.0662  0.1266
21325W        W38172  13.526  17.054   2.290  0.1025  0.2019 -0.1821
21326W        W38173   2.351  11.345   5.105 -0.0150  0.1913 -0.2790
21327W        W38174  11.361   6.165  14.635  0.1888 -0.2803 -0.2081
21328W        W38175  10.123   8.822  14.550 -0.1214 -0.2779 -0.1161
21329W        W38176  12.094  12.091  13.409 -0.3223  0.2543 -0.1571
21330W        W38177   7.413   2.879   2.889  0.0007 -0.3909 -0.0521
21331W        W38178  15.796   7.068  12.660 -0.0090 -0.1057  0.0759
21332W        W38179   4.800   4.728  14.831 -0.0796  0.0141  0.1444
21333W        W38180  14.275  15.859  12.094 -0.1772  0.2248  0.1529
21334W        W38181  16.464   8.808  13.721 -0.0624  0.1043  0.1595
21335W        W38182   2.306  14.459   0.557 -0.0815 -0.1062  0.2056
21336W        W38183   1.152   6.055   3.241 -0.0125  0.1291  0.0407
21337W        W38184   4.419  14.400   3.367 -0.0083 -0.0727 -0.2609
21338W        W38185   2.028   4.973   0.773  0.0391  0.0138 -0.1768
21339W        W38186  13.537   3.008  12.941  0.0924  0.0533 -0.1076
21340W        W38187   5.544   7.969   4.643 -0.0069  0.1358 -0.1530
21341W        W38188  12.476  15.798  15.008 -0.0922 -0.2055  0.0506
21342W        W38189  17.203   2.692   3.508  0.0133  0.2519 -0.0468
21343W        W38190  14.399  17.279  16.116 -0.2597 -0.0738  0.0316
21344W        W38191   1.970  15.390   2.978 -0.1389 -0.2442  0.2410
21345W        W38192   0.859  12.229  12.497 -0.0039  0.2138 -0.0162
21346W        W38193  11.747   3.984   1.249  0.0249  0.1454 -0.0920
21347W        W38194  16.785  15.317  14.012 -0.2608  0.0990 -0.0274
21348W        W38195  15.147  14.393   1.219  0.0294  0.0391 -0.0023
21349W        W38196  12.325  11.125   5.411 -0.0501  0.1597 -0.0578
21350W        W38197  13.916  10.847  15.288 -0.1946 -0.2908  0.0627
21351W        W38198  13.865  10.453  16.086  0.0168 -0.3710 -0.0895
21352W        W38199  17.545   8.058   0.935 -0.0708  0.1467 -0.1742
21353W        W38200   1.361   3.052  14.366  0.0162  0.0784  0.2226
21354W        W38201  16.314  16.315  13.165  0.0572 -0.0407 -0.0565
21355W        W38202   3.607   3.611   3.185 -0.1511 -0.0091 -0.2399
21356W        W38203  12.436   1.940   1.117 -0.2980  0.0695  0.0709
21357W        W38204   8.819   2.878  16.368  0.2711  0.1541 -0.2219
21358W        W38205   7.096   8.450  16.559 -0.0499 -0.1251 -0.2735
21359W        W38206   6.313  13.124  13.806  0.0467 -0.0333  0.1433
21360W        W38207   2.091  13.250  15.755 -0.0375  0.2678  0.0194
21361W        W38208   7.087   3.943  12.807  0.0194  0.1141 -0.0394
21362W        W38209   5.376   7.004   3.438  0.1343 -0.1299  0.0714
21363W        W38210  13.679   1.578  15.729 -0.3695  0.2267  0.0194
21364W        W38211  17.785   4.609  12.446 -0.1444 -0.0543 -0.1354
21365W        W38212  11.443   2.673  13.157 -0.0466  0.1445  0.0121
21366W        W38213   0.231   9.751   5.208  0.0519  0.0996  0.1644
21367W        W38214  11.813  16.180   1.970 -0.0618  0.1731 -0.2471
21368W        W38215  13.715  13.369  16.659 -0.2162  0.1107  0.0081
21369W        W38216   8.964   8.254   0.013  0.0636 -0.0337  0.3230
21370W        W38217   5.084  15.022   6.086  0.2261 -0.3324 -0.0622
21371W        W38218   8.089  10.255  13.674 -0.1995  0.0913 -0.1291
21372W        W38219   3.053  12.701  12.956  0.1496 -0.1734 -0.2039
21373W        W38220  17.680  12.990  15.649 -0.4447 -0.1408  0.2426
21374W        W38221  15.358  15.133   3.566  0.1532  0.2045  0.2372
21375W        W38222  13.053   9.217  14.668  0.0661 -0.0855 -0.3751
21376W        W38223  12.243   1.518   5.768 -0.2095 -0.1227 -0.4082
21377W        W38224   1.617  12.324   6.015 -0.0803 -0.2852  0.2307
21378W        W38225  14.312  14.111  16.244  0.5511  0.0769  0.2536
21379W        W38226  11.397  11.014   0.521  0.1986  0.1600 -0.0661
21380W        W38227  10.739  14.679   4.511 -0.0274 -0.1344 -0.2337
21381W        W38228   7.705   5.484   5.457  0.1412 -0.0820 -0.0940
21382W        W38229   0.372   6.412  15.510  0.0268 -0.2787 -0.2653
21383W        W38230  14.547   5.429  12.439 -0.0232 -0.6560 -0.0946
21384W        W38231   9.695   3.661   2.663 -0.2409 -0.0431 -0.1293
21385W        W38232   3.069   1.767   0.725  0.2817 -0.0920  0.0158
21386W        W38233   4.940  11.066   3.300 -0.1233  0.0707 -0.1007
21387W        W38234   1.851   6.315   4.781 -0.0132  0.1143  0.2720
21388W        W38235   5.847  10.758  14.580  0.1753  0.0527 -0.0832
21389W        W38236  14.629  12.582  14.230 -0.2822  0.1326  0.0507
21390W        W38237  17.506   1.057   3.975 -0.1254  0.0471  0.0368
21391W        W38238  17.700  12.611   2.801  0.3148  0.0186 -0.1299
21392W        W38239  16.980   1.656  16.621  0.1590 -0.2693 -0.2733
21393W        W38240  15.494   2.126   2.850 -0.0171 -0.3108 -0.2215
21394W        W38241  13.050   3.680   0.202  0.1786  0.0292  0.0880
21395W        W38242   9.938  14.957  16.590 -0.1492  0.2179  0.0035
21396W        W38243   7.174  10.034   4.343  0.1422  0.1070 -0.1093
21397W        W38244   3.431   7.587  15.931  0.1828  0.0957 -0.1283
21398W        W38245  16.554  10.302  14.476 -0.0321  0.2407  0.1646
21399W        W38246   6.253   3.062  12.113  0.1407  0.4066  0.1673
21400W        W38247  14.250   5.204  16.556  0.3091 -0.1183 -0.1740
21401W        W38248   7.410   6.464  15.517  0.1482  0.1248 -0.0799
21402W        W38249   0.790   3.693   5.477 -0.2342 -0.0571  0.0403
21403W        W38250  12.564   7.444   3.904  0.2293  0.0775 -0.0126
21404W        W38251   8.234  13.053   1.831  0.1220  0.2412  0.2730
21405W        W38252  13.560   3.425  13.617  0.1107  0.1923 -0.1331
21406W        W38253  10.540   5.167  16.712 -0.1399  0.2331 -0.1058
21407W        W38254   2.926   3.007   3.391  0.0644  0.2778 -0.1976
21408W        W38255  16.606   7.057  16.774 -0.2425 -0.0898 -0.0744
21409W        W38256   0.693  11.632  15.817  0.1144 -0.0474  0.0363
21410W        W38257  16.237  11.597   5.586  0.2302  0.1687 -0.2024
21411W        W38258   2.965  13.085   5.925  0.2785  0.2037 -0.3564
21412W        W38259   1.670   4.346  11.479 -0.1453 -0.1210  0.0675
21413W        W38260  16.700  12.905  12.411  0.0224 -0.2992 -0.0009
21414W        W38261   1.838  12.800   3.302 -0.2618 -0.1572  0.1406
21415W        W38262   0.116   6.333   2.878 -0.1958 -0.1318 -0.1329
21416W        W38263  11.762  11.147  12.063 -0.0764 -0.0754 -0.1212
21417W        W38264   0.887  14.691  15.295 -0.2750 -0.2680 -0.0043
21418W        W38265  15.602  12.146   2.904  0.0839  0.2230 -0.0963
21419W        W38266  12.659  16.600  13.121  0.1729  0.1847  0.1725
21420W        W38267   4.056   6.689   2.082  0.2434 -0.1256 -0.0546
21421W        W38268  12.014   0.707   0.509  0.2060  0.2756  0.0776
21422W        W38269  13.418  12.240  13.226  0.1925 -0.2143  0.1208
21423W        W38270   7.542   8.290   2.478  0.0312  0.0832 -0.1891
21424W        W38271  11.971   0.691  12.009  0.0017 -0.0563  0.1213
21425W        W38272   6.487   9.552  11.837  0.0131 -0.3865  0.0223
21426W        W38273   8.198  17.432  11.847  0.1422  0.0564  0.3313
21427W        W38274  14.357   1.975   3.990  0.0548  0.3048 -0.1924
21428W        W38275   8.056  12.498   4.841  0.2582 -0.0537  0.2827
21429W        W38276   8.117  14.705  12.109 -0.1801  0.0154  0.0696
21430W        W38277  10.415   4.644   2.419  0.1186 -0.0847 -0.4073
21431W        W38278   4.277   7.292   1.163 -0.0862 -0.0892  0.0240
21432W        W38279  10.685   3.316   1.762 -0.2398  0.0784 -0.0785
21433W        W38280   6.288   4.436   2.761  0.1969 -0.2047  0.4278
21434W        W38281   4.441  11.101   3.595 -0.0214  0.1201 -0.1165
21435W        W38282   1.708   3.831   0.081  0.0806  0.2109 -0.2253
21436W        W38283   1.736   2.257  13.324  0.0846 -0.2866 -0.0759
21437W        W38284   4.147  15.368  12.578 -0.0862 -0.3207  0.1575
21438W        W38285   2.466  13.644   4.918 -0.1077 -0.0898  0.1126
21439W        W38286   4.465   8.386   3.009 -0.0770 -0.0806  0.1150
21440W        W38287  17.466  17.584   4.268 -0.5320  0.0585  0.1861
21441W        W38288   6.804   1.220  13.873  0.0262 -0.0000 -0.1847
21442W        W38289   7.038   9.116  15.872  0.0523 -0.2713 -0.0666
21443W        W38290   2.881   6.945   0.294 -0.0217 -0.2178  0.1066
21444W        W38291   0.484   4.985  13.040 -0.1432  0.3023  0.1960
21445W        W38292  13.609   0.747  13.366  0.1543 -0.0722  0.2406
21446W        W38293   8.958   1.192  11.339  0.1140  0.1387  0.1306
21447W        W38294  12.118  10.515   5.522 -0.0451  0.0229 -0.1396
21448W        W38295  16.597  10.310  13.556  0.0446  0.1438  0.3913
21449W        W38296   5.433   8.062   1.221  0.1552  0.0227  0.1932
21450W        W38297  15.465   4.969  16.574  0.0624  0.0386  0.2879
21451W        W38298  12.255  11.726  12.998 -0.0925  0.1788  0.2354
21452W        W38299   4.745   3.932  12.838 -0.1933 -0.1516  0.0946
21453W        W38300   9.154  15.577  13.748  0.1395 -0.1812  0.0566
21454W        W38301  14.427   0.167  14.279 -0.1823  0.2274  0.1627
21455W        W38302   9.142   0.414   1.492  0.1404 -0.5405  0.2330
21456W        W38303   2.992  13.009  14.029 -0.1121 -0.0172  0.2252
21457W        W38304   3.528   4.536   5.117 -0.2954 -0.1759 -0.2516
21458W        W38305   2.718  17.166  11.433 -0.1031 -0.2622 -0.0547
21459W        W38306   1.410  12.988   2.074 -0.0366  0.0178  0.1487
21460W        W38307  12.395  13.321  16.521  0.1122  0.1219 -0.2376
21461W        W38308  17.754   7.574   3.643  0.1451  0.0236 -0.2634
21462W        W38309  15.251  17.308   1.211  0.1444 -0.4958  0.0320
21463W        W38310  17.269   1.541   0.301 -0.2634 -0.1565 -0.0471
21464W        W38311   4.996   2.929   1.071  0.0868  0.0692  0.2653
21465W        W38312   5.872   8.668  12.896  0.1299  0.1161 -0.0168
21466W        W38313  15.176   1.644   4.637 -0.4414 -0.0768  0.0155
21467W        W38314  11.694   4.778   2.100  0.0797 -0.0256 -0.0137
21468W        W38315  17.737   5.435   3.825  0.1822 -0.2103  0.3496
21469W        W38316   3.936   4.101   1.242  0.2255 -0.0206 -0.2628
21470W        W38317   1.852  12.911   1.804 -0.2153  0.1703 -0.3522
21471W        W38318  15.995  11.004   6.334 -0.1614  0.0524  0.0552
21472W        W38319   5.351   5.138  12.442 -0.1135  0.0228  0.1807
21473W        W38320  16.708   9.564  10.795  0.0781  0.1980  0.0157
21474W        W38321  13.166   6.203  12.823 -0.0625 -0.0762 -0.0263
21475W        W38322  14.159  12.213   4.984 -0.0593 -0.0040 -0.0151
21476W        W38323  14.112  13.714   5.374  0.1721  0.1000  0.2499
21477W        W38324   4.819   3.567  16.626  0.0460 -0.4482  0.1204
21478W        W38325   6.283  11.633  13.161 -0.1262  0.0737 -0.0153
21479W        W38326   4.391   5.214  16.372 -0.1315 -0.0775 -0.0830
21480W        W38327  17.052  14.477   3.027 -0.0221 -0.0506  0.2532
21481W        W38328   3.195  16.778   2.599  0.0105 -0.1682  0.1016
21482W        W38329   7.273   9.538   0.109  0.1262 -0.0917 -0.1270
21483W        W38330   3.823  17.532   2.867 -0.0555 -0.0508  0.0723
21484W        W38331  11.682   6.409  16.003 -0.1746 -0.0242 -0.1783
21485W        W38332  12.802   3.875   1.857 -0.1130  0.0291 -0.0163
21486W        W38333   5.716  11.233  14.776 -0.3403  0.2232 -0.2886
21487W        W38334   6.480   0.050   2.175  0.1804 -0.0067 -0.0560
21488W        W38335   2.294  11.936   0.507 -0.1043  0.2633 -0.1434
21489W        W38336   9.866  10.772   0.725 -0.1052 -0.0718  0.1832
21490W        W38337   9.477  17.404   4.246 -0.1448 -0.2972  0.0328
21491W        W38338  10.486  12.280  12.471  0.2696  0.3234 -0.0601
21492W        W38339  17.338   6.438  16.410 -0.0295 -0.0433  0.0690
21493W        W38340   5.076  13.795   3.168 -0.0923 -0.1231  0.1608
21494W        W38341  10.146   0.004   5.413  0.1340  0.0352 -0.1742
21495W        W38342  12.297  15.488   2.208 -0.2222 -0.0352 -0.0501
21496W        W38343   1.030   2.757  12.901 -0.2628 -0.1797  0.2216
21497W        W38344  11.377   1.518  15.810 -0.0554 -0.1766  0.1647
21498W        W38345  11.325   9.779   0.012 -0.2033 -0.4073 -0.0397
21499W        W38346   9.778  11.009  13.452 -0.0791 -0.0680  0.0279
21500W        W38347   6.254   9.505  14.380  0.0857 -0.2114 -0.1026
21501W        W38348  16.494   8.947   1.610 -0.0012 -0.3221  0.0536
21502W        W38349  14.875   6.483  15.859 -0.1696 -0.0475 -0.2048
21503W        W38350   5.002   3.766  11.594 -0.1640 -0.0589  0.1850
21504W        W38351  11.130   7.018  15.004  0.4442  0.0696 -0.3835
21505W        W38352  17.586   6.522   4.943 -0.0218 -0.0575 -0.1370
21506W        W38353   8.501   2.696  13.898 -0.0785 -0.1153  0.1737
21507W        W38354  11.209   9.528   2.375  0.2619  0.0630 -0.2176
21508W        W38355  12.829  17.771   5.969  0.2994 -0.1130  0.0697
21509W        W38356  12.332  16.262  13.912 -0.0040  0.0477 -0.0001
21510W        W38357  11.517  12.421   0.352  0.2827 -0.0284  0.0564
21511W        W38358   2.858  16.668  16.760 -0.3606  0.3710 -0.0194
21512W        W38359   2.911   3.004  13.545 -0.0429  0.1816 -0.0934
21513W        W38360  10.377   5.379   3.368  0.0115  0.1226  0.0724
21514W        W38361   6.942  15.114  14.554  0.0461  0.2378  0.1108
21515W        W38362  13.404  13.283   0.577 -0.0869  0.0875  0.1191
21516W        W38363  15.029   5.605   2.550 -0.0679  0.1381  0.1127
21517W        W38364   1.245  11.226  14.498 -0.2808 -0.0176  0.0731
21518W        W38365   4.596   9.441  12.284 -0.0509  0.1373 -0.5502
21519W        W38366  14.727   2.679   0.752  0.2583 -0.0888 -0.0655
21520W        W38367  14.446   9.054   5.802 -0.1029  0.0071  0.0693
21521W        W38368   5.916  12.981  13.394  0.2568 -0.3455 -0.1664
21522W        W38369   1.482   7.694  12.530 -0.2940 -0.1663  0.5368
21523W        W38370  10.870   5.813   2.015  0.1311  0.0511 -0.0373
21524W        W38371   1.164   3.045  11.028  0.3306 -0.0828 -0.0701
21525W        W38372  14.484   7.681   3.941 -0.0943 -0.0110 -0.1788
21526W        W38373   1.336  14.390  13.670  0.0644  0.1820  0.0632
21527W        W38374   5.870   8.771   0.780  0.1752 -0.0156  0.0562
21528W        W38375  16.667  17.601   2.519  0.1824  0.4753 -0.1679
21529W        W38376   0.219  13.914  13.571 -0.2195  0.1269 -0.2356
21530W        W38377   2.594   3.246   2.167 -0.2225  0.0404 -0.0503
21531W        W38378   9.046  16.292  12.086  0.0397 -0.1737 -0.1771
21532W        W38379   2.646  13.701  16.335 -0.2660  0.0948  0.0067
21533W        W38380   3.096   3.300  16.463 -0.1225 -0.1490 -0.1993
21534W        W38381  16.841  15.895   2.430  0.1263  0.0767 -0.0372
21535W        W38382  17.016   9.247   0.807  0.0217  0.1848 -0.0175
21536W        W38383  10.929   8.224   4.243 -0.1768  0.0371 -0.0140
21537W        W38384  11.336  10.041   1.663 -0.2606  0.4207 -0.0991
21538W        W38385   3.839   0.568   4.582  0.0875  0.1606 -0.3049
21539W        W38386  17.759   6.709  13.681 -0.1681  0.0445 -0.0530
21540W        W38387   4.947   6.940   0.764  0.3390  0.0429  0.1556
21541W        W38388  17.423   5.904   2.812 -0.1094  0.0044  0.0722
21542W        W38389   8.806  14.363   0.129 -0.2820  0.1976 -0.1729
21543W        W38390   2.258   7.232   0.109 -0.1007  0.1371  0.0439
21544W        W38391   8.896   0.498  15.749  0.0310 -0.0749 -0.1666
21545W        W38392   7.548   5.782   0.783  0.1200  0.2779  0.0923
21546W        W38393  12.198  15.259   0.947  0.4672  0.3195  0.3739
21547W        W38394  14.716  16.177   3.777 -0.0110 -0.2342 -0.0330
21548W        W38395  12.412   3.398  14.905  0.2108 -0.0630 -0.1405
21549W        W38396   8.921  12.280  16.415 -0.1262 -0.1081  0.4487
21550W        W38397   2.818   6.959  16.523  0.0804 -0.2990  0.1377
21551W        W38398  15.234   1.634   6.061  0.3435  0.1077 -0.1696
21552W        W38399   9.847   8.966   4.187 -0.0399  0.3593 -0.0635
21553W        W38400   7.109   7.821  15.374  0.3205 -0.0578  0.0757
21554W        W38401  11.488  14.644  13.881  0.0776  0.1446  0.1653
21555W        W38402   1.068  14.815   0.778 -0.1582 -0.0651  0.1588
21556W        W38403   7.606  15.979  15.029  0.3588  0.1208 -0.1204
21557W        W38404   0.939   2.360  14.838 -0.0694 -0.1373 -0.0245
21558W        W38405   6.539   5.987   5.256  0.2433  0.1196 -0.0082
21559W        W38406  14.770  11.905  15.907 -0.3088 -0.0092 -0.0144
21560W        W38407  10.739  12.430  15.083  0.3378  0.0682  0.1868
21561W        W38408  10.982   5.652   2.844  0.1903 -0.3598 -0.2422
21562W        W38409   3.077   5.728  11.990 -0.0638 -0.0964  0.0300
21563W        W38410   8.423   0.422   3.481 -0.3776 -0.0598 -0.2853
21564W        W38411  16.827  15.839  12.421 -0.1792  0.0028 -0.1386
21565W        W38412   3.640  11.867   0.269 -0.1218  0.2074 -0.0968
21566W        W38413   7.415   9.838   5.444 -0.1597  0.3409  0.0786
21567W        W38414  10.431   2.691   5.482 -0.1659 -0.3188  0.0709
21568W        W38415  15.349   3.051   2.645  0.0447 -0.2041  0.0768
21569W        W38416   3.135  15.913   4.085 -0.0415 -0.2587 -0.1521
21570W        W38417   4.055   8.782  15.686  0.0366  0.1515 -0.1515
21571W        W38418  15.129  16.354  12.554 -0.2042 -0.1770 -0.0060
21572W        W38419   6.426   5.415   0.422  0.2535  0.3734  0.1672
21573W        W38420   8.334  15.300  12.602  0.0647 -0.2798  0.0720
21574W        W38421   1.962   8.892   0.638  0.2494  0.2848  0.2988
21575W        W38422   4.922  16.702   1.026  0.0762  0.0645  0.1176
21576W        W38423   0.088  14.759   0.509 -0.2853 -0.0305  0.2170
21577W        W38424   9.428  14.216   0.960  0.0640 -0.1106 -0.1075
21578W        W38425   0.097  16.534  13.527 -0.0367  0.0143  0.1758
21579W        W38426  15.009   1.445  13.640  0.1210  0.0184 -0.1273
21580W        W38427   7.876   2.110   5.103  0.1947 -0.0620  0.1196
21581W        W38428  10.067   8.992   0.079 -0.2046 -0.2416 -0.0716
21582W        W38429   0.553   2.772  12.645 -0.0909 -0.0308  0.1329
21583W        W38430   3.015  14.304   4.901 -0.4302  0.0806 -0.1219
21584W        W38431   2.402  16.924   5.055 -0.1659  0.1113  0.3176
21585W        W38432   0.222   7.190   2.904 -0.0160 -0.1573 -0.4708
21586W        W38433   9.501   7.546   5.275  0.0257 -0.2679  0.0285
21587W        W38434  15.258  11.266   2.263  0.1584  0.0241  0.0600
21588W        W38435   6.871  12.458   5.227  0.0620  0.1793 -0.4389
21589W        W38436  17.764   0.189  12.258  0.3660 -0.2513  0.3019
21590W        W38437  14.293   9.334   2.229  0.0929  0.0805 -0.0606
21591W        W38438   6.805   8.359  13.600 -0.1153  0.1184 -0.2184
21592W        W38439   6.906  10.718   3.934  0.1086 -0.0568  0.2425
21593W        W38440   8.431  14.957   3.150 -0.0077  0.0214 -0.1858
21594W        W38441   5.737   9.167  12.375  0.1715 -0.0517  0.1632
21595W        W38442  14.624   0.450  12.799  0.1680 -0.0504  0.2163
21596W        W38443  16.517  11.120   2.876  0.0265 -0.0613 -0.0490
21597W        W38444  17.450  15.211   6.208  0.1871 -0.2005 -0.0574
21598W        W38445  15.241  11.021  15.611  0.0381 -0.0335  0.2589
21599W        W38446   6.051   8.351   2.003  0.0026  0.1901  0.2429
21600W        W38447  11.788  12.802   2.837  0.1620  0.1565  0.2900
21601W        W38448   3.690   9.635  13.781 -0.2696 -0.0351  0.1107
21602W        W38449  16.087  10.279   1.797 -0.0913  0.0564 -0.2125
21603W        W38450  12.452  12.742   5.415 -0.1280 -0.2278 -0.0252
21604W        W38451  17.802   3.537  15.720 -0.0238 -0.0851 -0.0037
21605W        W38452  13.279   0.183   1.213 -0.2822  0.0268  0.1105
21606W        W38453  12.484  12.395  16.030  0.0930 -0.2038 -0.1477
21607W        W38454   7.186   7.738  14.314  0.0099  0.3880 -0.0899
21608W        W38455   3.660  13.436  12.080  0.0848  0.0103  0.1057
21609W        W38456   6.937  11.803  15.768  0.1592  0.0372  0.2533
21610W        W38457  15.125  13.498  15.880  0.2674 -0.2111 -0.0500
21611W        W38458   4.181  12.698  14.427 -0.0623 -0.3153 -0.1780
21612W        W38459   1.467   3.441  13.106 -0.0576 -0.1270  0.3093
21613W        W38460   0.825   0.523   1.559 -0.3703 -0.0124 -0.2504
21614W        W38461   2.362   3.715  15.021 -0.1620 -0.0703  0.0166
21615W        W38462   2.560  17.579  13.578  0.1194  0.0288  0.1696
21616W        W38463  10.850  15.863  16.428  0.0087  0.0030  0.1327
21617W        W38464   3.244  12.260   2.071 -0.2692  0.1533 -0.1698
21618W        W38465   2.183  11.881   1.488  0.3209  0.1523  0.1432
21619W        W38466   1.268  15.167   4.476  0.0571 -0.3891  0.1536
21620W        W38467  13.111   9.430   1.759 -0.0622  0.1913  0.1098
21621W        W38468  10.869   5.750  14.599  0.3220  0.3053 -0.1699
21622W        W38469  10.038  14.034   0.349 -0.0425  0.0663  0.2467
21623W        W38470   3.258   6.446   0.458 -0.2354  0.1274  0.2404
21624W        W38471   7.122   9.568   2.497 -0.0151  0.3527  0.2127
21625W        W38472   3.590   4.763   3.130  0.3680 -0.0873 -0.1738
21626W        W38473  11.773   3.440   3.425  0.0701 -0.1468 -0.2875
21627W        W38474   3.129  14.565   2.662 -0.0251  0.2711 -0.2025
21628W        W38475  15.228  12.920   3.359  0.0755 -0.0337  0.1600
21629W        W38476   5.153  16.256  14.851  0.2001  0.0490  0.1358
21630W        W38477   8.854   6.183   3.030  0.0947 -0.1807  0.3056
21631W        W38478  14.864   3.212   5.030  0.1698 -0.1435 -0.0555
21632W        W38479   9.536  13.166  11.903  0.2085  0.3382  0.1285
21633W        W38480   4.105   1.931   0.798 -0.1311  0.1538 -0.0711
21634W        W38481   9.849   7.054  14.670 -0.1549  0.0694 -0.2603
21635W        W38482   2.797  13.381   0.393 -0.1241  0.0328  0.2042
21636W        W38483   9.923   1.853  12.981  0.2304 -0.0127 -0.2191
21637W        W38484  16.738   8.306  12.033  0.0500  0.0848  0.1762
21638W        W38485   0.033  15.487   4.081 -0.0037  0.0524  0.4440
21639W        W38486   1.283   2.440   4.087  0.1461  0.0914  0.0213
21640W        W38487   5.744   3.176   1.084  0.1326 -0.1625  0.0251
21641W        W38488  14.547   4.236  13.555  0.4402  0.1556 -0.5837
21642W        W38489   8.527  12.033  12.075 -0.0282  0.0014  0.2800
21643W        W38490   5.662  10.199   2.616 -0.3594  0.0841 -0.0023
21644W        W38491   5.569   2.916  11.989 -0.0947  0.2407 -0.1186
21645W        W38492   2.022   1.725  12.768 -0.3707 -0.0013 -0.0069
21646W        W38493  15.021  15.411   0.072 -0.1287  0.0851  0.0449
21647W        W38494   3.692   8.132  14.956 -0.0087 -0.2597  0.0369
21648W        W38495  15.127   3.748  14.346 -0.4147  0.1515  0.0667
21649W        W38496   0.909  12.008   3.004  0.1522  0.0806  0.0514
21650W        W38497  10.294   1.079   1.577 -0.0506  0.0607 -0.1248
21651W        W38498   1.119  13.462   5.982  0.4803  0.3177  0.1893
21652W        W38499  11.858   7.212  14.588  0.1279  0.2965 -0.1693
21653W        W38500  13.686   8.857  15.321  0.2802 -0.0387 -0.1979
21654W        W38501   5.817  12.156   5.856  0.0290 -0.1261  0.1902
21655W        W38502  15.214   0.315   4.236  0.1056 -0.0616 -0.0672
21656W        W38503   2.092   0.891   1.200  0.2505  0.3845  0.1100
21657W        W38504  12.224  17.332   4.236  0.3565  0.2774  0.0575
21658W        W38505  15.576   9.261   2.542  0.2639 -0.1170 -0.2674
21659W        W38506   4.696   0.248  11.951 -0.0579 -0.4171  0.4406
21660W        W38507   4.191  14.524   2.410 -0.3191 -0.1106 -0.0869
21661W        W38508   1.210  13.104   1.600  0.0022 -0.2218 -0.5314
21662W        W38509  14.203   2.208   3.344 -0.2226 -0.0227  0.0621
21663W        W38510   1.718   4.341   5.472 -0.2484  0.1349 -0.2258
21664W        W38511   7.399  14.906   5.583 -0.1598  0.0322 -0.0002
21665W        W38512  11.591   7.852  16.348 -0.1159 -0.0779  0.1331
21666W        W38513  13.189  13.497  15.637 -0.1488  0.1540  0.0695
21667W        W38514   5.002   3.660  12.100  0.1715  0.2237  0.0550
21668W        W38515  15.501  15.520   0.626 -0.3916 -0.2253 -0.2325
21669W        W38516  12.376  16.835   4.014  0.0165 -0.2532 -0.3610
21670W        W38517   4.146  14.380  14.407 -0.0314 -0.1333  0.0289
21671W        W38518   8.062   9.659  13.567  0.0967  0.1600  0.1807
21672W        W38519  12.267   5.129   5.159 -0.1550  0.2846  0.2970
21673W        W38520   6.246  15.440   1.271  0.3625 -0.1175 -0.2170
21674W        W38521  16.051  13.936   0.940 -0.2484  0.1245 -0.0652
21675W        W38522  10.432   6.386  12.956  0.0389  0.3440  0.0394
21676W        W38523  10.352  14.197  13.205  0.0601  0.0925  0.2843
21677W        W38524   7.371  17.259  13.562  0.1065 -0.1397 -0.1601
21678W        W38525   5.096   2.434   0.998 -0.3173  0.1433  0.2633
21679W        W38526   5.666   0.726  15.203  0.0860  0.2693  0.0741
21680W        W38527   0.074   4.827  16.246 -0.1137  0.2683  0.1928
21681W        W38528   6.392   7.616  15.714  0.0178  0.2536 -0.1608
21682W        W38529  14.769  12.841  13.455  0.1648  0.1650  0.1054
21683W        W38530  14.863  13.480   1.729 -0.1822 -0.3185 -0.0740
21684W        W38531   6.735   5.832  14.393  0.1109 -0.0059 -0.0854
21685W        W38532   8.477  17.889  12.763 -0.0398  0.0696  0.1474
21686W        W38533   4.733   1.193   5.813  0.0040  0.0713 -0.1508
21687W        W38534   0.932   8.680   5.865 -0.2159 -0.0269 -0.1455
21688W        W38535  12.206  10.677   2.869  0.1411 -0.3115 -0.1659
21689W        W38536  10.251   4.797  16.142 -0.1275  0.1041 -0.1308
21690W        W38537  11.029  10.897  14.015 -0.0439  0.0863  0.0143
21691W        W38538  17.815   2.170  14.600 -0.1403  0.1216  0.0511
21692W        W38539  13.156  16.137  14.119  0.0404 -0.2685  0.1104
21693W        W38540   3.448   1.464  13.863  0.1131 -0.1384 -0.1061
21694W        W38541  14.235   3.743   3.609 -0.0480 -0.3289  0.4337
21695W        W38542  11.024  11.545  13.637 -0.3582  0.0061 -0.1440
21696W        W38543   4.313  16.524  12.353  0.6014  0.0687 -0.1412
21697W        W38544  12.387   0.855  12.876 -0.0063 -0.2636  0.1546
21698W        W38545   6.782  15.098  13.514 -0.0225 -0.1779  0.3855
21699W        W38546   9.757  12.979  13.587 -0.2232 -0.1304  0.0831
21700W        W38547   1.717  14.909  10.896 -0.0821 -0.0749  0.1404
21701W        W38548  12.856   8.720   5.316 -0.0093  0.1672 -0.2682
21702W        W38549   1.274  16.178  15.605  0.0540 -0.0931 -0.0121
21703W        W38550  16.226  16.885  13.840  0.0488  0.4982 -0.0530
21704W        W38551  15.658   1.369   1.744  0.0621 -0.1056 -0.3762
21705W        W38552   5.653   9.177  11.885 -0.2235 -0.1784  0.1225
21706W        W38553   2.469   3.219  12.815  0.0680 -0.2486  0.0159
21707W        W38554   5.106   1.090  13.507 -0.0471  0.1225  0.1299
21708W        W38555  16.446   0.217  14.147  0.0454  0.1579 -0.2407
21709W        W38556  10.318  10.219   0.031 -0.1179 -0.1060 -0.1821
21710W        W38557   7.958   1.030  13.074 -0.1309 -0.1557  0.0321
21711W        W38558  11.017  10.249   4.452 -0.2393  0.4117  0.0919
21712W        W38559   1.106   4.829   2.365 -0.0843 -0.0915  0.0671
21713W        W38560   2.299   2.386  15.572  0.1343  0.0827 -0.3295
21714W        W38561  11.692   9.706  14.392 -0.0918  0.1067 -0.1117
21715W        W38562   8.602   3.201  12.009  0.2804 -0.0202 -0.3120
21716W        W38563   8.491   4.536   4.888 -0.0093  0.0632 -0.0752
21717W        W38564  10.258   9.773   2.253  0.1858 -0.1977  0.1353
21718W        W38565   4.220   0.198  16.266  0.0444 -0.0903  0.0701
21719W        W38566  15.787  12.797   3.287  0.1448  0.0746 -0.1691
21720W        W38567   8.262  12.565  13.707 -0.0422  0.1050 -0.1198
21721W        W38568   2.294   6.894  16.423  0.0900 -0.1674  0.1205
21722W        W38569   2.912   3.812  13.939  0.0154  0.0936 -0.0751
21723W        W38570   2.886  14.820   4.846  0.2354  0.1811 -0.0429
21724W        W38571   2.407  16.934   0.080  0.1255 -0.0167  0.0558
21725W        W38572  16.185  11.670   1.136 -0.1950 -0.0311 -0.0823
21726W        W38573   5.744   6.120   3.653  0.0101  0.1973 -0.1228
21727W        W38574  16.841  11.762   0.309  0.1960 -0.1939  0.0267
21728W        W38575   7.697  13.223   4.153 -0.3087 -0.0814 -0.0044
21729W        W38576   7.257   3.880   0.569  0.0759 -0.0725  0.2664
21730W        W38577   1.422   1.635  15.592 -0.2471 -0.0941  0.0207
21731W        W38578   7.436  12.289   0.065  0.0888  0.0864  0.3359
21732W        W38579   6.310  11.441  11.814 -0.0144  0.1276  0.2507
21733W        W38580  12.790   5.613   4.538 -0.0308  0.1846  0.0035
21734W        W38581   9.292   2.209  16.095  0.2953  0.1527 -0.0885
21735W        W38582  12.818  13.869   1.883 -0.3590 -0.0488 -0.3770
21736W        W38583   0.245  14.639  12.443  0.0592  0.0356  0.0665
21737W        W38584  13.479  10.892   0.732  0.0017  0.2152  0.1392
21738W        W38585   1.192  15.246  11.813 -0.6694 -0.0596 -0.1487
21739W        W38586   5.680  17.873   0.383 -0.2581  0.1897  0.2059
21740W        W38587  13.105   9.836  14.678 -0.0128  0.3946  0.0414
21741W        W38588  15.882  11.872   4.308 -0.1766 -0.1494 -0.1067
21742W        W38589   3.382   7.254   5.361 -0.1088 -0.0510  0.3843
21743W        W38590   9.239   5.104   5.223  0.2012 -0.0682 -0.0673
21744W        W38591  17.297  16.846  14.536 -0.3664 -0.0866 -0.0407
21745W        W38592  11.764  14.129  15.284 -0.1494 -0.0541  0.2151
21746W        W38593   1.672   9.063  13.066 -0.3174 -0.1021 -0.0374
21747W        W38594  14.895  17.723  16.260  0.0412  0.1459  0.0933
21748W        W38595   8.748   6.756  14.446  0.0080  0.4411  0.0149
21749W        W38596   2.314  12.339  16.353 -0.3135  0.0522  0.3358
21750W        W38597  11.398  12.956  12.365 -0.0145 -0.0119  0.3005
21751W        W38598   3.249  13.182   0.464  0.0205 -0.1816  0.1677
21752W        W38599  13.588   9.831  12.428 -0.1809  0.1715  0.0061
21753W        W38600   3.963   5.556   0.307  0.0273  0.1816 -0.1503
21754W        W38601   9.091  15.111  13.008  0.0055  0.0138  0.1089
21755W        W38602  13.937  11.519   2.475  0.2350 -0.4569  0.0932
21756W        W38603  13.538  16.350  13.372 -0.0394  0.0216 -0.0320
21757W        W38604   2.208  12.498  13.093  0.2217  0.0458 -0.3106
21758W        W38605   8.794  13.259  12.753  0.3688 -0.1511 -0.4284
21759W        W38606   9.643   1.843  15.079 -0.0562 -0.0731 -0.2622
21760W        W38607  11.344  15.332   4.521 -0.4103  0.2199 -0.0243
21761W        W38608  10.773  13.393  14.227 -0.0884 -0.1158  0.0600
21762W        W38609  11.347  15.536  15.298 -0.2469  0.2345 -0.1293
21763W        W38610  15.113   5.317  13.318  0.0313  0.1839  0.1931
21764W        W38611   0.620   5.673  13.371  0.1435 -0.0288  0.3364
21765W        W38612   6.171   9.527  13.119  0.3188 -0.2748  0.2811
21766W        W38613   3.011   4.620  16.430 -0.2723  0.0414  0.0153
21767W        W38614  10.271   0.685   4.782  0.0572 -0.0267 -0.4008
21768W        W38615  14.658  13.729  16.101 -0.1162  0.1684 -0.0632
21769W        W38616   8.952   6.642   3.655 -0.1790  0.3216 -0.0098
21770W        W38617   6.062  11.103   0.747  0.4378 -0.4802 -0.1094
21771W        W38618  15.349   5.677   0.000 -0.0577  0.2353  0.0227
21772W        W38619  11.355   7.773   3.073 -0.3150 -0.2329 -0.0184
21773W        W38620   8.726   7.987   2.137  0.4319  0.1433 -0.0567
21774W        W38621   8.321  11.692   4.373  0.3241 -0.1914  0.1869
21775W        W38622   7.874   3.161   2.932  0.1097  0.1566  0.1402
21776W        W38623  14.846   9.789  11.567  0.0178 -0.0266 -0.3457
21777W        W38624   0.193  13.938   2.594 -0.0938 -0.1389  0.0469
21778W        W38625   2.636  12.717  13.229 -0.0708  0.1542  0.1101
21779W        W38626  17.752   4.925   5.029  0.2940 -0.0916 -0.0271
21780W        W38627  10.803  14.267  11.840 -0.1549 -0.0702  0.4273
21781W        W38628   7.852  10.096  16.467 -0.1269 -0.2918 -0.1079
21782W        W38629  13.099   7.255  15.232  0.0000  0.0704 -0.1193
21783W        W38630  13.608  10.129   0.904 -0.3324  0.1876  0.0977
21784W        W38631  16.052  15.181  13.454  0.1418 -0.0812  0.2249
21785W        W38632   9.186  11.733   5.386 -0.0564 -0.1463  0.2599
21786W        W38633   1.241   5.876  13.141 -0.0858 -0.1498  0.1779
21787W        W38634   2.878   9.265  11.901  0.3800 -0.4247 -0.4627
21788W        W38635   8.155  17.926   4.622  0.2262  0.2265 -0.2744
21789W        W38636  17.593   5.785  14.532  0.3406 -0.0127  0.0661
21790W        W38637   1.861  17.739   0.217  0.0721 -0.0543 -0.0130
21791W        W38638  14.001   4.132  16.661 -0.1414 -0.3072 -0.1128
21792W        W38639  11.866  17.277  15.617 -0.1635 -0.1354 -0.0897
21793W        W38640   9.970   6.239   2.063 -0.4232 -0.2253 -0.1333
21794W        W38641  16.059   5.441   2.066 -0.0388  0.0433 -0.2461
21795W        W38642   5.762  15.729   3.076  0.1411  0.0429 -0.1461
21796W        W38643   9.039   9.061  15.350 -0.2153  0.1246  0.1277
21797W        W38644  14.304   2.280   2.074 -0.2620 -0.1239 -0.3478
21798W        W38645  14.882   1.192  13.184 -0.1825 -0.1772 -0.0536
21799W        W38646   4.335   6.522  14.242 -0.0455  0.1346  0.0582
21800W        W38647   1.627   0.068  14.448  0.1873 -0.2465  0.2678
21801W        W38648   2.444   0.508   4.278  0.1769 -0.0952  0.0595
21802W        W38649  16.800  11.944  15.583 -0.3610  0.3793 -0.0456
21803W        W38650   0.546  15.248  12.646  0.0772 -0.1488  0.0073
21804W        W38651  11.749   3.714   3.822  0.0924 -0.3336  0.2762
21805W        W38652  11.256   9.676  12.232  0.1833 -0.1406 -0.2107
21806W        W38653   9.319  10.593  12.246  0.0281 -0.0921  0.0501
21807W        W38654  10.198   2.890   4.026 -0.0534 -0.1565 -0.0642
21808W        W38655   7.144  14.968  13.057  0.1512  0.2303 -0.1256
21809W        W38656  12.723  16.400  13.574 -0.3257 -0.2149 -0.3379
21810W        W38657   4.784  15.251   0.826  0.3581  0.3254 -0.0053
21811W        W38658  13.308  17.108   1.333 -0.1498  0.1221  0.0822
21812W        W38659  11.208   1.125   3.760  0.0362 -0.1257 -0.2058
21813W        W38660   6.763   8.454   5.573 -0.1659  0.1594  0.0162
21814W        W38661   5.629   3.071  13.809  0.1131 -0.0092  0.1913
21815W        W38662   8.842   0.097   2.796  0.0926  0.0030  0.0681
21816W        W38663  10.749   3.979  12.127  0.3003  0.2756  0.1442
21817W        W38664   9.552   0.347   3.246  0.0789  0.1243 -0.1752
21818W        W38665   1.763  15.444   3.485  0.1474 -0.2248  0.0115
21819W        W38666   2.380   3.036  13.284  0.0304 -0.2516  0.1426
21820W        W38667  15.701  16.303  12.404  0.0173 -0.0929  0.0522
21821W        W38668   3.785   6.107  13.017  0.1414  0.1799 -0.1922
21822W        W38669  10.986  13.966  15.168 -0.2033  0.0820  0.0683
21823W        W38670   3.257   4.041  15.761 -0.0369 -0.1066 -0.0246
21824W        W38671   6.600  12.655  16.163  0.2243 -0.0495 -0.1011
21825W        W38672  12.464  11.976  15.053 -0.2685 -0.1792 -0.0237
21826W        W38673   5.782  15.939   4.673  0.1351  0.3976  0.0104
21827W        W38674   3.863   7.326  14.293  0.2223  0.3671  0.1357
21828W        W38675   3.913   2.748  15.359 -0.3168  0.2676  0.0143
21829W        W38676   7.582   0.990   3.897 -0.1400  0.2906 -0.0341
21830W        W38677   7.990   4.006   4.212  0.0183  0.0153  0.1081
21831W        W38678  17.475   0.258  15.391 -0.4773 -0.0884 -0.4278
21832W        W38679   5.685   3.618   2.527 -0.2037 -0.0085  0.1605
21833W        W38680   8.946   5.477   5.126  0.0155 -0.0068 -0.1049
21834W        W38681   1.663   1.075  12.851 -0.0577 -0.0665  0.2716
21835W        W38682  16.502   0.325  14.718  0.0897 -0.1034 -0.0015
21836W        W38683  13.303  16.964   0.390 -0.0313  0.0272  0.2907
21837W        W38684  11.670  10.754   1.137 -0.3227 -0.1902 -0.2688
21838W        W38685  13.988   9.328   5.244 -0.1927  0.4605  0.1587
21839W        W38686   4.068  16.081  13.192  0.0780  0.1160  0.2108
21840W        W38687   9.331   1.154   1.565 -0.0819  0.3315  0.2414
21841W        W38688  12.053  14.206   2.177 -0.0649 -0.0851 -0.1827
21842W        W38689   2.833  15.336  12.682  0.1837  0.0798  0.2157
21843W        W38690   3.917   1.214  12.768 -0.2035 -0.1575  0.1276
21844W        W38691   2.357   8.278  12.047 -0.0622 -0.0757  0.1343
21845W        W38692   6.124  16.532  12.434  0.2325  0.0014 -0.1600
21846W        W38693  13.351   4.711   0.210 -0.1313 -0.0660  0.2005
21847W        W38694   3.634  14.804  15.487 -0.1020  0.2163 -0.0873
21848W        W38695   7.031  11.742   5.085  0.2244  0.0736  0.0393
21849W        W38696   8.418  10.852  15.868 -0.3742 -0.0031 -0.0635
21850W        W38697   8.488  14.422  12.363 -0.0405 -0.2275 -0.0077
21851W        W38698   7.833  10.799   1.646  0.1189  0.1222 -0.0693
21852W        W38699   1.924  11.229  15.545  0.1097  0.2157 -0.0449
21853W        W38700   3.727   8.990   5.301  0.2420  0.0154  0.1442
21854W        W38701  14.981  15.527   6.516 -0.3393  0.1973 -0.3063
21855W        W38702  13.788   0.076   4.219  0.1085 -0.1684 -0.3256
21856W        W38703  12.049  17.742   5.484 -0.0475 -0.0996  0.2951
21857W        W38704   7.776   4.413  11.904  0.0934 -0.1870  0.1677
21858W        W38705   5.035   9.431   1.692  0.1358 -0.2653 -0.1396
21859W        W38706   8.628  14.343   0.994  0.2632 -0.1597 -0.0603
21860W        W38707   7.173   2.755  11.020  0.0556  0.0859 -0.0493
21861W        W38708   5.830   6.801  16.377 -0.0186  0.3612  0.1743
21862W        W38709  11.197   0.248  15.812  0.0658  0.1084 -0.0349
21863W        W38710  15.169  10.275   3.304  0.1779 -0.0447 -0.0876
21864W        W38711   5.210  17.065  15.061  0.1662 -0.5622  0.2879
21865W        W38712   6.170  12.631  13.610  0.0257  0.0328 -0.2717
21866W        W38713   4.640  14.913   0.318  0.1858  0.0082 -0.1530
21867W        W38714   5.742   0.712  13.559  0.1460  0.0831  0.0280
21868W        W38715   6.221   7.355   4.967  0.2758  0.2499 -0.3599
21869W        W38716   9.455  16.022   4.619  0.2602 -0.0129 -0.1106
21870W        W38717   7.652   4.564  12.519 -0.0286 -0.0388  0.1644
21871W        W38718  16.250   3.009  14.539  0.3805 -0.1656 -0.0503
21872W        W38719  16.231   2.079   5.147  0.0180 -0.1699 -0.0144
21873W        W38720   9.668  12.398   0.604 -0.1270 -0.0227 -0.0193
21874W        W38721  14.818   3.555  12.742  0.2026 -0.1152  0.0221
21875W        W38722   9.884   4.525   2.919  0.2259 -0.0755  0.3151
21876W        W38723   5.255  10.659   3.441 -0.0627 -0.0673  0.0254
21877W        W38724   9.396   4.148   4.131 -0.0214 -0.1232 -0.2547
21878W        W38725  16.888   5.517   4.137  0.0856 -0.1563  0.0017
21879W        W38726   9.737  11.334   0.145 -0.1297  0.0853  0.1916
21880W        W38727  15.766  14.904   0.047 -0.1583  0.1400  0.0447
21881W        W38728  16.811  10.244   2.335  0.0999  0.1668  0.0911
21882W        W38729  10.938   8.680   4.905 -0.4465  0.1913  0.1149
21883W        W38730  11.471   6.354   0.213 -0.1632  0.1630 -0.0907
21884W        W38731  17.521   3.163  15.160  0.0162 -0.1235 -0.0639
21885W        W38732   3.696  15.381   4.671 -0.0896 -0.3086  0.0823
21886W        W38733  10.159   6.076   0.098  0.1617  0.0875 -0.1740
21887W        W38734  17.378  16.672   4.290 -0.0308 -0.2210 -0.0176
21888W        W38735   9.765   5.051  14.822  0.1482 -0.0572  0.1262
21889W        W38736  13.710  16.279   4.261 -0.1920  0.1853 -0.1967
21890W        W38737  17.947   4.358   0.438  0.0558 -0.0344 -0.2746
21891W        W38738   9.080  16.005  16.557  0.0307  0.0899  0.1244
21892W        W38739  17.720  12.985   0.435 -0.0234 -0.4079 -0.1248
21893W        W38740  16.547   8.094   3.115 -0.1607  0.2537  0.2773
21894W        W38741   8.894  13.951   4.206 -0.3010  0.0807  0.0050
21895W        W38742  12.047   5.432   4.051  0.0983  0.0897  0.2100
21896W        W38743   2.925   5.612   3.279 -0.1648  0.0258 -0.0880
21897W        W38744   1.276  12.225  12.843  0.0393  0.0965  0.3195
21898W        W38745   2.717   8.069   4.962 -0.4144 -0.2972 -0.2664
21899W        W38746   7.091   7.347   0.854  0.0257  0.4545 -0.1804
21900W        W38747   6.206  17.211  10.052  0.0261 -0.1158  0.2218
21901W        W38748   6.629   3.808  13.863 -0.1363 -0.1805  0.1016
21902W        W38749   5.731   6.591   2.953 -0.1330 -0.0528  0.1857
21903W        W38750  15.238  15.563  13.959 -0.1505 -0.1232  0.2928
21904W        W38751   3.162   1.602  14.885 -0.4024  0.2275  0.0968
21905W        W38752   0.011   3.523   2.764 -0.0330 -0.1665 -0.0887
21906W        W38753   0.489   8.529   5.140  0.0210  0.3173 -0.0372
21907W        W38754   6.671   3.132   5.350 -0.0336 -0.0967 -0.2321
21908W        W38755   1.955   1.390  16.659  0.2022 -0.1704  0.2201
21909W        W38756   0.158   7.598   3.135  0.3726  0.0479 -0.0838
21910W        W38757   6.262  11.535   4.227 -0.3808 -0.0039  0.2183
21911W        W38758   2.182   1.249   0.861 -0.2167  0.3618 -0.0654
21912W        W38759   1.331   9.516  13.851  0.1736 -0.1154  0.0039
21913W        W38760  11.890  16.091  15.556 -0.2772  0.2070 -0.3320
21914W        W38761   2.133  13.043  14.383  0.2782 -0.1763  0.1801
21915W        W38762  12.555   2.431   4.212  0.0929  0.2063 -0.0379
21916W        W38763  14.688   4.059  12.607 -0.0584  0.3144 -0.0066
21917W        W38764   9.163  13.338  13.661 -0.0007  0.1660 -0.1057
21918W        W38765   1.015  10.952  13.590 -0.0641  0.0691 -0.0758
21919W        W38766   3.866   3.684  15.441  0.1218 -0.0474 -0.0002
21920W        W38767   7.632  14.436   3.268  0.0808 -0.1168 -0.2627
21921W        W38768   9.018   3.213   3.880  0.0656 -0.2202 -0.2868
21922W        W38769   1.102   2.128   2.684  0.3354 -0.1957 -0.0970
21923W        W38770   1.196  13.286  12.837 -0.0824  0.0422 -0.1275
21924W        W38771  12.290  17.218   3.155  0.0388 -0.0757 -0.0188
21925W        W38772  11.704   9.883   1.359 -0.4365 -0.0333 -0.1161
21926W        W38773  11.223   7.178   1.290 -0.1317 -0.0791  0.1472
21927W        W38774   5.162  10.356   0.216  0.0016  0.0404  0.0246
21928W        W38775   0.527  14.481  16.603  0.1228 -0.3639  0.0839
21929W        W38776   1.394   3.625   3.856  0.1815  0.0509 -0.1337
21930W        W38777  14.098   0.189   4.592  0.0200  0.1904 -0.0885
21931W        W38778   5.544  17.288   0.962  0.1702 -0.0423 -0.3704
21932W        W38779  10.409   5.805  13.489  0.1849 -0.2255  0.0314
21933W        W38780  13.243  15.671  14.044 -0.2634  0.0155  0.0189
21934W        W38781   0.221   7.488  13.598 -0.1147 -0.0146  0.0025
21935W        W38782  17.808  10.191   3.712  0.0387  0.0198  0.1454
21936W        W38783   8.169   9.271   1.668 -0.2574  0.0886 -0.3021
21937W        W38784  10.098   6.961   2.980 -0.2346 -0.0586 -0.0491
21938W        W38785   8.993   9.947   0.775  0.1379 -0.1838  0.2823
21939W        W38786   4.975  16.038   2.694  0.5748  0.1048 -0.0143
21940W        W38787   6.115  15.811  12.433 -0.0605 -0.0412  0.2866
21941W        W38788  13.199   2.537   2.571 -0.1721  0.0663 -0.1513
21942W        W38789  11.292  13.532  12.282 -0.1467  0.1834 -0.0750
21943W        W38790   0.793  11.295   1.296  0.0384 -0.0340  0.1467
21944W        W38791  11.894  15.733   1.057  0.2488 -0.0183 -0.1582
21945W        W38792  10.749   8.580  16.051  0.0014  0.0910  0.0749
21946W        W38793  11.167   2.916  14.042  0.1239 -0.0786 -0.0793
21947W        W38794  17.518   2.621  15.289  0.2194  0.0144 -0.2341
21948W        W38795  13.136   6.806   5.214  0.0048 -0.2101  0.0818
21949W        W38796  10.074   5.550   1.159  0.1395  0.0258  0.3595
21950W        W38797   7.140  14.531   4.696  0.2607 -0.2884  0.4489
21951W        W38798  15.280  11.910   3.246  0.2241  0.3624 -0.2878
21952W        W38799  10.021  15.493  12.348 -0.2015  0.1775 -0.1051
21953W        W38800  13.301   0.994   3.961  0.1116  0.0688  0.2864
21954W        W38801  14.853   0.704  16.692  0.0071  0.1063  0.1609
21955W        W38802  10.414   7.273  12.996  0.3700 -0.1572  0.0645
21956W        W38803  14.162  12.324  15.142  0.1230 -0.1481  0.0194
21957W        W38804   9.006   1.654  12.791 -0.3528  0.0399  0.2673
21958W        W38805   4.798  12.303   3.712  0.0580  0.1513 -0.3079
21959W        W38806   5.401   3.654   5.667  0.0561 -0.0642  0.2942
21960W        W38807   6.214   8.631   1.105  0.3280 -0.0555 -0.2778
21961W        W38808  17.443  11.532   3.648 -0.2878  0.0506  0.1878
21962W        W38809  13.655   0.658  14.944  0.0034 -0.2137 -0.1642
21963W        W38810   7.130  10.652   1.633  0.2799 -0.1674 -0.3044
21964W        W38811   7.792  16.610   4.627  0.0009 -0.1724  0.2661
21965W        W38812  11.185  12.966   1.014  0.0312 -0.1360  0.1149
21966W        W38813   8.923  11.013  13.196 -0.3449  0.2613 -0.0829
21967W        W38814   4.638   8.662  14.943 -0.1587 -0.0393 -0.0099
21968W        W38815  11.158  13.630   1.380  0.0476 -0.0652 -0.1624
21969W        W38816   8.760   6.862  12.436  0.1153  0.0608  0.1533
21970W        W38817  10.829  12.734  15.577 -0.1320 -0.4154  0.1437
21971W        W38818   1.774  17.199  14.815  0.1232 -0.1476 -0.1114
21972W        W38819  16.236   9.681  14.291 -0.0592  0.1050 -0.0914
21973W        W38820   0.028   6.815   0.900 -0.0427 -0.1358  0.0189
21974W        W38821  15.710   0.730   2.516  0.0014 -0.3308  0.0786
21975W        W38822  13.760  14.546  14.149 -0.1555  0.0515 -0.1197
21976W        W38823  15.184  17.850   2.498 -0.1430 -0.0338  0.0185
21977W        W38824  11.176   1.162  13.036 -0.1520 -0.1084 -0.0887
21978W        W38825  16.462  17.436  14.643  0.2909  0.0946  0.1402
21979W        W38826  14.228   4.812   1.483 -0.2236 -0.0084 -0.0299
21980W        W38827   6.440   0.868  15.771  0.0336  0.0250 -0.2412
21981W        W38828  15.709   4.126   1.448 -0.0787  0.1205  0.2453
21982W        W38829   6.435  17.589  14.452 -0.0914 -0.0448  0.3916
21983W        W38830  10.360   1.979  11.278 -0.0640 -0.1230  0.1908
21984W        W38831   9.098   9.861  13.445  0.2065 -0.0720  0.1617
21985W        W38832   5.061   1.739  11.573 -0.0141  0.1374 -0.0739
21986W        W38833   0.266  14.448  14.562 -0.1782 -0.0335  0.0204
21987W        W38834   6.906   6.623  13.054  0.0959 -0.4068  0.0298
21988W        W38835   7.029   1.780   0.930 -0.0601  0.0141 -0.1286
21989W        W38836  10.899  16.967   4.497  0.1178 -0.3810  0.2577
21990W        W38837  15.756   2.212  16.355  0.0934 -0.0162  0.2282
21991W        W38838   3.876   9.227   2.860  0.1171 -0.1004 -0.1452
21992W        W38839  14.614   7.920  16.204  0.0934 -0.3685  0.2104
21993W        W38840   8.379   0.625   5.025 -0.1134 -0.0156  0.1238
21994W        W38841  15.309   7.012   0.650 -0.0137  0.1228  0.0011
21995W        W38842   1.024   9.398  14.828  0.1324  0.0121 -0.1272
21996W        W38843   0.954  16.305   4.429  0.1156  0.1880 -0.3060
21997W        W38844   2.158   6.062  16.213  0.0340  0.3047 -0.3330
21998W        W38845   4.575   8.270   2.487 -0.4275 -0.2605  0.1047
21999W        W38846  12.858   0.316   0.983 -0.1473  0.1222  0.5093
22000W        W38847  11.858   9.833  15.243  0.2089 -0.2789 -0.0103
22001W        W38848  12.195  13.081  13.951 -0.0231  0.0323  0.2430
22002W        W38849   5.778   0.692   5.772  0.0374 -0.0635 -0.3793
22003W        W38850  10.552  14.226  15.437  0.0025 -0.2240 -0.2641
22004W        W38851   6.584   1.680  12.701 -0.2212 -0.1833  0.0541
22005W        W38852   4.687  10.365   4.399 -0.0642 -0.2778  0.2887
22006W        W38853  16.060   4.341   1.867  0.2131  0.1816  0.1573
22007W        W38854   4.912  12.133  13.044  0.0591  0.0585 -0.1163
22008W        W38855  17.931   0.601  16.293 -0.3696 -0.0052 -0.1507
22009W        W38856   9.224  16.157  14.278 -0.1041 -0.3295  0.5060
22010W        W38857  15.016  12.357  14.000 -0.3152 -0.2683 -0.0471
22011W        W38858  17.742   9.538   5.027 -0.3371  0.1104 -0.1341
22012W        W38859   9.715   5.307   2.501  0.1393  0.0622 -0.0178
22013W        W38860   6.482   4.591   5.275 -0.3958 -0.0849  0.0831
22014W        W38861   5.916   7.484  14.688 -0.1118 -0.0182  0.0935
22015W        W38862   4.391  13.652   4.531 -0.2384 -0.0080  0.3196
22016W        W38863   4.257   7.982   1.850  0.0342  0.0345 -0.0942
22017W        W38864   9.432   4.637  14.717  0.1743  0.2336  0.2676
22018W        W38865  12.598  16.956   6.290 -0.1081 -0.2162  0.2333
22019W        W38866   9.355  11.382   4.177  0.2146 -0.0208  0.1218
22020W        W38867   7.143  13.124   2.487 -0.0118  0.1051 -0.0355
22021W        W38868  12.737   8.894  12.710  0.0202  0.0896  0.1972
22022W        W38869  16.015   3.716  15.707 -0.1897 -0.0756  0.2052
22023W        W38870  15.111  14.467   4.382 -0.2358  0.0119  0.5071
22024W        W38871   2.590  17.826  14.061 -0.1865  0.0953  0.1378
22025W        W38872   0.242   7.857  16.532 -0.1917 -0.0706  0.1891
22026W        W38873   7.165   4.096   4.653 -0.3124  0.1560 -0.2009
22027W        W38874   7.325  12.845  14.877  0.1337 -0.0164 -0.0491
22028W        W38875   1.542   1.143  11.330 -0.1285  0.0651  0.1690
22029W        W38876  11.027  17.205  15.715 -0.1273  0.0782  0.1105
22030W        W38877   1.125   8.478   3.279  0.2166 -0.1723 -0.1144
22031W        W38878  11.254   6.926   5.816  0.0663  0.0265 -0.0871
22032W        W38879   7.581   5.729   3.339  0.2580 -0.0587 -0.0254
22033W        W38880  14.908   0.729  14.971 -0.3478 -0.1039  0.2699
22034W        W38881  10.447  12.410   6.536  0.1949 -0.4425  0.1685
22035W        W38882   9.219   5.502   2.416 -0.1035  0.1532 -0.0106
22036W        W38883   2.255   2.759   1.458 -0.1391 -0.0231 -0.1919
22037W        W38884  16.558   0.798  15.693 -0.0592  0.4135  0.0519
22038W        W38885  14.572  10.381   1.153 -0.0376  0.2120 -0.0114
22039W        W38886   6.547   7.532   3.077  0.0479  0.1268  0.0185
22040W        W38887   5.567  10.839   5.848 -0.0964 -0.0810  0.1380
22041W        W38888  11.833  11.258   0.231  0.0862 -0.1691  0.2322
22042W        W38889   1.802  10.619  13.083 -0.0158  0.2504  0.0885
22043W        W38890   0.838   7.009  12.565 -0.0660 -0.0758  0.0879
22044W        W38891   8.774  10.640   1.321  0.1707 -0.1760  0.1030
22045W        W38892  12.054   8.366  15.839 -0.0837  0.0293  0.0532
22046W        W38893   6.984   6.621   3.495 -0.0239  0.0464  0.2882
22047W        W38894   2.690   9.758  14.478 -0.2583 -0.1459  0.0706
22048W        W38895  10.854  17.794   0.189  0.1891 -0.1394 -0.0419
22049W        W38896  12.274  15.761  12.839  0.2176  0.0827  0.0265
22050W        W38897   8.567   5.775   5.241  0.0034 -0.2952 -0.4735
22051W        W38898  12.598   6.869  14.484 -0.1907 -0.3739 -0.0150
22052W        W38899   7.128  10.584   1.035 -0.0185  0.2185 -0.1441
22053W        W38900   8.627  14.742   6.520 -0.2356  0.0324  0.3755
22054W        W38901   9.825   4.071  11.793  0.2058 -0.0691  0.0872
22055W        W38902  17.148   2.722  13.393  0.1913 -0.2114 -0.0178
22056W        W38903  15.457  12.775  16.406  0.2670 -0.4296  0.2507
22057W        W38904  10.224   7.821  11.990  0.0981  0.0659 -0.1561
22058W        W38905   2.671  13.074   0.800 -0.1569  0.0675  0.2414
22059W        W38906   3.348   5.553   0.438  0.1404  0.0021  0.3222
22060W        W38907  14.660   1.782  15.466 -0.0163  0.2621 -0.0812
22061W        W38908   6.219   1.904   0.222 -0.4792  0.0219  0.0299
22062W        W38909   3.691   1.883  15.692  0.1252 -0.0562  0.2201
22063W        W38910   9.391   1.913  13.006  0.2313 -0.0029 -0.0439
22064W        W38911  10.576   3.534   4.493  0.0414 -0.0078 -0.0466
22065W        W38912  11.265  10.332  14.544 -0.0288 -0.2278 -0.2297
22066W        W38913  15.341   5.643   1.688 -0.1714 -0.0396  0.1756
22067W        W38914  14.879  14.116  13.521 -0.2278 -0.1504 -0.2415
22068W        W38915  13.619  10.318  11.798  0.2354 -0.1486  0.1967
22069W        W38916   0.730   6.677  12.231 -0.1216 -0.1133 -0.0646
22070W        W38917   0.696  12.086  12.981 -0.5071 -0.1421 -0.1529
22071W        W38918   5.399   6.967  13.047 -0.1715  0.0183 -0.0709
22072W        W38919   1.622   0.099  13.081 -0.0948 -0.0354 -0.0012
22073W        W38920   2.128   5.878  15.397  0.1538 -0.0509 -0.1353
22074W        W38921  14.284   9.929   1.017  0.1162  0.2587  0.2060
22075W        W38922   2.213   3.236   1.706  0.0486  0.2204  0.0083
22076W        W38923  10.764  12.494   5.582 -0.1899 -0.1294 -0.3405
22077W        W38924   2.494   9.488  15.622  0.1141  0.3023 -0.2269
22078W        W38925  11.666  14.216   0.701  0.0226  0.2638  0.3146
22079W        W38926   2.100  16.520   0.113 -0.0587 -0.0248 -0.0897
22080W        W38927   4.947   9.739   3.686  0.0423 -0.2247 -0.4029
22081W        W38928   3.018   4.528  12.452 -0.1422 -0.0483  0.3830
22082W        W38929  14.794  15.413   2.246 -0.1187  0.0387 -0.1537
22083W        W38930   9.434   4.404  12.440 -0.0275  0.0981 -0.1876
22084W        W38931  11.822   9.895   4.183 -0.0530  0.1133 -0.1030
22085W        W38932   8.758  13.126   4.205 -0.2618 -0.1009  0.0545
22086W        W38933   5.971  15.539   2.361 -0.0634  0.1934 -0.1487
22087W        W38934  17.271   8.897   5.465  0.2663  0.2827  0.1225
22088W        W38935   3.427  11.854   2.341 -0.0651  0.0206  0.2979
22089W        W38936  12.741  11.567  16.103  0.1001  0.1608  0.0878
22090W        W38937  12.562  13.716  13.277  0.0855 -0.1204  0.0333
22091W        W38938   6.124   9.626   3.672 -0.1428  0.0552 -0.2047
22092W        W38939   8.955  11.905  13.314  0.1744 -0.0800  0.1777
22093W        W38940   8.998  14.651  12.141 -0.1260 -0.2772  0.3522
22094W        W38941  16.263   6.425   3.312 -0.0625  0.0151 -0.1880
22095W        W38942   0.631  16.540   1.613  0.2520 -0.0511 -0.2413
22096W        W38943  12.872   0.080  11.678  0.2647 -0.0171  0.1112
22097W        W38944   1.855  15.149   1.484  0.1048 -0.1639 -0.0237
22098W        W38945  17.460  15.875   6.118  0.0703  0.0206 -0.0202
22099W        W38946   6.820   2.335   1.348  0.2050  0.1155 -0.1529
22100W        W38947   4.930  14.922  14.074 -0.2725 -0.0790  0.1148
22101W        W38948  17.924  17.559   3.181 -0.1128  0.1461 -0.2000
22102W        W38949  14.182  14.497   3.307 -0.0948 -0.0098 -0.1557
22103W        W38950   2.173   4.618  13.111 -0.1065  0.2387  0.2277
22104W        W38951  13.029  15.240   4.022  0.2288  0.2429  0.0966
22105W        W38952   9.456   3.000   4.285 -0.2450 -0.2444 -0.3195
22106W        W38953  10.147   2.059  13.518  0.0111 -0.1382  0.1853
22107W        W38954   1.648   2.038   0.920  0.2008 -0.2722 -0.1665
22108W        W38955  17.675   9.475   1.412 -0.0862  0.2039 -0.0016
22109W        W38956   0.011   3.504  11.592 -0.1878 -0.2183  0.2036
22110W        W38957  15.348   3.326  15.606  0.0449  0.3163  0.0884
22111W        W38958  12.641  11.983   1.881 -0.0251 -0.2687  0.0118
22112W        W38959  10.304   8.044  16.768  0.1790  0.0628  0.0267
22113W        W38960  17.729   8.759   3.621  0.0530 -0.2695  0.0401
22114W        W38961  17.326  15.278   4.688  0.0510  0.0317  0.0527
22115W        W38962  13.937   0.425  13.518  0.1164 -0.0240 -0.0378
22116W        W38963   4.980  14.423   2.142  0.0749 -0.3005  0.0379
22117W        W38964   2.528   0.807   0.895  0.3742 -0.0743  0.0836
22118W        W38965  15.645   0.376  15.627 -0.0459  0.1635  0.0096
22119W        W38966  17.832   6.731  16.308  0.2072 -0.1645  0.2637
22120W        W38967   7.794  12.514  13.570  0.3757  0.1489  0.0260
22121W        W38968   0.228   9.076  12.362 -0.0464  0.1102  0.0307
22122W        W38969  17.422   3.594  11.500 -0.0510  0.1322  0.3787
22123W        W38970  13.536  17.356  16.770 -0.0222  0.2254 -0.1790
22124W        W38971   9.729   6.394   0.608 -0.0175  0.1080 -0.1524
22125W        W38972  17.078  16.891  16.430  0.1491  0.1128 -0.0878
22126W        W38973   5.071  14.509   4.942  0.0113 -0.1340 -0.1267
22127W        W38974   4.025  15.634   0.112  0.1654  0.2294 -0.5367
22128W        W38975   3.072  14.744   1.027 -0.1544  0.0090 -0.3923
22129W        W38976  15.319  13.410   3.431 -0.1761 -0.1011  0.0852
22130W        W38977  17.692   1.857  15.664 -0.2642  0.3522  0.1157
22131W        W38978  14.262   8.462   1.788  0.0757 -0.0043 -0.0245
22132W        W38979  14.441  13.679   0.233 -0.3772  0.1357 -0.3446
22133W        W38980  17.893   1.918   3.531 -0.2429 -0.0910 -0.0002
22134W        W38981   7.000   3.607   4.634 -0.2008  0.1909 -0.1361
22135W        W38982   3.788   9.251  12.289  0.0569 -0.1603 -0.1433
22136W        W38983  15.570  16.049  15.623 -0.2980  0.0206  0.1167
22137W        W38984   2.687  12.177   2.988 -0.0202 -0.0650 -0.0770
22138W        W38985   7.770  14.685  14.854  0.0133 -0.0032 -0.1166
22139W        W38986  13.469   6.498   5.495  0.0350  0.2178  0.2405
22140W        W38987   8.668  17.632   0.149 -0.2280  0.1429  0.0080
22141W        W38988  14.473  10.083  16.286  0.0627  0.1469  0.4036
22142W        W38989  15.080   0.873  13.636  0.0753 -0.2424  0.1120
22143W        W38990  10.987  15.266   6.289  0.0852 -0.0098 -0.2663
22144W        W38991   8.409  17.617  11.359 -0.3009 -0.0511 -0.2776
22145W        W38992   9.878  17.531  12.845  0.0276 -0.2698 -0.0377
22146W        W38993   2.510   0.091  12.640  0.0423  0.0032  0.0184
22147W        W38994  17.100   4.361  14.925  0.0633 -0.0269  0.1253
22148W        W38995   0.748   1.488  11.480  0.1727 -0.2205 -0.1653
22149W        W38996   4.585  11.358   2.540  0.0580  0.0871  0.4666
22150W        W38997   2.609  15.362   1.535 -0.0778  0.0189 -0.2129
22151W        W38998  13.793  11.175   2.895 -0.2171  0.0393  0.1645
22152W        W38999  10.173   6.656   0.788  0.1131 -0.0369  0.0241
22153W        W39000   8.523   5.354   4.933  0.5013  0.1167  0.0354
22154W        W39001   3.982   7.074   3.046 -0.1374 -0.1231 -0.1755
22155W        W39002  17.482   7.558   4.504  0.1465  0.1576 -0.0002
22156W        W39003   8.891  15.810  12.430 -0.1795  0.1081  0.0013
22157W        W39004   3.634   4.929   4.259 -0.0552  0.1809  0.0349
22158W        W39005   3.312   9.317  16.353 -0.1238  0.1124  0.0466
22159W        W39006  11.943  13.838   0.878  0.1193 -0.1314 -0.0596
22160W        W39007   8.478  12.719   4.630  0.0790  0.2121 -0.0235
22161W        W39008   6.900   3.270   5.870 -0.0434 -0.2855  0.0778
22162W        W39009   5.022  11.690  15.187 -0.0270 -0.1849  0.2393
22163W        W39010   8.959   3.582  14.103  0.0954 -0.0588  0.0082
22164W        W39011  15.128   8.864  14.777 -0.2266 -0.2207 -0.1074
22165W        W39012  14.312   0.643  14.293 -0.0959 -0.1741 -0.0320
22166W        W39013   4.006  10.013  12.614  0.1955 -0.0480 -0.3409
22167W        W39014   2.881  15.833  16.156 -0.0314 -0.2907  0.1410
22168W        W39015  12.348   2.143  12.231 -0.3179 -0.0419 -0.0806
22169W        W39016   1.802  17.505  13.045  0.2760 -0.3957 -0.2725
22170W        W39017   4.465  12.410  14.162 -0.0692  0.0910  0.0086
22171W        W39018  12.276   7.849   5.577 -0.2515 -0.0076  0.0730
22172W        W39019  17.399   5.640   0.960 -0.1116 -0.0748 -0.0472
22173W        W39020   0.935   1.544  12.493  0.1930 -0.0048 -0.0376
22174W        W39021   6.713   2.951  12.504 -0.2269 -0.1662  0.1882
22175W        W39022   8.978   1.447   0.975  0.1453  0.1878 -0.0087
22176W        W39023  13.654  16.058   0.156 -0.1069  0.0013 -0.0411
22177W        W39024  12.298  14.194   0.920  0.1560 -0.0440 -0.2613
22178W        W39025   1.598   0.784  14.805 -0.0457 -0.3988 -0.3406
22179W        W39026   2.803   9.990  16.198 -0.1296 -0.0504  0.0828
22180W        W39027  13.929  10.166   3.731 -0.0324 -0.1168  0.1174
22181W        W39028  16.450   8.962  15.200 -0.1004  0.1308  0.3435
22182W        W39029  10.951   5.344   5.845 -0.1614 -0.0691 -0.1196
22183W        W39030   0.544   1.930   4.959 -0.4679  0.1791  0.1860
22184W        W39031  17.785   6.594  15.576  0.1587  0.0248  0.1176
22185W        W39032   9.722   5.338   0.288 -0.0097 -0.3025 -0.1049
22186W        W39033  17.838   3.947   5.519 -0.0570 -0.1383  0.1486
22187W        W39034   3.079   5.290  13.475 -0.2682 -0.0565  0.1544
22188W        W39035  17.369  14.772  16.698 -0.0734  0.0979  0.0923
22189W        W39036   8.078   8.135   0.993 -0.3647  0.1148 -0.0636
22190W        W39037   1.074  15.926  11.915  0.0151  0.0525 -0.1870
22191W        W39038   7.736  10.754   3.757 -0.2518  0.0955  0.0908
22192W        W39039   8.786   8.069   5.921  0.2775 -0.0152 -0.0402
22193W        W39040   1.563   7.896  12.094  0.0437 -0.1454  0.0610
22194W        W39041   4.143   9.929  11.618  0.0753  0.1443 -0.0130
22195W        W39042  12.537   6.807   3.195 -0.0537 -0.1918 -0.1242
22196W        W39043  11.397   7.075   0.804 -0.0428  0.0861 -0.1634
22197W        W39044   8.371   6.072  15.242 -0.0787  0.1620 -0.0439
22198W        W39045   8.158  16.879   4.465 -0.3561 -0.0601 -0.0536
22199W        W39046  15.257  16.362   2.036  0.1063  0.3914  0.0626
22200W        W39047  11.988  12.118   1.538 -0.0017  0.0387  0.0759
22201W        W39048  11.602  11.745  14.223  0.2407  0.0823  0.1772
22202W        W39049   8.235   5.512   1.356 -0.0620 -0.0064 -0.1499
22203W        W39050  11.246   7.953   4.826  0.2288 -0.1895 -0.0520
22204W        W39051  14.966   1.044   2.420  0.0977 -0.2852  0.1760
22205W        W39052   3.011  14.026   4.342 -0.1052 -0.0393  0.1782
22206W        W39053   0.864  15.141   5.308  0.0912  0.1813 -0.0706
22207W        W39054   9.806   1.575   0.464  0.1214  0.0319 -0.2974
22208W        W39055   9.004   9.418  12.229  0.1711 -0.1545 -0.2718
22209W        W39056  13.937  10.654   3.563  0.3978  0.1221 -0.0183
22210W        W39057  13.537   6.297  16.711 -0.4052 -0.0876  0.0381
22211W        W39058   9.423   4.368  16.327 -0.0621 -0.2873 -0.1263
22212W        W39059  10.687   2.019   1.440 -0.2690  0.0260  0.0492
22213W        W39060   3.224   9.794  16.438  0.0767  0.2397 -0.2628
22214W        W39061  11.083  13.101   0.517  0.0418  0.0597 -0.2215
22215W        W39062  10.374   4.467   3.675 -0.3998  0.0242  0.3495
22216W        W39063   2.032   0.998   4.968 -0.2127  0.1116  0.0141
22217W        W39064   0.923   7.631  14.186  0.0855  0.0662  0.2792
22218W        W39065  13.224   7.706   5.736 -0.2247  0.0915  0.0884
22219W        W39066  10.779  13.601  16.023 -0.0999  0.2088  0.1666
22220W        W39067   9.623   9.335   3.221  0.0515 -0.0060  0.1582
22221W        W39068   1.287  13.604   3.583  0.0807 -0.1939 -0.1614
22222W        W39069  10.158  14.745   2.299 -0.0401  0.1577  0.1264
22223W        W39070  15.105   1.826   0.523 -0.0992 -0.1730  0.2472
22224W        W39071   7.839   6.473   4.278  0.0428 -0.0083  0.1959
22225W        W39072  17.420  13.980   2.827 -0.0325 -0.1622 -0.0611
22226W        W39073   0.091   4.508  14.274 -0.2375  0.2619  0.2273
22227W        W39074   0.890   2.890   3.964  0.1402  0.0085 -0.0341
22228W        W39075   0.240  11.902  15.809  0.3780  0.3960 -0.2435
22229W        W39076  10.674   0.231   1.628  0.2377  0.0042  0.0083
22230W        W39077   9.594   2.708   2.312 -0.2268  0.1260 -0.1757
22231W        W39078   9.939   7.104   1.667  0.1466 -0.0101  0.2808
22232W        W39079   5.199  14.705  14.722 -0.1326 -0.1250 -0.2138
22233W        W39080   1.425  12.860  12.104  0.3697 -0.1417  0.0170
22234W        W39081   7.316   2.644  12.723 -0.0666  0.0712 -0.2052
22235W        W39082   2.851   9.121   5.317  0.1839  0.0574  0.1982
22236W        W39083   0.042  14.632   4.085  0.1823  0.2610  0.0534
22237W        W39084   2.875   6.167  15.973  0.3405  0.0329 -0.1900
22238W        W39085   4.508  17.316  16.325  0.0764 -0.1439 -0.1410
22239W        W39086  16.360  11.592   3.588 -0.0823  0.0156 -0.2961
22240W        W39087  13.541   7.922   0.334 -0.1544  0.1119  0.0113
22241W        W39088   1.996   8.695   3.842  0.2104 -0.3255 -0.1048
22242W        W39089  15.935  17.332  14.719  0.2384 -0.0536 -0.0165
22243W        W39090   8.914   9.420   2.098  0.0099  0.1833 -0.0619
22244W        W39091  13.605  16.420   5.379 -0.0685 -0.3020 -0.0762
22245W        W39092  13.673  10.700   4.940  0.0943 -0.1873  0.1029
22246W        W39093   5.242  12.589   2.260 -0.0620 -0.2586 -0.1185
22247W        W39094  17.952   9.933  15.962 -0.6224  0.0253  0.1766
22248W        W39095  16.492  13.823   4.809 -0.2589 -0.3792 -0.0299
22249W        W39096   3.906   3.669   0.043 -0.1594 -0.0858  0.1520
22250W        W39097  16.436   3.065  15.993 -0.0992  0.2982  0.0766
22251W        W39098  11.169   7.601   2.153 -0.0723  0.1456  0.0631
22252W        W39099   5.974  14.058   5.026 -0.2577  0.0144 -0.0174
22253W        W39100   8.074  12.274   4.393 -0.0135 -0.1061  0.3698
22254W        W39101  17.558   2.757  10.134 -0.0499 -0.0810  0.0403
22255W        W39102  17.261   4.258   1.050 -0.5433 -0.2416  0.0043
22256W        W39103  11.554   4.699   2.978 -0.0254  0.2933 -0.1564
22257W        W39104   7.913  16.632   1.335  0.1054  0.0250 -0.1865
22258W        W39105  15.754  11.388  13.135  0.0356  0.1199  0.0665
22259W        W39106   6.520  16.529  13.522 -0.3141 -0.1440 -0.2374
22260W        W39107   2.556  13.453   2.724  0.3060 -0.0616  0.1336
22261W        W39108   2.705  14.861   1.600 -0.0077  0.1329 -0.0835
22262W        W39109  14.164  17.336   0.304  0.3404 -0.1318 -0.3316
22263W        W39110   5.182   0.873  14.387  0.0830 -0.0482 -0.1748
22264W        W39111   7.257   0.060  12.285  0.1717  0.0473 -0.1043
22265W        W39112   5.939   9.753   4.268 -0.2280  0.3606  0.1249
22266W        W39113  10.400  16.540  10.860 -0.0893  0.1791 -0.4247
22267W        W39114  12.730  14.755   3.458  0.1825  0.0662  0.2547
22268W        W39115   2.309  12.988   2.601 -0.2318 -0.1420  0.1157
22269W        W39116   5.206   2.732   4.255  0.0490 -0.0504 -0.0648
22270W        W39117   6.156   9.945  15.185 -0.1889  0.1286 -0.1856
22271W        W39118   7.943  17.854  15.172  0.0600 -0.1584  0.2498
22272W        W39119   9.366   7.385  13.901 -0.0306 -0.0965 -0.2846
22273W        W39120   3.645   3.802   2.723  0.0454 -0.1374  0.0122
22274W        W39121  16.896   9.948   1.460  0.0331 -0.1085 -0.0897
22275W        W39122   9.336  14.819  12.498  0.1014  0.0526  0.0553
22276W        W39123   4.138  13.207  12.121  0.0142  0.0618 -0.0822
22277W        W39124  16.434   1.507   0.109 -0.1117 -0.1234 -0.1783
22278W        W39125  14.749  12.554  12.977  0.2366  0.3153  0.1502
22279W        W39126   5.274   6.967  14.014 -0.0065 -0.1670  0.0269
22280W        W39127  15.639   3.076  11.999  0.1085 -0.2330  0.1589
22281W        W39128   1.126  14.922   4.921 -0.0548  0.1240 -0.0092
22282W        W39129   3.206  15.652  14.750 -0.2474 -0.3517  0.0826
22283W        W39130   6.088   8.036   3.793  0.2349  0.1134 -0.1087
22284W        W39131   4.887  13.829  12.279 -0.2227 -0.0399  0.1358
22285W        W39132  14.926   5.162  15.537 -0.0693 -0.3582  0.2581
22286W        W39133   8.023   9.095   3.416 -0.0956 -0.0689  0.0216
22287W        W39134  10.804  15.214   2.799 -0.1436  0.0710 -0.2801
22288W        W39135   6.921  16.139  16.025  0.2065  0.0837 -0.0613
22289W        W39136   6.576   1.301  13.395 -0.1169 -0.1742  0.0629
22290W        W39137   3.576   2.524   3.824 -0.1461  0.2113  0.3124
22291W        W39138  15.692  13.922  13.485  0.0969 -0.1156  0.2867
22292W        W39139   2.866  14.640  11.883  0.0847  0.0176 -0.2118
22293W        W39140   3.989   0.387  14.044  0.1681 -0.1546  0.3880
22294W        W39141  14.155   9.221   4.239 -0.0728  0.0591  0.0572
22295W        W39142  14.009   3.503   1.814 -0.0184 -0.3534  0.0024
22296W        W39143   8.238   1.864   4.715 -0.2403  0.1076  0.1440
22297W        W39144  13.510   1.783  15.316  0.4790  0.1098 -0.2833
22298W        W39145   1.804  13.773   1.536 -0.0608 -0.1553  0.2198
22299W        W39146  11.593  11.985   3.366  0.0056 -0.0504 -0.1871
22300W        W39147  11.378   4.688  12.273 -0.2441 -0.1809  0.1185
22301W        W39148   6.057   9.976   2.222  0.2014  0.0375  0.0759
22302W        W39149   6.014   4.293   1.545 -0.0544  0.2174 -0.3880
22303W        W39150   9.861  12.655   5.878 -0.1691 -0.1611  0.0589
22304W        W39151   2.264   6.767  14.256  0.1259 -0.1348 -0.0076
22305W        W39152   0.143  15.626  13.346 -0.1699  0.0337 -0.1025
22306W        W39153   1.065  13.868  14.612 -0.0278 -0.0058 -0.0004
22307W        W39154   7.208   0.353  11.258 -0.1377 -0.0299 -0.0895
22308W        W39155   4.114   1.384  15.774  0.3229 -0.0779 -0.0321
22309W        W39156   7.566  16.991   3.860 -0.2752  0.1769  0.2960
22310W        W39157  12.300  17.613   1.733 -0.4155  0.1547 -0.0779
22311W        W39158  15.563   9.254  15.138 -0.3251 -0.0747  0.0033
22312W        W39159   0.799   6.324  14.212 -0.2028 -0.0439 -0.2443
22313W        W39160   7.855   4.158  13.750 -0.0262  0.0160 -0.0691
22314W        W39161   6.080  17.947  16.048  0.1287  0.0736  0.1641
22315W        W39162  15.487   7.835   0.032  0.1087  0.2936 -0.1305
22316W        W39163   7.574   9.907  15.029  0.0004 -0.3603 -0.0596
22317W        W39164  12.683  12.748  14.602  0.3490  0.0343  0.1043
22318W        W39165  12.630  12.699  12.928  0.1006 -0.0637 -0.0344
22319W        W39166  16.245   3.713  15.216 -0.1811 -0.0030  0.3951
22320W        W39167  15.596  15.255  14.327  0.0344 -0.0381 -0.2058
22321W        W39168   4.179  14.962   2.265  0.1068  0.0829  0.0511
22322W        W39169   5.765  12.271   5.268 -0.2320 -0.1057  0.0674
22323W        W39170   0.509  14.435   1.410  0.0217  0.3308  0.0219
22324W        W39171   6.754  12.118  16.146 -0.0823  0.2532  0.0499
22325W        W39172  15.508   5.016  12.217 -0.1005 -0.1106  0.1427
22326W        W39173   6.145  14.934  14.449 -0.0397 -0.0019 -0.2574
22327W        W39174   2.469   9.870   4.871 -0.0146  0.0185 -0.1245
22328W        W39175  10.136  17.228   4.750 -0.1323  0.0264  0.0264
22329W        W39176  14.637  15.009   5.502  0.2875  0.0745  0.3537
22330W        W39177  15.405   8.734  11.626  0.0674 -0.0890 -0.2618
22331W        W39178  13.102  16.508   5.396 -0.0830 -0.0910  0.2057
22332W        W39179   0.695   9.045  13.202 -0.1346  0.1926  0.0762
22333W        W39180  15.009   8.794  14.013  0.1626  0.0196 -0.0454
22334W        W39181   6.593   0.173  15.043 -0.4580 -0.0518 -0.1732
22335W        W39182   4.586   2.569  14.605 -0.2079  0.2238 -0.1555
22336W        W39183  10.633  10.318   3.516 -0.1206  0.3028 -0.1854
22337W        W39184   3.637  12.276  14.983  0.3307 -0.0640  0.2490
22338W        W39185   7.561   8.007  15.109 -0.2371 -0.0924 -0.0186
22339W        W39186   2.693   5.416  12.268  0.0338 -0.2786 -0.0286
22340W        W39187  11.634  10.755  11.804  0.1479 -0.0005 -0.0304
22341W        W39188  13.041   7.999  12.607 -0.1503 -0.1124 -0.2315
22342W        W39189   7.495   0.537   3.164  0.1572 -0.0485 -0.1291
22343W        W39190  13.158   2.014  11.230  0.3100 -0.1258 -0.0623
22344W        W39191  17.089  16.036  13.471 -0.1625  0.0462 -0.0735
22345W        W39192   4.103  12.420   1.185  0.4548  0.0107  0.2781
22346W        W39193   3.321  14.623  12.293  0.0354  0.2601 -0.3415
22347W        W39194   3.461   8.079  14.470  0.1024 -0.1128  0.0620
22348W        W39195  11.368  15.451  14.445  0.1832  0.2943 -0.1305
22349W        W39196   3.690  13.119   1.495  0.2037 -0.0358  0.0481
22350W        W39197   1.577  15.010   0.697 -0.3184  0.1693  0.1351
22351W        W39198  17.063  16.873  11.034  0.2605 -0.0267  0.1631
22352W        W39199   9.157   8.142   3.877  0.0250 -0.0351 -0.0548
22353W        W39200  11.759   3.022   0.910  0.0136 -0.0173 -0.2244
22354W        W39201  14.154   8.351   5.044  0.1537  0.1507  0.4327
22355W        W39202  11.167  13.055   5.730 -0.2706 -0.0797  0.3609
22356W        W39203  13.463   6.685   6.254  0.0188 -0.0490 -0.2330
22357W        W39204  17.663   2.654  14.726  0.0726 -0.1544 -0.1452
22358W        W39205  10.685   8.398   2.050  0.1735 -0.0048 -0.0744
22359W        W39206  15.946  15.378   0.363  0.0748 -0.3157 -0.1724
22360W        W39207   8.062  11.906   4.003 -0.0038  0.1096 -0.2027
22361W        W39208   6.435  13.370  12.052 -0.3982  0.0661 -0.2254
22362W        W39209  10.308   2.031   2.492 -0.1034 -0.0297 -0.1067
22363W        W39210  11.168   0.835  11.840  0.0393  0.1459 -0.1249
22364W        W39211   0.488   4.803   1.545  0.2351 -0.4080  0.0514
22365W        W39212   2.677  15.674  14.844 -0.3474 -0.0584  0.0572
22366W        W39213   2.518  14.244  15.030  0.4855  0.1888  0.2540
22367W        W39214  13.237   0.665  14.622 -0.0529  0.2232 -0.0260
22368W        W39215   7.835  11.606   2.232  0.1559  0.0475  0.0366
22369W        W39216   0.614  12.481  13.248  0.1522  0.1632  0.4614
22370W        W39217   8.935  14.079   3.646  0.0549 -0.0770 -0.1010
22371W        W39218   9.865   2.645   2.785  0.1237  0.1246 -0.1221
22372W        W39219  10.222   5.446  12.262 -0.0872  0.0391  0.0201
22373W        W39220  14.886  12.081   4.935  0.2586 -0.0855  0.3450
22374W        W39221  11.532  12.821   0.637  0.0228  0.1337  0.2266
22375W        W39222  13.269  10.247   4.008 -0.0179  0.2110 -0.1018
22376W        W39223   2.330  15.225   3.560 -0.0284 -0.2149  0.1829
22377W        W39224  16.841  16.811  12.027 -0.0474 -0.2428  0.0049
22378W        W39225   4.789   0.166  13.226  0.0944  0.0789  0.1125
22379W        W39226  11.282   7.435   0.292  0.0732 -0.2558 -0.1077
22380W        W39227   9.301  11.892  15.228 -0.0817 -0.1352  0.0477
22381W        W39228   0.812  14.894   1.571 -0.0638 -0.0690 -0.0080
22382W        W39229   0.228  13.386  11.937  0.0282 -0.1475 -0.1480
22383W        W39230  12.245   8.038  13.366  0.1013 -0.0109 -0.1648
22384W        W39231   4.172   0.470  15.791 -0.2061 -0.1393  0.2967
22385W        W39232  17.720   8.785  12.507  0.0282  0.1122 -0.0594
22386W        W39233   2.017  17.120   2.518  0.2484  0.1828  0.3598
22387W        W39234  13.518  10.657  15.595  0.0431  0.0541 -0.0524
22388W        W39235  17.879  16.906   2.209  0.0049 -0.2144  0.0179
22389W        W39236  14.764  16.353  13.981  0.4639 -0.0048  0.0663
22390W        W39237   3.313   0.088   2.848 -0.0363 -0.3168  0.0197
22391W        W39238  11.133  10.546  16.747 -0.3637  0.0137 -0.2352
22392W        W39239  16.659  12.615   4.134 -0.1415 -0.0672  0.1860
22393W        W39240   7.122   2.191  16.198 -0.1520 -0.1330  0.2593
22394W        W39241  10.311   6.279  14.304 -0.1979  0.3361  0.1629
22395W        W39242  14.620  14.733  15.718  0.1107 -0.2359 -0.3458
22396W        W39243   3.611   0.373   0.251  0.1668  0.0630  0.0435
22397W        W39244   8.187   5.005   2.177  0.0151  0.1993  0.1734
22398W        W39245   6.141   9.519   1.016 -0.0796  0.1085 -0.1025
22399W        W39246   7.135   7.441  14.898  0.0164 -0.0744  0.2328
22400W        W39247  13.877   6.885   2.785  0.1777  0.0382 -0.0114
22401W        W39248   1.243   9.902   2.905  0.2129 -0.2919 -0.1513
22402W        W39249  17.423  17.652   1.934  0.1578 -0.1200 -0.1548
22403W        W39250  16.531   9.726   3.870 -0.0096  0.0474 -0.1472
22404W        W39251   0.388  11.953  12.534  0.2247 -0.0068 -0.0019
22405W        W39252  10.962  17.293   0.052  0.1002  0.3674 -0.3628
22406W        W39253  10.649  17.767  12.370 -0.0566 -0.2938 -0.2254
22407W        W39254   2.072   3.760   1.699  0.2576  0.0183  0.0595
22408W        W39255   3.865  17.221  10.510  0.1603  0.1514 -0.1284
22409W        W39256   9.261   1.684   1.359  0.2222 -0.1600 -0.0973
22410W        W39257   8.258   1.450  13.806  0.0465  0.2245 -0.0117
22411W        W39258  10.265  17.487  11.945 -0.0288  0.0328  0.2441
22412W        W39259  17.598   8.948   0.611  0.2443  0.0915 -0.0889
22413W        W39260   7.134   6.158   0.779  0.1389 -0.1840 -0.0043
22414W        W39261  12.270  16.082  12.435  0.1008 -0.3007  0.1928
22415W        W39262   1.511  16.969   5.453  0.3103  0.0410 -0.3890
22416W        W39263   6.769   7.703   0.716 -0.0420 -0.1051  0.2993
22417W        W39264   4.693  12.840  14.338 -0.1671 -0.0086 -0.0117
22418W        W39265  13.315   5.593  12.851 -0.1440 -0.1863 -0.1412
22419W        W39266  13.076   8.275   0.144  0.0530  0.3209  0.0673
22420W        W39267  11.446   6.013   3.663  0.2159 -0.2505  0.1548
22421W        W39268   2.774  16.288   3.123  0.0486  0.4313  0.2106
22422W        W39269   9.351   2.349  13.376 -0.0525  0.4029 -0.1572
22423W        W39270  10.494   9.591   1.249  0.1592 -0.1456 -0.3041
22424W        W39271  14.252   4.532  15.659 -0.3109 -0.2468  0.1641
22425W        W39272   9.483  11.971  12.579  0.0115 -0.2799 -0.0040
22426W        W39273  17.798   4.382  10.963 -0.1411  0.1295 -0.3399
22427W        W39274  16.814   2.674   2.601 -0.1464  0.0115 -0.0652
22428W        W39275   5.085  16.074  15.906  0.1640  0.1748 -0.2004
22429W        W39276   2.853  16.167  15.765 -0.0573  0.0548  0.1612
22430W        W39277   2.460   1.641  13.632  0.0410  0.1303 -0.1258
22431W        W39278   9.805  16.890  11.354  0.2398  0.1766  0.1687
22432W        W39279   3.328  14.385  16.314  0.1489 -0.1162 -0.1542
22433W        W39280  11.721   8.126  13.437  0.0303  0.0181  0.0892
22434W        W39281   2.701  10.266  14.764  0.2676 -0.2469  0.2177
22435W        W39282   7.774   3.115   3.466 -0.3842  0.0339 -0.2312
22436W        W39283  17.325  11.695   0.098 -0.0114  0.0657 -0.0899
22437W        W39284   4.031  12.195  14.143 -0.2092  0.0195 -0.1317
22438W        W39285  14.355  13.261  12.650 -0.1396  0.1431  0.1403
22439W        W39286   7.042   3.655  15.067  0.0026  0.2261  0.1049
22440W        W39287  11.030  16.570   2.758  0.0493 -0.4997 -0.2464
22441W        W39288   6.029   1.798   2.840 -0.2390  0.1340  0.0700
22442W        W39289   0.991  16.141  12.352  0.0796  0.4313  0.0512
22443W        W39290   9.903  11.066   4.783 -0.3818  0.0960 -0.0450
22444W        W39291   4.571  12.369   4.900  0.2329 -0.1335 -0.2963
22445W        W39292   9.667  11.585   3.018 -0.0995 -0.2673 -0.2572
22446W        W39293  12.114  13.405   4.809  0.0626  0.0312 -0.0282
22447W        W39294   6.928   3.034   4.690  0.0907 -0.0400 -0.0206
22448W        W39295   3.031  16.546  11.693 -0.1425 -0.3181  0.1481
22449W        W39296  11.168  15.315   0.903  0.0804 -0.0452  0.0479
22450W        W39297   4.445   8.938  13.572  0.3316 -0.1996  0.0129
22451W        W39298  10.616   2.795  14.009 -0.0487 -0.2839  0.1730
22452W        W39299   9.541  16.416   2.843  0.2150 -0.2015  0.0685
22453W        W39300   1.432  15.473  13.072  0.0094 -0.2843  0.3668
22454W        W39301   8.517   0.226  12.232 -0.0949  0.2188 -0.0769
22455W        W39302  12.214  10.713  14.202  0.3512 -0.1593 -0.3663
22456W        W39303   9.804   6.193  16.563 -0.0257  0.0842 -0.0646
22457W        W39304   6.955   5.533   1.846 -0.0232  0.1891 -0.2270
22458W        W39305  13.646   9.761  14.727  0.2766  0.3684 -0.0534
22459W        W39306  14.189   0.628  12.572  0.1116 -0.1819 -0.1333
22460W        W39307   4.423  15.523   1.879 -0.2834  0.2362 -0.2059
22461W        W39308  16.663   9.687  11.866  0.1320 -0.1673 -0.1137
22462W        W39309  11.462  15.480   6.054 -0.1255 -0.2232 -0.1399
22463W        W39310   0.557   4.811  14.616  0.2033 -0.0387 -0.1956
22464W        W39311   2.758  12.232  13.366 -0.3157  0.0837  0.0777
22465W        W39312   7.300  13.025   3.640 -0.1545  0.1107 -0.0660
22466W        W39313   6.139   4.924   5.490  0.0285  0.3188  0.2111
22467W        W39314  11.281  12.618   2.135 -0.2541  0.1536  0.2200
22468W        W39315  14.614  12.912   0.959  0.3007 -0.0547  0.0534
22469W        W39316  15.496  10.518   4.232 -0.0480 -0.4409 -0.0109
22470W        W39317   7.699   7.418  15.939  0.4714  0.1297 -0.2650
22471W        W39318   4.642  12.753   3.549  0.1288 -0.0246  0.0924
22472W        W39319   6.928   9.861  13.352  0.1629  0.1465  0.1891
22473W        W39320   4.632  11.747  12.939  0.1653  0.2323 -0.0684
22474W        W39321   4.541  14.242  15.247 -0.1098 -0.1026  0.0154
22475W        W39322  14.411  12.180   1.290 -0.2684  0.1343 -0.0086
22476W        W39323  16.544  16.893   4.985 -0.2704 -0.0076 -0.2689
22477W        W39324  15.434  15.995   1.355 -0.3057 -0.2617 -0.0337
22478W        W39325   4.800   8.053  16.383 -0.1198 -0.3129 -0.1418
22479W        W39326  14.839  17.924   2.068 -0.0286  0.0359 -0.1313
22480W        W39327   6.518   4.210  13.505  0.3571 -0.2118  0.1277
22481W        W39328  13.794  11.978   4.433 -0.0329 -0.0229 -0.0920
22482W        W39329  15.117  14.097   2.686 -0.4044  0.3257 -0.0071
22483W        W39330   1.903  17.726   5.403  0.0767 -0.1037  0.0892
22484W        W39331  12.022   9.584   0.400  0.0497 -0.1216  0.0934
22485W        W39332  14.293  17.514  15.041 -0.1007  0.1016  0.3549
22486W        W39333   2.748  11.346  13.125 -0.2077 -0.2141  0.2513
22487W        W39334   3.577   4.718  12.937  0.4187 -0.1653 -0.0271
22488W        W39335   3.229   2.307   2.262 -0.0798 -0.2749 -0.0598
22489W        W39336  14.155  10.511  13.524 -0.0534 -0.2291 -0.2047
22490W        W39337   5.626  10.702  15.538  0.0897  0.1383  0.1682
22491W        W39338  14.348   6.305  12.886 -0.3074  0.1113 -0.1708
22492W        W39339  11.977   9.882   4.893  0.1467 -0.0176 -0.2180
22493W        W39340   3.795   1.287   1.530  0.1961  0.2669  0.0612
22494W        W39341  17.084   4.326   2.011 -0.0296  0.1303 -0.0261
22495W        W39342   7.172   3.297   5.020 -0.2233 -0.1413 -0.1870
22496W        W39343  10.080   7.177   4.771  0.0940  0.0698 -0.0386
22497W        W39344   3.283  10.470  15.785 -0.1438 -0.2131  0.0583
22498W        W39345  10.096  11.847  13.319 -0.1893 -0.1402 -0.1112
22499W        W39346  12.648  13.332  13.649  0.2912 -0.0752 -0.1810
22500W        W39347  14.496   8.034  13.431  0.1470 -0.0369  0.3870
22501W        W39348  14.822  15.792  12.005  0.0115  0.0384  0.1454
22502W        W39349  11.987  13.119   2.416 -0.0893 -0.1296  0.1835
22503W        W39350  12.082  11.073  15.788 -0.3903  0.3826  0.1934
22504W        W39351  17.833   3.051   2.824  0.0949  0.2021 -0.3367
22505W        W39352   8.317  12.078   0.198 -0.2540  0.1144 -0.2506
22506W        W39353   4.618  16.110   5.664  0.0377  0.1231  0.0229
22507W        W39354   7.906   4.255   3.781  0.2052  0.1462 -0.1278
22508W        W39355   9.197  12.854   3.268 -0.3675 -0.1707 -0.2016
22509W        W39356  17.085  16.329   3.977  0.3201 -0.1259 -0.1605
22510W        W39357   4.222   1.831  11.451  0.0311  0.2118 -0.1488
22511W        W39358  11.930  17.557   2.996 -0.1968 -0.2243 -0.0793
22512W        W39359  11.654   8.047  12.537 -0.1177 -0.3511  0.3015
22513W        W39360   9.171   3.879  16.510  0.0626 -0.0850  0.0658
22514W        W39361  17.907   8.089  11.887  0.0317 -0.0039 -0.2806
22515W        W39362   3.381   3.072  11.443 -0.1032 -0.1468  0.1204
22516W        W39363   2.338  10.210   3.733  0.1770 -0.0302  0.2969
22517W        W39364  16.358  12.110   1.238  0.1028  0.1992 -0.1441
22518W        W39365   6.001  10.156   1.699 -0.0437  0.1190  0.1886
22519W        W39366  11.033   8.026   1.174  0.0300 -0.3470  0.0082
22520W        W39367  17.120  10.618   4.757  0.0059 -0.1461  0.0845
22521W        W39368  16.710  15.471   2.200 -0.0806  0.2928 -0.1484
22522W        W39369   3.428   0.873  15.468  0.3374 -0.0122  0.0351
22523W        W39370   3.934   8.511   5.086 -0.1389  0.2904 -0.1238
22524W        W39371   0.958   9.561   3.219 -0.1169  0.2572 -0.0900
22525W        W39372  15.597   0.310   6.278  0.4748 -0.1591 -0.0167
22526W        W39373   1.164   8.966   3.511  0.0726  0.0634  0.1740
22527W        W39374  15.884   7.081  15.874  0.0525 -0.0472  0.3790
22528W        W39375   8.229  14.143  15.492 -0.2098 -0.0065 -0.1770
22529W        W39376   7.595   6.323  16.645  0.0672 -0.0402 -0.0507
22530W        W39377  17.402   9.134   5.029 -0.2232 -0.3302  0.1794
22531W        W39378  12.596   1.795   2.513 -0.2515 -0.1157 -0.0654
22532W        W39379  11.414  10.005  14.151 -0.0312  0.4372  0.0631
22533W        W39380  13.914   8.789  11.952  0.1933 -0.1048 -0.2160
22534W        W39381   3.257   0.254  10.829 -0.2208  0.3178 -0.1485
22535W        W39382   2.256   9.775   1.356  0.1332 -0.2881  0.1916
22536W        W39383  13.650  10.585   1.074 -0.0036  0.1332 -0.3334
22537W        W39384   1.390   2.436   2.400 -0.1629  0.0762  0.1313
22538W        W39385  15.415   5.863   5.602  0.0151  0.2540 -0.0137
22539W        W39386   4.707  16.383   3.461  0.0617  0.2291 -0.0853
22540W        W39387   8.604   2.072   2.123  0.0979  0.3109  0.0805
22541W        W39388   4.986   1.315  14.276  0.0468 -0.0376  0.1160
22542W        W39389   0.160  13.346   6.939  0.2144 -0.0182  0.2772
22543W        W39390   2.091  12.982   5.649  0.2178  0.1658  0.0968
22544W        W39391   1.263   3.904   2.266  0.3494 -0.0263 -0.0271
22545W        W39392   9.985   7.103   3.687  0.1286 -0.1685 -0.1457
22546W        W39393   6.565  16.972   4.054 -0.1228 -0.2504 -0.2100
22547W        W39394  13.073   2.377   4.010 -0.0485 -0.2937  0.3954
22548W        W39395  11.058   0.847   2.297 -0.2178 -0.0222  0.2626
22549W        W39396   7.809  14.318  11.903  0.0458  0.2491  0.1815
22550W        W39397  12.459   7.335   1.404  0.0921 -0.0757  0.0912
22551W        W39398  13.078  16.687  16.451 -0.0433 -0.0047 -0.0718
22552W        W39399  12.955   0.365   0.108 -0.1836 -0.0357  0.0769
22553W        W39400   4.700   4.676  16.300 -0.3728  0.2627 -0.2073
22554W        W39401  14.282  11.728  12.865 -0.0229 -0.2865  0.1372
22555W        W39402  13.532   5.606   5.759  0.1376 -0.1700 -0.4018
22556W        W39403   2.009   3.937  16.191 -0.4375 -0.1141  0.0539
22557W        W39404  14.557   8.490  15.298 -0.2913  0.0942  0.0535
22558W        W39405  15.515  15.348   0.060  0.0240  0.2535 -0.0142
22559W        W39406  16.140   4.498   3.170 -0.3530 -0.0695 -0.1388
22560W        W39407  13.678   1.023   3.035  0.1284 -0.1748  0.1664
22561W        W39408   5.368  17.404  14.761  0.0262 -0.2241 -0.0326
22562W        W39409   0.842   5.246  13.277  0.1401  0.2269  0.3374
22563W        W39410   8.485   1.861  14.621 -0.1100 -0.1744  0.0031
22564W        W39411  10.932  13.409   1.913 -0.2492 -0.0494  0.2136
22565W        W39412   7.400   9.355  12.788  0.1360  0.2017  0.1445
22566W        W39413   8.859   6.876   4.874 -0.1312 -0.1414 -0.0056
22567W        W39414   6.615  16.452  12.337 -0.0587  0.1078 -0.0553
22568W        W39415   5.181  10.971   0.018  0.0277  0.1560  0.2236
22569W        W39416  16.361  13.767  14.826 -0.2344 -0.2569 -0.3223
22570W        W39417  11.213   0.609  15.169 -0.0262 -0.4567  0.1643
22571W        W39418  16.448   7.700   1.366 -0.1333 -0.2532  0.0550
22572W        W39419   8.380  12.012   1.499  0.0675  0.0345  0.3097
22573W        W39420  14.396   8.814  16.579 -0.1453 -0.1159 -0.0622
22574W        W39421   4.631  16.575   2.388 -0.1086  0.0106  0.1749
22575W        W39422   9.184   2.699   4.737  0.1084 -0.0400 -0.1639
22576W        W39423   7.555  10.396  12.276  0.2568 -0.1610  0.1465
22577W        W39424   7.200   8.004   3.428  0.0946 -0.1718  0.1869
22578W        W39425  15.854  14.706   2.527 -0.1170 -0.0132 -0.1512
22579W        W39426  15.066  14.645   5.760  0.0151 -0.4109 -0.0303
22580W        W39427  11.452  10.675  13.484  0.0875  0.3151  0.0087
22581W        W39428  10.681  11.741  12.431 -0.2989 -0.2737  0.1560
22582W        W39429  14.392   4.645  13.335 -0.2280  0.0189 -0.1028
22583W        W39430  17.379   7.994   3.490  0.0874 -0.1378  0.0143
22584W        W39431  14.030  10.017  15.934  0.2336  0.1619  0.0676
22585W        W39432  13.204   0.136  13.921 -0.1671  0.2619 -0.2636
22586W        W39433   5.723   4.767   3.366 -0.3448  0.0000  0.2774
22587W        W39434   5.679   2.460  11.490 -0.0627 -0.4675  0.1686
22588W        W39435  15.169   0.274   2.847  0.0509  0.2978 -0.3377
22589W        W39436  14.773   0.976  14.503 -0.2429 -0.3804 -0.2167
22590W        W39437   1.085  12.345  15.044 -0.0702  0.0662  0.1176
22591W        W39438   7.424   7.540   3.632 -0.0513  0.0387  0.1773
22592W        W39439  16.557  10.175   1.871 -0.1306 -0.2164  0.2580
22593W        W39440  14.776  13.143   2.608 -0.1129  0.2368  0.0373
22594W        W39441   8.963   3.944   2.168  0.0486 -0.1280  0.3934
22595W        W39442  12.281   0.905   4.645 -0.0565 -0.2059  0.0387
22596W        W39443  10.197   0.232  15.473 -0.0408  0.0398  0.0252
22597W        W39444  16.881   1.904  13.276 -0.0642 -0.1630 -0.2463
22598W        W39445  13.269   8.203   5.486 -0.2960 -0.1296 -0.0144
22599W        W39446   3.505   4.052  12.152  0.0034 -0.0946  0.0341
22600W        W39447   2.716  12.586   0.688 -0.0094 -0.0559 -0.1148
22601W        W39448  11.210   6.505  16.285  0.0658 -0.1294  0.1248
22602W        W39449  17.631   4.773  13.501  0.1337  0.0642 -0.0035
22603W        W39450   7.013   3.932  13.504  0.1096 -0.1480  0.0939
22604W        W39451   0.058   6.850   0.125 -0.3039 -0.0237 -0.1994
22605W        W39452   1.538   0.453   3.308  0.0381  0.1449  0.0420
22606W        W39453  12.869   0.828  11.273 -0.0997 -0.2918 -0.0216
22607W        W39454  16.913  11.439   2.692 -0.1372 -0.2377 -0.2130
22608W        W39455  11.352  16.810   4.825  0.2263 -0.0765 -0.0030
22609W        W39456   4.965   6.125  12.134 -0.0403  0.2237 -0.3956
22610W        W39457   4.474  16.599   5.847 -0.1883 -0.0803  0.2769
22611W        W39458   9.821   5.403   4.002  0.0200 -0.2265  0.0292
22612W        W39459   2.762  16.457  13.132 -0.0568  0.1964 -0.1222
22613W        W39460   7.873   0.758   5.358  0.1958  0.1736 -0.1863
22614W        W39461  10.218  13.183   3.860 -0.1373  0.2216  0.2426
22615W        W39462  17.212  13.238   3.208  0.1671 -0.1919  0.0270
22616W        W39463   7.847   7.346  13.884 -0.1579 -0.2021 -0.2964
22617W        W39464  16.901  17.634   4.447 -0.2617  0.3091  0.0679
22618W        W39465   4.733  13.337  13.940 -0.1178 -0.0628  0.0414
22619W        W39466  16.518   7.152   2.044 -0.0778 -0.2073 -0.0125
22620W        W39467  15.177   0.046   5.402  0.0156 -0.1298 -0.0323
22621W        W39468  16.132   0.256  15.161  0.1037 -0.1542 -0.0808
22622W        W39469   2.176  16.619  13.347 -0.1110  0.1551  0.0717
22623W        W39470  17.172   0.916  14.616  0.1735 -0.0430 -0.0539
22624W        W39471  17.052   5.200  15.046  0.1120  0.2997 -0.0660
22625W        W39472   8.419   7.054   4.957 -0.2900  0.0919 -0.4386
22626W        W39473   9.391   1.917   2.269 -0.1199  0.2897  0.0706
22627W        W39474  14.190   5.886   3.572  0.1433 -0.1426 -0.1116
22628W        W39475   6.317   2.885  16.009 -0.1047  0.0531 -0.1408
22629W        W39476  13.334   3.772   1.852 -0.1467  0.3151 -0.1253
22630W        W39477   6.301   9.565   5.112 -0.0416  0.0248  0.0593
22631W        W39478   6.561  12.088   1.232 -0.0351 -0.1462  0.2721
22632W        W39479  11.996  10.340  16.520  0.0596  0.1139 -0.3728
22633W        W39480   7.993   8.409   2.761 -0.0678 -0.1402  0.1035
22634W        W39481  12.104  13.851  15.006 -0.1834  0.1566 -0.1787
22635W        W39482  14.508   3.684  15.722 -0.0047 -0.0965  0.1560
22636W        W39483  16.821   1.193  14.816  0.2077 -0.0238 -0.0949
22637W        W39484  12.832  14.252   3.115 -0.2129  0.0639 -0.1665
22638W        W39485  12.219   1.332  13.759 -0.1181  0.1620  0.1302
22639W        W39486  14.034   8.746   2.229 -0.2039 -0.2871 -0.0220
22640W        W39487  13.716  16.332   0.881  0.1473 -0.1543  0.0337
22641W        W39488   5.548  14.714   1.234  0.2182 -0.1837  0.1790
22642W        W39489  15.573  16.909  16.076  0.3540  0.2672 -0.3202
22643W        W39490  10.381  15.670  16.465 -0.0856 -0.1160  0.0092
22644W        W39491  11.433  16.321  13.386 -0.0432 -0.3802 -0.0145
22645W        W39492  13.114   5.072  15.059 -0.0715 -0.0099  0.0823
22646W        W39493   4.662   1.455  16.090 -0.0398 -0.0985 -0.0134
22647W        W39494  16.013  15.672  14.289 -0.2750 -0.1280  0.0171
22648W        W39495   3.578  11.878   4.168  0.1575  0.1275  0.2586
22649W        W39496   2.295   4.330  13.528  0.1729  0.0060 -0.0928
22650W        W39497  14.592   1.735  13.065  0.2592  0.0689 -0.2858
22651W        W39498   5.799   8.028   5.312 -0.4312 -0.1661  0.1286
22652W        W39499   1.276  11.200  13.200 -0.2264 -0.0015  0.3039
22653W        W39500  14.755  15.025  12.326 -0.1201  0.2147  0.1027
22654W        W39501  14.574   2.703   1.486 -0.0162  0.0695 -0.2803
22655W        W39502   9.126   0.952   3.433  0.0524  0.0477  0.4053
22656W        W39503   4.565  10.655   3.392  0.0904  0.0957  0.0169
22657W        W39504   9.749  13.599   3.788 -0.1824  0.0615 -0.2307
22658W        W39505   7.906  12.557   0.619 -0.0989 -0.0445 -0.2348
22659W        W39506   9.856  13.323  13.935 -0.1927 -0.2078  0.0240
22660W        W39507   6.273  12.941   2.369  0.0004  0.1872 -0.2695
22661W        W39508   9.831   2.741  11.463  0.2212  0.1382  0.0180
22662W        W39509   9.766  15.870   1.276  0.0181 -0.1260  0.0362
22663W        W39510   8.801  12.910  11.812  0.0332 -0.2776 -0.3743
22664W        W39511   7.972  15.732   4.097  0.0866 -0.2417 -0.4269
22665W        W39512  13.614  12.512   5.741  0.2058 -0.0701  0.1188
22666W        W39513  17.071  13.604   4.571 -0.0763 -0.0786 -0.0200
22667W        W39514  13.038  10.344   1.979 -0.0475 -0.1731 -0.0468
22668W        W39515  11.328  13.660   4.116  0.1311 -0.3634  0.0784
22669W        W39516   0.937   2.482  16.712 -0.2932 -0.1352 -0.1824
22670W        W39517   0.607  11.283  13.616  0.0711  0.3218 -0.1508
22671W        W39518   2.808   2.339   3.269  0.0501  0.2859 -0.1583
22672W        W39519   5.073  17.001  15.554  0.1796 -0.1531  0.1696
22673W        W39520   4.336  11.993  14.450 -0.2762 -0.1292  0.0751
22674W        W39521   5.352  14.164  13.349  0.2184  0.0970 -0.0644
22675W        W39522  14.906   7.197   1.569  0.2471  0.1042 -0.0570
22676W        W39523   0.220   2.547  11.299 -0.0004  0.3067 -0.0310
22677W        W39524  17.147   8.336  16.329 -0.1262  0.1782  0.1257
22678W        W39525  12.868   7.857   3.824  0.1051  0.1832 -0.0713
22679W        W39526  14.803   2.239  12.970 -0.1148  0.1526  0.0310
22680W        W39527   3.193   7.932  14.071 -0.1407  0.3874  0.1567
22681W        W39528   7.644   5.825   5.810  0.2901 -0.0692  0.0271
22682W        W39529   0.124  17.581   5.241  0.1307  0.2023 -0.2790
22683W        W39530   0.866   4.295   2.230 -0.2484  0.2888 -0.1500
22684W        W39531  11.664  15.546   0.076  0.2982 -0.2808 -0.0665
22685W        W39532  17.028  17.105  12.921 -0.0605  0.2038  0.1191
22686W        W39533   7.394   8.912   3.566 -0.0211  0.1114  0.0263
22687W        W39534   1.953   8.047   0.860 -0.0201 -0.1135  0.0442
22688W        W39535   5.554  13.579  15.341 -0.2998  0.2358 -0.1906
22689W        W39536  13.180   1.297   2.970 -0.3980 -0.0284  0.1428
22690W        W39537  17.524   8.053  13.362 -0.2243 -0.2002 -0.1802
22691W        W39538   1.330  11.409   2.763 -0.2639 -0.0121 -0.0645
22692W        W39539   5.110  15.543   4.677 -0.0040 -0.0024  0.2348
22693W        W39540   5.049  13.526   1.165 -0.0686 -0.0865  0.1262
22694W        W39541  12.660   4.464   1.783  0.1625 -0.3581 -0.1268
22695W        W39542   6.324  11.086   0.266 -0.0145  0.2364 -0.2107
22696W        W39543   8.210   9.830  16.702  0.0026  0.5042  0.0504
22697W        W39544   1.639   2.970  15.611 -0.1026 -0.3812  0.1220
22698W        W39545  12.360  12.933  15.823  0.1601  0.0451  0.0858
22699W        W39546   8.912   4.730  14.974  0.0048 -0.0465  0.2524
22700W        W39547   8.862   2.266   0.324 -0.0193 -0.0953  0.0174
22701W        W39548  12.242  17.716  12.662  0.1974  0.0499 -0.1968
22702W        W39549   1.827  16.442  13.040 -0.2155 -0.0877 -0.0487
22703W        W39550   4.945  15.305  11.328 -0.0378  0.1748  0.2382
22704W        W39551   0.018  10.669  11.806 -0.2918 -0.0084 -0.3729
22705W        W39552  16.244  13.195  12.558 -0.2657 -0.3233 -0.0332
22706W        W39553   4.754   0.452   0.364  0.0064 -0.4023 -0.2915
22707W        W39554  10.748  10.695  12.168 -0.1890  0.1616  0.1050
22708W        W39555   7.194   6.084  15.262  0.0100 -0.2802  0.0795
22709W        W39556   8.373   6.533   1.146  0.1426  0.1632  0.0833
22710W        W39557   4.542   2.671   2.751 -0.0973  0.0407 -0.1703
22711W        W39558  12.489  13.082   4.932  0.0420  0.0354  0.0356
22712W        W39559   5.367   2.278   2.258 -0.0117  0.2243 -0.0706
22713W        W39560  12.556  14.841   2.557 -0.1737 -0.1656  0.0959
22714W        W39561  11.774   2.288   2.453 -0.0647 -0.1508 -0.0621
22715W        W39562   7.989   0.757  13.882  0.2857  0.1980 -0.2124
22716W        W39563  10.132  16.316   5.369  0.3838 -0.2256  0.3586
22717W        W39564   8.469  15.406   1.968 -0.2363  0.0581 -0.0520
22718W        W39565  14.159   4.868  12.148 -0.3940  0.1524  0.0077
22719W        W39566   3.353   1.384   4.772 -0.3231 -0.0132  0.0632
22720W        W39567  13.346  15.147  12.739  0.0713 -0.1104  0.1122
22721W        W39568   7.538  16.741  14.933 -0.0451 -0.2914  0.0850
22722W        W39569  16.248  12.190  12.705 -0.0563 -0.1586  0.0445
22723W        W39570  11.660   9.304   0.582 -0.0120 -0.1919  0.0609
22724W        W39571  16.237  13.300  15.105 -0.0934 -0.1238 -0.1575
22725W        W39572   4.436  12.353  13.636  0.3674  0.1470 -0.1730
22726W        W39573   4.605   6.697  16.580 -0.0816  0.0922  0.0678
22727W        W39574   3.343  13.515  13.120 -0.1535 -0.0584 -0.0296
22728W        W39575   8.298   0.265   0.725  0.0856 -0.2984  0.2774
22729W        W39576  14.878   8.014   4.051  0.2906  0.0524 -0.1533
22730W        W39577   7.042   3.952   3.682  0.2512  0.2674 -0.2819
22731W        W39578   3.640  14.902   4.658  0.3174  0.0013 -0.0475
22732W        W39579   7.545  12.260  13.940 -0.0663 -0.1193 -0.2678
22733W        W39580   1.992  15.332   0.845 -0.1469  0.1941 -0.2433
22734W        W39581  14.280   3.046   3.066 -0.0756  0.0371 -0.0573
22735W        W39582  11.773   6.626   2.346  0.2661 -0.0991 -0.2261
22736W        W39583  12.544   2.675   0.979 -0.0169  0.2437 -0.0650
22737W        W39584  15.784  17.414   3.275  0.2148 -0.0006 -0.0188
22738W        W39585   2.482   8.494  14.298  0.1092  0.0734  0.0045
22739W        W39586  14.070  10.844   3.119  0.0232  0.1030  0.1446
22740W        W39587  10.834   2.930  16.667 -0.1296 -0.1667  0.0458
22741W        W39588  14.726  15.014   2.967  0.2496 -0.1354  0.0685
22742W        W39589  15.847   7.223   1.675 -0.0144 -0.3330 -0.0225
22743W        W39590  16.926   4.363   0.395 -0.1140 -0.1111  0.2474
22744W        W39591   0.065  11.573  16.169  0.0741 -0.1485 -0.0124
22745W        W39592  11.713  11.155  16.480 -0.0068 -0.0054 -0.4642
22746W        W39593  10.730   2.360   3.271  0.2052 -0.0074 -0.0751
22747W        W39594   4.751  11.572   2.997 -0.2518  0.0953 -0.0910
22748W        W39595  11.400   6.886  15.883  0.1227  0.2228  0.1959
22749W        W39596   5.550  16.234  15.808 -0.0245  0.0288  0.2422
22750W        W39597  16.884   0.931  14.115 -0.2863 -0.2919  0.1694
22751W        W39598  10.130   6.840   4.220 -0.2122 -0.2710 -0.2807
22752W        W39599  11.526  17.170  13.106  0.1391  0.3196 -0.1450
22753W        W39600   9.894  12.202  12.784 -0.0681 -0.0706  0.2089
22754W        W39601  11.197  13.843   3.450  0.1205 -0.0774 -0.2269
22755W        W39602  10.806   9.164   0.723 -0.0247  0.1430  0.1843
22756W        W39603  13.012   2.926  13.165 -0.1543  0.1296 -0.0233
22757W        W39604  10.010  10.033  13.245 -0.0271 -0.2750 -0.0324
22758W        W39605   5.081  14.868   2.325  0.0926 -0.4648  0.1450
22759W        W39606  15.857  15.734   1.483 -0.0226  0.5242 -0.0789
22760W        W39607   9.120  13.182   0.740 -0.1507 -0.0147  0.0431
22761W        W39608  16.869  17.704  12.315  0.2121 -0.0143  0.0477
22762W        W39609   5.722  10.149   0.278 -0.1193 -0.2887  0.2478
22763W        W39610  12.318  16.111   3.294  0.1395 -0.1778  0.0997
22764W        W39611   3.169  14.248   3.073 -0.0876  0.0322 -0.1448
22765W        W39612  11.053   7.621  16.411  0.0180  0.1636  0.1661
22766W        W39613  17.836   8.448   3.152  0.0563 -0.1959  0.0786
22767W        W39614  13.387   1.653   2.261 -0.1011 -0.1200  0.1398
22768W        W39615   6.467   5.504  14.791 -0.0822 -0.0064  0.1763
22769W        W39616  13.738   8.092   2.736  0.2338 -0.1130 -0.0862
22770W        W39617  15.554  16.028   2.806 -0.1781 -0.0046 -0.1004
22771W        W39618   4.847   0.531  14.242  0.1410  0.1113  0.1851
22772W        W39619   7.982  15.530  12.960  0.2481  0.2332  0.2738
22773W        W39620   6.963  10.631   5.812 -0.0221 -0.0891  0.0085
22774W        W39621  11.602   5.568  13.436  0.1116 -0.0186 -0.0812
22775W        W39622   6.893   4.855   0.089 -0.0431 -0.0440  0.3174
22776W        W39623  13.883  12.964  12.073 -0.0624 -0.3652 -0.1119
22777W        W39624  14.055   4.577   3.179  0.0802  0.1745 -0.0507
22778W        W39625   1.806  13.909  12.825  0.1075 -0.3063  0.0196
22779W        W39626   1.168   6.399   0.302  0.0596  0.1210 -0.2350
22780W        W39627   5.894   6.123  15.307 -0.1314 -0.0300 -0.2786
22781W        W39628   6.624   6.665  16.347 -0.0143  0.0347  0.1513
22782W        W39629   0.638   5.465   2.624  0.0937 -0.1680  0.2020
22783W        W39630   9.851   6.751   5.128  0.0946  0.1009  0.1305
22784W        W39631   9.736   6.546   5.575 -0.2764  0.1499  0.0954
22785W        W39632   7.056   9.482   4.411  0.0843  0.1705 -0.1929
22786W        W39633  15.230  17.874  12.982 -0.1330  0.2034  0.1680
22787W        W39634   1.856   0.571   3.741 -0.0336  0.2323  0.1698
22788W        W39635  12.201  11.302  16.378  0.0432 -0.0174  0.0814
22789W        W39636  15.437  14.422   2.903 -0.0056  0.2043 -0.2772
22790W        W39637  16.309  11.615  14.891  0.2565 -0.0168  0.2127
22791W        W39638   7.605   0.168  13.242 -0.1268  0.3472 -0.0652
22792W        W39639   7.952   0.517  14.403  0.2064 -0.1805  0.2321
22793W        W39640   1.478  12.275  16.668  0.1634  0.1491 -0.0109
22794W        W39641   2.596  15.033  16.118 -0.1579 -0.0913 -0.0727
22795W        W39642   5.908   9.990  13.136  0.0301  0.0329  0.0636
22796W        W39643  14.780   8.362  13.685 -0.0591 -0.5944  0.3003
22797W        W39644  12.129   6.141   0.885 -0.0071 -0.1333  0.0045
22798W        W39645   8.821   9.683   4.896  0.0543  0.1339 -0.1664
22799W        W39646   5.247   2.091  12.633 -0.0890  0.0539 -0.0675
22800W        W39647   9.760  13.051   5.000  0.1234  0.1511  0.1809
22801W        W39648  12.027  12.540  15.671 -0.0390  0.0510  0.1876
22802W        W39649  15.482   3.503   0.065 -0.2026 -0.0235 -0.1276
22803W        W39650   0.823  17.241   0.450 -0.1402 -0.3054 -0.1372
22804W        W39651  14.188   1.134  14.555 -0.3798  0.1417 -0.0107
22805W        W39652   0.758  14.099   1.129 -0.1725  0.0351  0.1926
22806W        W39653  11.198  11.962   5.112 -0.0180  0.4513  0.2493
22807W        W39654   8.554   1.368  16.050  0.0267  0.0335  0.0230
22808W        W39655   3.892   0.393   3.160  0.2262  0.2786  0.4792
22809W        W39656  13.152  17.277  16.449 -0.1640 -0.0070 -0.0178
22810W        W39657   1.497   6.138  11.995 -0.0615  0.1781 -0.2259
22811W        W39658  14.653   9.198  13.835  0.0439 -0.2469  0.2345
22812W        W39659  13.425  13.600   3.892  0.0585  0.0581 -0.0014
22813W        W39660   5.377   1.502   4.023 -0.1566  0.2657  0.1412
22814W        W39661  17.225  10.383  13.651  0.0039 -0.0140 -0.3706
22815W        W39662  16.232   0.287   4.532 -0.2746 -0.2155 -0.2041
22816W        W39663   7.923  13.895   4.973  0.1552 -0.0943  0.0532
22817W        W39664   0.177  11.238   0.022  0.3047  0.1550  0.0767
22818W        W39665  10.898   2.025   2.263  0.2299  0.0404  0.1129
22819W        W39666  10.334  10.411  12.130 -0.0523  0.2281  0.2767
22820W        W39667  11.296  13.405   5.294 -0.0322  0.1687 -0.0558
22821W        W39668   0.504   4.762  15.135 -0.0511 -0.1887  0.1027
22822W        W39669  13.126   2.087  13.014  0.0134 -0.1998  0.1439
22823W        W39670  10.541  17.317  13.931  0.0675 -0.0949  0.0017
22824W        W39671   7.311  14.378  15.733 -0.1130  0.0971  0.3266
22825W        W39672  15.685  17.470  16.184 -0.1018  0.1981 -0.1309
22826W        W39673   5.520   8.587   3.511 -0.0469 -0.1543 -0.0976
22827W        W39674   5.112  14.257  12.536 -0.2407  0.3075  0.1599
22828W        W39675   8.641  14.294  14.991 -0.1966  0.0897 -0.2340
22829W        W39676  10.656   6.189   2.419  0.2004 -0.1213 -0.1155
22830W        W39677   5.750   9.551   3.394 -0.1148 -0.0485  0.0881
22831W        W39678  12.793   8.459   2.275  0.1825 -0.0697 -0.3050
22832W        W39679   7.878   3.284   4.872 -0.1459  0.2090 -0.0674
22833W        W39680   7.267   9.863  13.840 -0.0702 -0.1439 -0.1061
22834W        W39681  17.092   5.780  12.204 -0.2902  0.1375  0.1498
22835W        W39682   4.880   1.595   0.703 -0.1503 -0.3541 -0.0982
22836W        W39683  15.185   0.957   0.187  0.0863 -0.0668 -0.2024
22837W        W39684  17.002   9.749  14.836  0.1734 -0.0313  0.2940
22838W        W39685  13.572  17.008  14.029 -0.1632  0.0687 -0.3116
22839W        W39686   4.460   1.680  15.699 -0.2279 -0.0877  0.3421
22840W        W39687  12.666   0.396  13.847 -0.0555  0.4188 -0.2543
22841W        W39688  14.611   9.092  12.507 -0.4531  0.0511  0.0289
22842W        W39689   9.350  12.740   5.092  0.1737 -0.0898  0.0864
22843W        W39690   6.914   3.710  15.876  0.0831  0.1223 -0.1078
22844W        W39691   9.475  16.195  11.850 -0.0411 -0.0176 -0.2172
22845W        W39692  14.143  10.465  14.806  0.0271  0.0081 -0.1622
22846W        W39693   6.210   8.838   4.270  0.0329 -0.1270  0.1753
22847W        W39694  17.486  13.124   1.997  0.2778 -0.0987 -0.1866
22848W        W39695  16.606   5.068  15.269 -0.0840 -0.0823  0.1041
22849W        W39696   4.953   4.427   1.698 -0.0556 -0.0061  0.2311
22850W        W39697   0.296  15.897   5.484 -0.2781  0.0786  0.1275
22851W        W39698   5.980   8.700   0.199 -0.3045  0.1772 -0.0347
22852W        W39699   9.786  14.245   3.305 -0.0887  0.0109  0.1607
22853W        W39700  16.327   2.513   2.295 -0.1727 -0.0168 -0.0584
22854W        W39701  16.042   4.143   5.503  0.1559  0.1898  0.0266
22855W        W39702   6.484   1.864   0.693 -0.3042  0.1791 -0.2948
22856W        W39703  16.828   1.891  15.470  0.2302  0.3061 -0.2334
22857W        W39704   0.239   4.173   4.925 -0.5467  0.0663  0.0798
22858W        W39705   5.946   0.437   1.652 -0.0947 -0.2264  0.0879
22859W        W39706  16.326  15.409   4.266 -0.3276 -0.0330  0.1609
22860W        W39707  14.171   2.649   4.674 -0.1897  0.3140  0.1913
22861W        W39708  11.564  15.709   0.642  0.0440  0.2550 -0.0306
22862W        W39709   7.692   0.593  16.392 -0.0527 -0.0908 -0.0063
22863W        W39710   8.709   5.056  16.670 -0.0336 -0.2473  0.3970
22864W        W39711  12.485  11.960  16.745  0.0194 -0.1589 -0.0096
22865W        W39712   4.318   0.319   2.696 -0.1741 -0.1211  0.0247
22866W        W39713  10.598  17.630   3.996  0.1865  0.2594 -0.1365
22867W        W39714   1.264  10.357   3.103  0.0821 -0.0047  0.0727
22868W        W39715  17.840  10.781   0.995  0.0544 -0.0438 -0.0756
22869W        W39716   6.435  11.414   1.561 -0.0526 -0.0709 -0.3372
22870W        W39717   4.529   4.969  12.388 -0.0976 -0.1287 -0.1891
22871W        W39718   8.839   3.915   4.295 -0.6214 -0.2808 -0.0597
22872W        W39719  16.357   8.559   3.173 -0.0632 -0.1965  0.1080
22873W        W39720  13.837   5.601  14.566  0.0874 -0.0912 -0.1928
22874W        W39721   4.565  17.077   0.125 -0.1608 -0.1579 -0.1618
22875W        W39722   6.056   2.561  13.740 -0.2343  0.1178  0.0649
22876W        W39723   1.774   8.266  16.144  0.0661  0.2425  0.0759
22877W        W39724  14.631   5.729  12.050 -0.1104  0.4655 -0.0886
22878W        W39725   0.278  13.079   6.048 -0.0583  0.0267 -0.1196
22879W        W39726   5.897   7.180  16.746 -0.0829 -0.0383  0.2443
22880W        W39727   4.638  11.228  12.748 -0.0530  0.2161 -0.3092
22881W        W39728   1.331  10.084   5.379  0.0512 -0.0968  0.2002
22882W        W39729   8.311   4.974   3.009 -0.0538 -0.1943  0.0870
22883W        W39730   9.812   9.800   3.226 -0.0865 -0.2624 -0.0973
22884W        W39731  15.687   5.102   4.221 -0.1483  0.1856  0.1061
22885W        W39732   6.449   8.478  16.346  0.2036  0.0515 -0.1491
22886W        W39733  15.992  15.843   3.497  0.0459 -0.0674 -0.0078
22887W        W39734  16.889   5.995  13.269  0.1872  0.1627  0.4253
22888W        W39735   2.105  13.240   3.439  0.0976 -0.2609  0.0416
22889W        W39736   3.495   5.784  15.106 -0.4611 -0.1432 -0.0716
22890W        W39737   2.031  15.198  16.213  0.1266  0.0030  0.1454
22891W        W39738   7.462   9.659  12.362  0.1902 -0.1139  0.0673
22892W        W39739   2.593   7.275   3.231 -0.4200  0.0912 -0.1075
22893W        W39740  15.506  17.732   2.894  0.1780  0.2076  0.1760
22894W        W39741  16.536   4.643  15.586 -0.1065 -0.1496  0.1543
22895W        W39742   6.885  10.908   0.352 -0.0865 -0.0406  0.0209
22896W        W39743   8.361   2.475  12.411 -0.2134  0.1684  0.0295
22897W        W39744  14.441   4.606   5.480 -0.1769 -0.0527  0.0168
22898W        W39745   7.226   7.843  15.933 -0.1432  0.3165 -0.0646
22899W        W39746   2.419  14.639   5.022 -0.1509 -0.4191  0.2714
22900W        W39747   0.330  14.050  16.337 -0.4052  0.1540  0.2697
22901W        W39748  16.909   5.359  12.443  0.3059 -0.0283 -0.3045
22902W        W39749  14.118   6.952   1.985 -0.0878  0.0571  0.2078
22903W        W39750   4.658   5.642   3.794  0.0703  0.0757 -0.1201
22904W        W39751   3.919   0.447  13.113  0.2242 -0.0378 -0.0147
22905W        W39752   0.838   3.820   3.141  0.2003  0.2066 -0.1155
22906W        W39753   2.451  15.643  11.692 -0.2411 -0.0888  0.0311
22907W        W39754   8.987  11.373   2.134 -0.3339 -0.2874 -0.0953
22908W        W39755   8.980  15.087   3.427 -0.0720  0.1739 -0.0844
22909W        W39756  12.501  13.254   2.588  0.1154 -0.1836  0.1541
22910W        W39757   9.246  13.509   2.720 -0.0209 -0.1490  0.2387
22911W        W39758  11.627   4.228  15.592  0.3082 -0.0173 -0.0140
22912W        W39759   9.687  10.903   5.177  0.0110  0.0419 -0.1794
22913W        W39760   5.114  16.974  13.738 -0.1817 -0.1652 -0.0627
22914W        W39761   7.740  17.066  14.551 -0.0607  0.1586 -0.0337
22915W        W39762   4.830  11.157   5.035 -0.1710  0.0118 -0.0040
22916W        W39763  13.202  14.743  16.519  0.1599 -0.1913 -0.1973
22917W        W39764  10.209   7.200  14.375 -0.0892  0.0213  0.0828
22918W        W39765   5.241   0.330   1.708 -0.1056  0.0458  0.1614
22919W        W39766   8.911   2.011  13.166 -0.0311  0.2127 -0.0445
22920W        W39767  17.531   8.289   2.436 -0.0137 -0.2053 -0.0023
22921W        W39768  17.926   3.486   2.169 -0.1116  0.2733 -0.2671
22922W        W39769   2.487   5.772   0.433  0.0091 -0.0509  0.1358
22923W        W39770   2.248   5.199   3.444  0.3228  0.2245  0.0742
22924W        W39771  10.448  15.099  12.103 -0.2236  0.1242 -0.1557
22925W        W39772   0.351  12.076   5.659 -0.2273  0.0678 -0.1003
22926W        W39773  11.535   7.403   3.455 -0.2452 -0.2165  0.1801
22927W        W39774  16.159  16.146   3.095  0.2340 -0.0253 -0.0032
22928W        W39775   4.078   1.493  14.198 -0.1595  0.5102 -0.1213
22929W        W39776  16.906   2.797  15.909  0.0913 -0.1662 -0.3135
22930W        W39777  15.484  11.891  10.907  0.1751  0.0652  0.3478
22931W        W39778   8.692  11.830   1.973  0.1783  0.0225  0.2129
22932W        W39779  14.650   1.412   2.736  0.4751 -0.0449 -0.2049
22933W        W39780   8.573   1.027  14.910  0.0823 -0.2047  0.0340
22934W        W39781   9.462   1.856   1.806  0.4140 -0.0137  0.0319
22935W        W39782  15.979   6.925  11.718 -0.0934 -0.0044 -0.1187
22936W        W39783  16.643   8.371  13.651  0.0804 -0.0279  0.0380
22937W        W39784   1.211   5.100   4.432 -0.0716 -0.1089  0.1069
22938W        W39785   2.469   7.855  14.412 -0.0235  0.1226 -0.3272
22939W        W39786  14.825   8.865  12.953 -0.1849  0.0619  0.1541
22940W        W39787  11.718   7.910  13.850 -0.1525  0.0801 -0.0819
22941W        W39788  13.078   0.589   5.400  0.2020  0.0741  0.2476
22942W        W39789  15.778  17.359   1.093  0.1499 -0.2201  0.1999
22943W        W39790  14.589   1.058  13.577  0.1727 -0.1564  0.0393
22944W        W39791  11.395  16.463  14.277 -0.0557 -0.0539 -0.0949
22945W        W39792   6.772  16.598   3.801  0.3531  0.0181  0.1786
22946W        W39793   2.291  13.856  16.675  0.0732 -0.0015  0.0250
22947W        W39794   3.267   7.293   0.129  0.0917  0.0875 -0.2063
22948W        W39795   5.368  12.584  11.688  0.1628  0.1090 -0.1324
22949W        W39796  17.031   7.975   3.063  0.0401  0.0110  0.0666
22950W        W39797   8.016  12.841  14.023  0.0289  0.2503 -0.0281
22951W        W39798   6.108   5.556  16.289  0.0930 -0.0403  0.3130
22952W        W39799  13.421  15.803  15.077  0.1407 -0.0157 -0.2717
22953W        W39800  10.636  12.356   4.701 -0.0838  0.2653 -0.1589
22954W        W39801  10.635   5.443   1.293 -0.0562 -0.0309 -0.0866
22955W        W39802   9.906   0.619  15.683 -0.0287 -0.2239  0.0072
22956W        W39803  12.164  10.513   4.884  0.0228 -0.2146  0.0376
22957W        W39804   4.407  10.227   5.089  0.0418  0.0223  0.2237
22958W        W39805   1.566   5.613  14.321  0.3733 -0.0201  0.0601
22959W        W39806  10.640   7.355  14.159  0.3354 -0.0571 -0.0389
22960W        W39807   3.671   1.618  14.654  0.2150  0.0146 -0.0728
22961W        W39808   4.762   4.192   6.227 -0.0915  0.0004 -0.1049
22962W        W39809   6.474  10.548  12.909  0.1225  0.0473  0.0792
22963W        W39810  16.689  11.430   3.246 -0.1900 -0.0201 -0.2835
22964W        W39811  17.489  11.405  13.179  0.1401 -0.0375 -0.0633
22965W        W39812   7.941   1.287  14.208 -0.2607 -0.0546 -0.0527
22966W        W39813   4.219  12.375   5.270 -0.1730 -0.2191 -0.0689
22967W        W39814   9.268   2.089   4.837  0.2309  0.2143  0.1677
22968W        W39815   2.788   9.326   0.392 -0.1230  0.2368  0.0743
22969W        W39816   5.806  10.209   4.817  0.1432  0.3358 -0.0295
22970W        W39817  16.616   2.834  14.199  0.3254 -0.0125 -0.0208
22971W        W39818   1.544   6.451  13.255 -0.1018  0.0341 -0.0495
22972W        W39819   4.789   3.066  14.401 -0.1929 -0.0688 -0.0216
22973W        W39820   1.951  14.231   1.698  0.1742  0.2150 -0.2350
22974W        W39821   1.655  17.616   0.680 -0.0315 -0.0110  0.3619
22975W        W39822  17.735   0.353   5.481 -0.1092 -0.0787 -0.0797
22976W        W39823   1.550   4.960  16.171  0.3349  0.2129 -0.0242
22977W        W39824   2.559  15.995   4.895 -0.1457 -0.0432 -0.0899
22978W        W39825   1.679   1.710  14.555 -0.2058 -0.2217 -0.0984
22979W        W39826  17.874  14.589  15.649 -0.2613  0.1270  0.3612
22980W        W39827   6.204  17.306   3.346 -0.0689  0.3887 -0.1508
22981W        W39828  14.742  11.428   3.016  0.1211  0.1670 -0.0793
22982W        W39829   9.013   4.488  12.215  0.0854 -0.1977 -0.0835
22983W        W39830   1.138  17.078  15.478  0.1072  0.3448  0.0310
22984W        W39831   5.925   9.948   5.221 -0.1660 -0.3375  0.3198
22985W        W39832  15.081  13.942   3.708 -0.2180 -0.2224 -0.1166
22986W        W39833  11.907  11.329  14.108  0.1844 -0.0926 -0.1090
22987W        W39834   3.049   4.334   6.101  0.0577 -0.0867  0.0595
22988W        W39835  10.407  17.695  11.508  0.0771 -0.1858  0.0592
22989W        W39836  13.645   4.885   5.079  0.2751 -0.4902 -0.0767
22990W        W39837   9.235   3.508   2.773 -0.0250  0.2082 -0.1058
22991W        W39838   8.759   8.552  13.213  0.1217  0.1361 -0.2437
22992W        W39839  12.544   3.202   3.789 -0.2351  0.0008 -0.0038
22993W        W39840   2.263   8.088   2.711 -0.3306 -0.0750 -0.0931
22994W        W39841   2.592   5.857  11.899 -0.2683 -0.1176  0.0769
22995W        W39842  17.688   9.238   2.719  0.2912  0.2237 -0.0927
22996W        W39843  11.570   5.317  11.796  0.2094 -0.0031  0.0507
22997W        W39844   3.040   5.842   2.788 -0.2817  0.2214  0.0443
22998W        W39845   5.289   1.485   1.585 -0.1821 -0.2844  0.2934
22999W        W39846  14.131  17.655   4.418  0.0732 -0.0029  0.2498
23000W        W39847   4.812  12.301   0.386 -0.2785 -0.2253  0.0707
23001W        W39848  12.026   8.280  11.713  0.2590  0.1003  0.0307
23002W        W39849   3.820   9.793   5.387  0.1782 -0.1751 -0.0761
23003W        W39850   0.041   0.166   3.776 -0.2166 -0.0802  0.0979
23004W        W39851   7.606   1.619  16.483 -0.0388 -0.0568  0.0203
23005W        W39852  17.365   4.773   4.799 -0.0548 -0.0699 -0.0533
23006W        W39853  11.922   3.321  16.626  0.0360  0.2094  0.1437
23007W        W39854   8.449   6.524  14.074  0.1244 -0.2694 -0.0034
23008W        W39855  10.844   7.235   5.664  0.1031 -0.0799  0.0008
23009W        W39856   8.830   4.981  12.059 -0.1854 -0.0228 -0.1877
23010W        W39857   1.550   2.119  15.376  0.1025  0.2333 -0.0050
23011W        W39858  11.906   9.897   5.413 -0.3161  0.2966 -0.0405
23012W        W39859   8.939  17.540  16.016 -0.0070 -0.1137 -0.3637
23013W        W39860  14.339   7.989  13.889  0.0675  0.1651 -0.1510
23014W        W39861   9.263   9.668   4.037 -0.3903 -0.1351  0.2023
23015W        W39862  14.814  13.014  12.630  0.2020  0.3018 -0.0085
23016W        W39863  17.670   8.520  12.073  0.1065 -0.1847  0.2961
23017W        W39864   5.786   7.047   2.230 -0.0213 -0.1316  0.0210
23018W        W39865   5.329   5.354   1.367  0.2024  0.1940 -0.0789
23019W        W39866  10.372  16.620  11.946  0.1179  0.2673 -0.2053
23020W        W39867   3.853   0.937  13.145  0.0685  0.0501  0.0758
23021W        W39868   1.927   6.921   3.910  0.0936  0.0812  0.0244
23022W        W39869  16.313   7.489   2.995  0.1427  0.1640 -0.0284
23023W        W39870  11.776   1.271  14.119  0.0685  0.0130  0.0554
23024W        W39871   9.257   2.089  11.895 -0.0884  0.5485 -0.1797
23025W        W39872  11.816   0.683   3.198 -0.0605  0.2158  0.0215
23026W        W39873   2.328   5.974   1.505  0.4971  0.0584  0.1993
23027W        W39874  13.941  11.546  13.215 -0.0946 -0.1312  0.0341
23028W        W39875  12.111  11.853  14.227 -0.1280 -0.1910 -0.1110
23029W        W39876  10.267   4.418   4.640  0.2988  0.1458 -0.0902
23030W        W39877   0.017   1.952   4.062 -0.1318 -0.2543 -0.0240
23031W        W39878  17.398   7.329   5.502 -0.0238 -0.1488 -0.2664
23032W        W39879   6.109   9.387  13.563 -0.0968  0.0881 -0.4880
23033W        W39880  12.945  14.282   4.194  0.0493  0.2248  0.1601
23034W        W39881   9.689   1.025   3.994 -0.2171 -0.0415  0.1577
23035W        W39882  16.073  11.119   5.625 -0.2939  0.1742  0.1174
23036W        W39883   0.431  17.584  14.947  0.1650 -0.2008  0.1505
23037W        W39884  16.862  13.171   2.873 -0.0788 -0.0556  0.2626
23038W        W39885   2.383  17.647  11.550 -0.2244  0.0549 -0.1655
23039W        W39886  13.051   1.654   4.597 -0.0588  0.1033 -0.0070
23040W        W39887  11.300   9.394  11.779 -0.1497 -0.0814 -0.0110
23041W        W39888  17.890   1.098   4.276 -0.4245  0.2271  0.1915
23042W        W39889  10.900   4.479   5.232 -0.1313 -0.5848 -0.1343
23043W        W39890  13.930  17.803   1.631  0.4830  0.1189 -0.2247
23044W        W39891  17.270  11.340  11.861  0.3877 -0.0365 -0.1874
23045W        W39892  12.985  11.162  16.205  0.0747  0.3328  0.1527
23046W        W39893  11.482   9.099  16.185 -0.0542 -0.2046 -0.1417
23047W        W39894   4.383  12.007   5.592  0.3342  0.0655 -0.0816
23048W        W39895   1.307   5.700   4.190 -0.1895 -0.1724  0.0860
23049W        W39896  17.346   9.891  11.905  0.0769  0.2228 -0.2153
23050W        W39897   5.059  15.667  12.338  0.2534  0.0943  0.1052
23051W        W39898  17.652   5.266  13.559 -0.3272  0.2021  0.0292
23052W        W39899   5.229   8.535  16.702  0.1657 -0.0942 -0.0290
23053W        W39900   3.303  10.511  12.243 -0.0736 -0.4354  0.0047
23054W        W39901   1.045   2.773  11.865  0.2365 -0.3499  0.0825
23055W        W39902   0.389   6.701  16.055  0.0255 -0.1001  0.0671
23056W        W39903   3.899   0.807   5.104 -0.2570 -0.0173 -0.1357
23057W        W39904   2.719  16.000   2.168  0.0899  0.2797 -0.0193
23058W        W39905   1.713  10.392   1.605 -0.0731 -0.2788 -0.0531
23059W        W39906  13.552   6.680   3.089  0.0195  0.1054  0.0192
23060W        W39907   2.261  14.741   2.157  0.1576  0.0099 -0.0894
23061W        W39908  15.123  11.635   1.540 -0.1001  0.0253  0.0479
23062W        W39909  15.403   9.698  11.731 -0.0410 -0.1700 -0.1200
23063W        W39910  10.443  14.355  14.591  0.0165  0.2674  0.1160
23064W        W39911   1.916   8.293  13.681 -0.1595  0.1009 -0.1458
23065W        W39912   5.254   6.642   1.169  0.2272 -0.3840 -0.0937
23066W        W39913   4.019  12.285   5.788  0.1736 -0.0295 -0.3529
23067W        W39914  15.864   3.049  15.340  0.2852  0.1251 -0.1706
23068W        W39915   6.149  15.285   2.966  0.1707  0.0272 -0.0398
23069W        W39916   6.258  12.307  14.067 -0.0505 -0.1276 -0.0724
23070W        W39917   2.106  15.552   1.793 -0.1908 -0.1178 -0.3247
23071W        W39918   0.809  15.230   0.131  0.0686 -0.1788  0.0358
23072W        W39919   9.197   7.734  13.589 -0.0902  0.0912  0.3591
23073W        W39920   2.240  12.725   4.240  0.0815 -0.1041 -0.1272
23074W        W39921  13.435  15.105  14.123  0.0325  0.0227 -0.1085
23075W        W39922  11.170   0.609  16.237 -0.1149 -0.0389  0.0806
23076W        W39923   3.443  12.544   2.524  0.0138 -0.1008  0.2663
23077W        W39924   9.584  15.558   4.621  0.0800  0.1072 -0.0237
23078W        W39925   2.005   2.280   2.856  0.0973  0.3288 -0.1566
23079W        W39926   3.735  11.399  13.857  0.0589 -0.0126 -0.0119
23080W        W39927  17.481   4.753  12.912 -0.0145 -0.3187  0.0420
23081W        W39928   6.689   1.440   1.458  0.2130  0.2381 -0.0414
23082W        W39929  12.462   6.111   3.403 -0.0111 -0.0362 -0.2565
23083W        W39930  10.384  14.678   1.818  0.1953  0.0616 -0.0585
23084W        W39931  16.486   0.866  16.196 -0.0438  0.2594 -0.2140
23085W        W39932  16.873  12.928   5.803 -0.1207  0.2934 -0.1501
23086W        W39933  16.571   2.092   4.714 -0.1616 -0.3063  0.0840
23087W        W39934  15.407   1.822  11.436 -0.1039  0.0113  0.0905
23088W        W39935   6.500   0.853   1.768  0.2521 -0.1924 -0.0900
23089W        W39936  14.181   1.250  11.905 -0.0051 -0.0803 -0.1677
23090W        W39937   9.114  13.169   1.523  0.1443  0.3408  0.2714
23091W        W39938  13.820   7.561   5.314 -0.0791 -0.0386 -0.1197
23092W        W39939   0.501   3.589  14.559  0.0698 -0.2033 -0.0390
23093W        W39940   8.163   7.146   5.360 -0.1315  0.2241 -0.3382
23094W        W39941   8.847  10.098   4.613  0.1529 -0.1809 -0.1312
23095W        W39942   5.240  14.971   0.743  0.2350  0.5322 -0.0661
23096W        W39943   1.380   3.384   0.005  0.1644 -0.1249  0.0312
23097W        W39944  17.345  14.123  15.106 -0.0425 -0.0757  0.0430
23098W        W39945   2.714  17.929   0.170  0.2792  0.1164 -0.1264
23099W        W39946   1.430  11.730  16.710  0.1586  0.0442 -0.0885
23100W        W39947   1.395   3.713   0.866 -0.0723  0.1891  0.1743
23101W        W39948  15.439   3.369  14.141 -0.1983  0.1600  0.0269
23102W        W39949  12.740  11.725  12.819  0.0150  0.1240 -0.0017
23103W        W39950   1.026   9.731  15.563  0.1039 -0.0879  0.0071
23104W        W39951  13.819  14.991   0.389  0.0772 -0.0060  0.0568
23105W        W39952   0.692   9.721   4.897  0.0037 -0.0603  0.2269
23106W        W39953   8.831   8.928  14.531  0.2025 -0.1317  0.2124
23107W        W39954   9.118  17.871   0.234 -0.0612 -0.0094 -0.0095
23108W        W39955   3.185   3.608  16.064  0.0422  0.1156  0.0484
23109W        W39956   4.149   6.531  14.724  0.0295  0.1799 -0.0674
23110W        W39957  14.692  12.830   1.748  0.1879  0.2013 -0.0515
23111W        W39958  16.899  15.358   2.755 -0.1798 -0.0034 -0.3851
23112W        W39959   5.326   3.173  12.382 -0.0750 -0.0852 -0.0259
23113W        W39960   0.369   0.442  14.484  0.0148  0.1503 -0.1002
23114W        W39961   3.123   5.334   2.875 -0.2866 -0.3015  0.1498
23115W        W39962  14.608  16.323   4.748  0.3220  0.2324  0.0208
23116W        W39963   5.810   2.627   0.490  0.2291  0.0053  0.0463
23117W        W39964   1.839   5.174  14.306  0.1355 -0.0239 -0.0912
23118W        W39965   3.400  17.626  12.525 -0.2783 -0.2315  0.0244
23119W        W39966   9.195   1.561   4.637 -0.1203  0.1667  0.2591
23120W        W39967  17.410  12.170   1.620 -0.1593 -0.1329  0.1461
23121W        W39968  13.115   5.021  12.214  0.0722 -0.1598  0.4376
23122W        W39969  16.014   8.975  15.562 -0.4438 -0.0347  0.0302
23123W        W39970   8.695   9.945   5.344 -0.0980 -0.1443 -0.0949
23124W        W39971  17.586   0.955   1.497  0.0839 -0.0675  0.3511
23125W        W39972  14.086   2.154   2.490  0.0196  0.0880  0.0322
23126W        W39973   9.273   2.853  12.684 -0.2006 -0.0251  0.0244
23127W        W39974  11.726  12.839  12.802  0.0415 -0.0564  0.0426
23128W        W39975   2.590   5.892   3.081 -0.0563  0.1617  0.1879
23129W        W39976   0.385   9.828   0.860  0.2954  0.1862 -0.0670
23130W        W39977   7.593  16.296  13.202  0.0629 -0.0876  0.0314
23131W        W39978   2.999   4.149  14.404  0.0057 -0.2068  0.0625
23132W        W39979  11.824  11.465  13.037  0.0488 -0.2643 -0.1685
23133W        W39980   2.614  14.327   3.447 -0.0380  0.2013  0.0662
23134W        W39981   2.539   4.959  12.221  0.1354 -0.0394 -0.1145
23135W        W39982   6.134   6.429  14.355 -0.2598  0.3332 -0.1609
23136W        W39983   5.961  10.521  11.599 -0.0373 -0.0269  0.0788
23137W        W39984   4.603   9.423  14.488 -0.1081 -0.2842 -0.0778
23138W        W39985  16.326  12.742   6.356  0.1197  0.2113  0.0058
23139W        W39986   2.281   5.338  11.926 -0.2226  0.2166  0.2807
23140W        W39987  13.832  15.174  12.709  0.1319 -0.0605 -0.0239
23141W        W39988   8.010  12.905   1.380 -0.1497 -0.0482 -0.1000
23142W        W39989   1.014  15.267   1.262  0.3244  0.0489  0.2690
23143W        W39990  12.010  17.946  11.759  0.0713  0.0669 -0.1421
23144W        W39991   2.056   9.333   2.955 -0.1331 -0.0396 -0.0038
23145W        W39992   7.843  13.060  16.680 -0.0588 -0.0432  0.2507
23146W        W39993  14.633   3.798  11.798  0.3328  0.0367  0.1181
23147W        W39994   6.549  16.751  11.814  0.2142 -0.2387  0.0048
23148W        W39995   4.032  11.687   5.550 -0.1560 -0.0163 -0.1827
23149W        W39996   4.337   1.227   2.396  0.2357 -0.0208 -0.1974
23150W        W39997   6.150   7.197  15.454 -0.3802  0.0590  0.1336
23151W        W39998  11.669   3.570   0.749 -0.2669  0.2092  0.0985
23152W        W39999  15.754   8.033  14.925 -0.3132  0.2748  0.1236
23153W        W40000   9.535  13.816  15.818 -0.0608  0.3603  0.1190
23154W        W40001   4.755  13.576  12.678  0.2841  0.0087 -0.1367
23155W        W40002  16.307  10.719   2.610 -0.0510  0.0940 -0.1232
23156W        W40003  13.418   6.974  14.930  0.3694  0.1093 -0.1271
23157W        W40004   5.663   9.871  15.408 -0.2470 -0.0240  0.0688
23158W        W40005  16.024  11.387  15.524  0.0562 -0.1416  0.0054
23159W        W40006   5.089   9.731  12.298  0.3752 -0.0701 -0.2783
23160W        W40007   0.478  12.476   4.780  0.0704  0.0870  0.1213
23161W        W40008   7.566  16.333   1.710 -0.1217 -0.1809  0.1195
23162W        W40009   8.958   7.770   4.169  0.1953 -0.1103  0.2526
23163W        W40010   9.759  13.550  15.465 -0.1761 -0.0815 -0.3819
23164W        W40011  13.307   2.441   1.726 -0.0044 -0.2691 -0.1200
23165W        W40012  15.956  12.474   2.041  0.1434 -0.3122  0.1882
23166W        W40013   5.220   2.062   1.432 -0.2148  0.0374 -0.0488
23167W        W40014  17.654   1.103   0.971 -0.1734 -0.1518 -0.2026
23168W        W40015   5.459  14.089   1.747 -0.3301 -0.1639  0.1808
23169W        W40016   3.170   6.984   1.404 -0.0360 -0.1533  0.8038
23170W        W40017  17.607  12.979  12.430 -0.2679 -0.0457  0.0098
23171W        W40018  15.749   1.732  10.402 -0.1837 -0.2760  0.0182
23172W        W40019   3.034   4.215  12.090 -0.0227  0.2245  0.2257
23173W        W40020  11.321  11.547   5.508 -0.1738  0.0115  0.1369
23174W        W40021  16.712  16.241  11.792  0.2521  0.0143  0.2554
23175W        W40022  11.681   7.207  12.117  0.0577 -0.3483 -0.0661
23176W        W40023  10.508  12.043  14.801  0.1181 -0.2414 -0.0690
23177W        W40024  17.115  10.660   5.229 -0.0079  0.2016 -0.0710
23178W        W40025  15.290   3.752   3.780 -0.3951 -0.0050  0.3461
23179W        W40026   5.964  12.937  12.276  0.1358  0.2499  0.1891
23180W        W40027   8.535  12.399   1.067  0.0220  0.0550 -0.1771
23181W        W40028  11.471   2.043   3.267 -0.0824 -0.0624  0.0209
23182W        W40029  11.837  16.517   1.389  0.0375 -0.0195 -0.0763
23183W        W40030   4.435   7.275  13.494 -0.1884 -0.2033  0.1077
23184W        W40031   0.355   7.059   0.547  0.3508  0.0263  0.0788
23185W        W40032   4.127   6.824  16.751  0.3390 -0.0618 -0.0219
23186W        W40033  16.652  14.374   0.182 -0.1771 -0.3025  0.3346
23187W        W40034   1.640   5.870   4.660 -0.2018  0.0586 -0.0183
23188W        W40035   8.182   2.299  13.826  0.0712  0.1111  0.0099
23189W        W40036   8.065  16.549  11.968 -0.2096  0.0781 -0.0371
23190W        W40037  10.410   3.993   4.296  0.0039  0.0924 -0.0340
23191W        W40038   1.766   7.564   0.788  0.1966  0.1416 -0.0197
23192W        W40039   9.001   6.900  14.963  0.1302  0.2847  0.3683
23193W        W40040   5.045  13.187  14.356  0.0896  0.0602 -0.0509
23194W        W40041   0.564  15.504   4.069 -0.3376  0.0185  0.1157
23195W        W40042   2.189   6.112   1.925 -0.0128  0.0550 -0.1126
23196W        W40043   5.973  10.396  13.759  0.1306 -0.0477 -0.1185
23197W        W40044  15.922  14.404   5.862 -0.0542 -0.0888 -0.0969
23198W        W40045  10.605   6.426   1.457  0.2113  0.3027  0.0181
23199W        W40046   1.517   2.798   0.692  0.1818 -0.0461  0.3840
23200W        W40047   7.824   6.412  12.897 -0.1418  0.1041  0.0349
23201W        W40048  13.930   9.806   1.301 -0.1159  0.1337 -0.1914
23202W        W40049   4.918   6.727   6.830  0.3786  0.3032  0.1898
23203W        W40050  14.523  15.921   1.423 -0.1921  0.1779  0.0895
23204W        W40051  14.699  12.901  15.833 -0.0845  0.0489  0.0331
23205W        W40052   9.724   7.623  13.625 -0.1636  0.2779 -0.2557
23206W        W40053   1.260  13.050   0.025 -0.1499 -0.3840  0.1061
23207W        W40054   9.353   7.349   1.900  0.1359  0.1777 -0.0971
23208W        W40055  10.953  15.600   3.485 -0.0277 -0.1341  0.1084
23209W        W40056  16.100   1.299   4.683  0.0458  0.4008  0.1206
23210W        W40057   1.746  16.555  11.715  0.0804 -0.0429 -0.2497
23211W        W40058  15.615   0.393   2.989  0.3360 -0.2650 -0.0968
23212W        W40059  13.443   2.588   3.248  0.0418  0.4613  0.1200
23213W        W40060   0.461  17.610  14.476  0.0793 -0.0337 -0.4484
23214W        W40061  16.359   5.311  12.238  0.2400 -0.0724  0.0521
23215W        W40062   0.987  13.910   3.877  0.0666 -0.0246  0.0912
23216W        W40063  14.025   5.927  13.080 -0.1752  0.1840  0.2242
23217W        W40064  14.063   1.638   5.819  0.0624  0.2381  0.0553
23218W        W40065  12.479  13.970   3.867 -0.1013 -0.4211  0.2071
23219W        W40066  13.209   9.723   2.716  0.1033  0.2186  0.0325
23220W        W40067   2.167  11.658   5.467  0.1557 -0.0731  0.0710
23221W        W40068   7.929  12.400   3.931  0.0956 -0.0788  0.0077
23222W        W40069  16.387   1.455  13.533 -0.1519  0.1028  0.1569
23223W        W40070   6.884   4.651  15.089 -0.2890  0.1629 -0.4297
23224W        W40071   6.031   8.178  13.136 -0.1397 -0.1319 -0.0629
23225W        W40072   9.723  13.528   2.527  0.0149  0.1719  0.0883
23226W        W40073  15.343  17.361   2.554 -0.0865 -0.0349 -0.0118
23227W        W40074   6.470  12.945  12.338 -0.2362  0.0996 -0.0314
23228W        W40075   4.082  17.829   3.465 -0.1240 -0.0150 -0.0533
23229W        W40076  17.022  14.854   5.350  0.2097 -0.0634  0.1789
23230W        W40077   4.343  14.498   4.429 -0.3873 -0.2573 -0.1208
23231W        W40078   5.585  13.397  14.666  0.1418  0.1879  0.0519
23232W        W40079   0.554   8.799   2.338  0.1575  0.0842 -0.2485
23233W        W40080   7.266   2.182  12.357 -0.0290  0.0620  0.0692
23234W        W40081  13.776  11.765   2.043  0.1098 -0.0635  0.0644
23235W        W40082   6.382  13.565   1.042 -0.0748  0.0118  0.1768
23236W        W40083   2.095  16.091  14.376 -0.0782  0.0924 -0.4206
23237W        W40084  12.221   9.817   2.340  0.0487 -0.3935 -0.2035
23238W        W40085   3.187   0.070   4.221 -0.1274 -0.1100  0.1061
23239W        W40086   3.206  15.646   0.260 -0.1289 -0.2287  0.2454
23240W        W40087  13.990   2.026  13.549 -0.1798 -0.1472  0.2325
23241W        W40088   4.858   5.436   2.234 -0.2673  0.0022 -0.0766
23242W        W40089   8.589   4.064   0.845 -0.0799 -0.0969 -0.0186
23243W        W40090   8.303  17.261   5.378  0.0089  0.2264  0.0757
23244W        W40091  14.127  16.012   2.138 -0.0203 -0.3295 -0.0610
23245W        W40092  17.939  13.779   4.054  0.3078 -0.4053 -0.5137
23246W        W40093   3.553  12.320   5.754  0.2992  0.1392 -0.2262
23247W        W40094   9.157  10.901  15.006 -0.2374  0.1106 -0.1057
23248W        W40095  12.115  14.915   5.112 -0.1756 -0.2196 -0.0374
23249W        W40096  13.081   2.909  12.630  0.3695 -0.2620 -0.0855
23250W        W40097  17.499  10.813  11.974 -0.1365 -0.0787  0.3542
23251W        W40098   9.900  16.670  13.126  0.1497 -0.0398  0.0880
23252W        W40099  16.204  16.920  14.673 -0.1069 -0.0260 -0.0757
23253W        W40100  14.062   5.256  13.478 -0.0849  0.0538  0.0009
23254W        W40101   0.698   4.696  11.427  0.3511  0.1334 -0.0098
23255W        W40102   0.948   2.918  14.951 -0.1169  0.3878 -0.0360
23256W        W40103   8.032  10.961  11.989 -0.0379 -0.1130 -0.2815
23257W        W40104  12.345   3.653   5.145 -0.1070 -0.2047 -0.1961
23258W        W40105  15.593   0.116  12.622  0.0700  0.3366  0.0144
23259W        W40106   6.345  16.786  15.471 -0.0793  0.4391  0.0640
23260W        W40107   6.201  15.514  14.135 -0.1099  0.3672 -0.0911
23261W        W40108   9.021  13.265   2.304 -0.1144 -0.2020  0.1001
23262W        W40109   3.199  14.729   1.988  0.2543 -0.2652  0.0036
23263W        W40110  17.615   2.263   1.868  0.3362 -0.0488 -0.2308
23264W        W40111  10.940   9.966   5.177 -0.2708  0.1184 -0.2931
23265W        W40112  13.588   9.140   0.077  0.2366 -0.2389 -0.2691
23266W        W40113  15.079  11.181   1.277  0.3984 -0.2877 -0.0528
23267W        W40114  16.459   0.335   5.203  0.1051  0.2192 -0.1649
23268W        W40115   0.786  15.328  13.544 -0.0774  0.0024  0.3184
23269W        W40116   4.271  10.345   3.125 -0.1790  0.2690  0.1054
23270W        W40117   3.371  14.353  12.697 -0.1024 -0.1057 -0.0965
23271W        W40118  17.336   2.533  12.387  0.2138  0.3542 -0.2230
23272W        W40119   1.915   9.970  14.640  0.0685  0.0652  0.1774
23273W        W40120  15.216   1.334   0.835 -0.1299 -0.0544  0.1303
23274W        W40121  12.962   9.241  13.449  0.2013  0.0666 -0.1565
23275W        W40122   8.024   6.260   5.549  0.0881  0.3533 -0.0087
23276W        W40123  16.244  16.691   5.468 -0.1956  0.2269  0.1277
23277W        W40124  11.081   7.048   3.470  0.1847 -0.1794 -0.2253
23278W        W40125  15.942  15.285  15.328 -0.0375  0.2931  0.2211
23279W        W40126  17.313   6.684  13.890 -0.3106  0.0680  0.1718
23280W        W40127   6.266  14.075   1.055  0.0160  0.1325  0.2485
23281W        W40128  10.513  12.630   2.882 -0.1602  0.0935  0.1333
23282W        W40129  17.756  11.482  15.283  0.0904 -0.2134  0.0793
23283W        W40130  15.150   2.307  13.834 -0.1320 -0.2054 -0.2522
23284W        W40131  14.958   9.762  13.431 -0.2377  0.1744  0.0029
23285W        W40132   9.624   1.433  13.106  0.0506  0.2341 -0.3099
23286W        W40133   8.557  12.271  16.068 -0.0846 -0.0663  0.0210
23287W        W40134  16.729  14.606   5.012  0.0650  0.2769  0.0464
23288W        W40135   2.236  17.807  16.724  0.0709 -0.1095  0.1144
23289W        W40136  14.180  17.746   1.081  0.0649  0.0683 -0.0144
23290W        W40137   6.438   2.709   2.209  0.2677  0.0821  0.2267
23291W        W40138  13.281   6.314  14.330 -0.3059 -0.0977 -0.2071
23292W        W40139   3.167  11.707  11.623  0.1612 -0.0025 -0.1504
23293W        W40140  15.011   3.856  15.672  0.3184 -0.0195 -0.1527
23294W        W40141  13.623  15.989  14.103  0.1655  0.3039  0.2000
23295W        W40142   6.106  12.348   1.316  0.1352 -0.2151 -0.0678
23296W        W40143  11.787   8.649   3.310 -0.0799 -0.2287 -0.1162
23297W        W40144   3.975   8.165  13.844 -0.0047 -0.2308 -0.0785
23298W        W40145   4.194   5.044  13.718  0.0336  0.0522 -0.0406
23299W        W40146  15.659   9.613   4.911  0.0276  0.1360 -0.0268
23300W        W40147   2.496   4.697  14.846 -0.2290 -0.2892  0.1646
23301W        W40148   1.977   3.307  11.416  0.2506 -0.1520  0.2756
23302W        W40149  13.584  10.652   5.424 -0.3993 -0.2684  0.3830
23303W        W40150   2.788   1.281   1.775  0.0659  0.1025 -0.0373
23304W        W40151   1.014  11.275  12.692 -0.1182  0.3172  0.1428
23305W        W40152   8.079  12.506   5.326  0.0866  0.0110 -0.4398
23306W        W40153   5.755   0.751  16.075 -0.1157  0.0553  0.1651
23307W        W40154  12.939  12.215   0.915 -0.0558 -0.0569  0.2426
23308W        W40155   5.141  15.634   3.036  0.3090  0.2677  0.2422
23309W        W40156   6.531   5.807   2.445  0.3636 -0.1720 -0.1411
23310W        W40157   3.470   8.867   2.429 -0.1246 -0.0787  0.1855
23311W        W40158   6.297   3.859   1.844  0.1908 -0.4145  0.0069
23312W        W40159   4.168   7.059   3.995 -0.0745 -0.0385  0.3803
23313W        W40160   5.855  12.180   4.767  0.1078  0.1059  0.1263
23314W        W40161  15.690  16.921  14.797  0.0754  0.0908  0.1839
23315W        W40162  14.547  16.058  15.172  0.0144 -0.0151  0.3019
23316W        W40163  12.442   7.537  15.453  0.3566 -0.0086 -0.3773
23317W        W40164  14.852   7.711  16.700 -0.1384  0.1612 -0.0685
23318W        W40165   2.600   7.839  16.144  0.3333  0.0185  0.1667
23319W        W40166  16.737  17.541   3.666  0.0004 -0.0746  0.0665
23320W        W40167  15.718  16.195  15.141 -0.1935 -0.1942 -0.4193
23321W        W40168   4.862   0.958   2.298 -0.2823 -0.0280  0.1758
23322W        W40169  13.005   2.594   1.283  0.2710 -0.1091 -0.0428
23323W        W40170   7.742  14.090  15.407 -0.1838  0.3233  0.1680
23324W        W40171  16.734   1.017  12.711 -0.1450 -0.1978  0.2102
23325W        W40172   2.503   9.423   2.626  0.3011 -0.2401 -0.0227
23326W        W40173   2.301  10.861  15.837 -0.1559  0.7529  0.0758
23327W        W40174   6.529   7.048   6.220  0.0820 -0.0953 -0.0964
23328W        W40175  10.820  12.320   2.040  0.0981  0.1795  0.2297
23329W        W40176  11.667   3.681  14.072  0.0844 -0.0570  0.0940
23330W        W40177   5.118   2.361  14.065  0.0105  0.1396 -0.0853
23331W        W40178  13.261  10.856  14.684 -0.0418  0.0001  0.4082
23332W        W40179   6.313   1.600  15.943 -0.0967  0.0016 -0.2639
23333W        W40180   1.918   7.451  13.159  0.1069 -0.1067  0.1619
23334W        W40181   1.235   4.525   5.569  0.1432 -0.1265  0.4364
23335W        W40182  15.566   8.819  15.300 -0.1626  0.5618  0.0144
23336W        W40183  13.811  13.510   1.081 -0.1198  0.2995  0.1538
23337W        W40184   4.106   8.517  14.833 -0.1678 -0.0381  0.0679
23338W        W40185   9.678  16.074   3.146  0.0073 -0.1267 -0.1390
23339W        W40186   6.954  12.729   5.659 -0.0429  0.1222  0.2289
23340W        W40187  12.627   1.605   4.309  0.0224  0.0017  0.1575
23341W        W40188  15.100   4.146  12.823  0.4370  0.0608  0.1850
23342W        W40189  14.941   1.219  16.561  0.0831 -0.1853 -0.0879
23343W        W40190   9.280  11.281  14.420 -0.0997  0.0544  0.3203
23344W        W40191   7.890   1.105   2.446 -0.2541 -0.0638  0.0107
23345W        W40192   9.923   7.695  15.301 -0.0573  0.0209  0.2652
23346W        W40193   5.309   5.868  14.334 -0.0976 -0.0730  0.1910
23347W        W40194  15.373   3.637   1.948  0.0019  0.1345  0.0225
23348W        W40195   1.202  10.911  16.148  0.3960  0.0231  0.2300
23349W        W40196  13.578   0.316   3.439 -0.0191  0.4472  0.0211
23350W        W40197   9.893  10.902   2.466 -0.2124  0.4155 -0.1362
23351W        W40198   3.907  10.549   2.506 -0.0868  0.0793  0.0927
23352W        W40199  16.551   2.074  15.821  0.3111  0.1285  0.0680
23353W        W40200  13.152  12.572  12.893 -0.4244 -0.3455 -0.1223
23354W        W40201  17.149   9.932   4.359  0.3672 -0.1462 -0.0171
23355W        W40202  14.868   3.329   2.563 -0.2345  0.2783 -0.1694
23356W        W40203  15.774  11.538  15.131 -0.0965  0.1958  0.1200
23357W        W40204   3.172   7.826   0.213  0.2641  0.2033 -0.3913
23358W        W40205   8.441   0.640  14.452  0.1168 -0.2913 -0.1251
23359W        W40206   2.225   0.328   0.873  0.1397  0.1410 -0.2074
23360W        W40207  15.634   3.043  13.790 -0.3001  0.1983 -0.0628
23361W        W40208  17.624   7.816   2.513 -0.2313 -0.4779  0.1549
23362W        W40209   9.616  14.825  13.615  0.3852 -0.0147 -0.1042
23363W        W40210   2.652   5.921  15.167 -0.1200 -0.1325  0.0968
23364W        W40211  12.832  11.423  11.793  0.0499  0.2489  0.0286
23365W        W40212  13.912   2.653  11.686  0.1232 -0.2061 -0.4547
23366W        W40213  13.819   0.132   1.187 -0.0944  0.1326  0.0740
23367W        W40214   2.078  14.072   0.298  0.0046  0.2393  0.3195
23368W        W40215   4.401   0.970   0.597 -0.0404  0.1006  0.0164
23369W        W40216  11.203   4.757  13.002 -0.0931 -0.1782  0.0782
23370W        W40217  17.004  17.242  14.732 -0.0213  0.1160 -0.2718
23371W        W40218  13.175   9.718   4.219  0.1649  0.0433 -0.3512
23372W        W40219   4.061  14.360  11.762 -0.3378 -0.1201  0.2313
23373W        W40220  14.392  12.863   0.451 -0.1815  0.0828  0.0719
23374W        W40221   2.800  11.219   4.893  0.1356  0.3341 -0.0763
23375W        W40222   0.877   6.216  14.682  0.2425 -0.1593  0.0103
23376W        W40223   3.831   4.993  14.800 -0.0182 -0.1112  0.0868
23377W        W40224   7.220  13.110  11.985  0.2024  0.3495 -0.1829
23378W        W40225   1.499  17.798   2.035 -0.0990  0.0669 -0.1831
23379W        W40226   8.023   5.888  14.893 -0.0392 -0.2943 -0.0933
23380W        W40227   8.270   2.779  14.975  0.2008 -0.1322  0.1097
23381W        W40228  11.133  13.168  11.953 -0.0798  0.4895 -0.0137
23382W        W40229  15.378   1.240   2.168 -0.0423 -0.0286 -0.1400
23383W        W40230   8.695  14.579   4.333 -0.0873 -0.1354  0.1051
23384W        W40231   4.808   5.244  15.485 -0.1518 -0.3173  0.1661
23385W        W40232   6.079   1.267   4.135 -0.0804  0.2992  0.0527
23386W        W40233  16.629  14.681  14.211  0.1795 -0.2056 -0.2157
23387W        W40234   1.906  17.459  15.311 -0.1491  0.0549 -0.1513
23388W        W40235  13.876  12.239  15.547  0.4415  0.1079  0.1831
23389W        W40236  17.809   3.131   0.045  0.2193 -0.2453  0.0114
23390W        W40237  15.071   1.682  16.709  0.0963  0.0586 -0.1705
23391W        W40238   9.441   6.309   4.728  0.2252 -0.0909  0.2696
23392W        W40239  17.599  14.511  15.229 -0.1140 -0.0845  0.0633
23393W        W40240  12.446   7.241   2.928 -0.0632 -0.1066  0.0738
23394W        W40241   7.345  14.999   2.128 -0.0768 -0.1017  0.3151
23395W        W40242  17.868  16.676  15.624 -0.2245 -0.0312 -0.1784
23396W        W40243   8.069  13.248  13.134  0.1698  0.1755 -0.2150
23397W        W40244   3.299   6.870  15.428  0.2551 -0.4738 -0.0981
23398W        W40245   9.326  12.156  14.775 -0.1083  0.1336 -0.3198
23399W        W40246   6.515   3.106  14.921  0.1865 -0.0346  0.1732
23400W        W40247   8.303   5.794   4.756  0.1945  0.0835  0.1050
23401W        W40248   8.922  12.232   3.855 -0.0628 -0.1066 -0.3160
23402W        W40249  17.244   6.857   5.220  0.4723  0.2535  0.1323
23403W        W40250  13.851  15.194   2.449  0.0300  0.1012  0.0775
23404W        W40251   0.435   8.119   5.441  0.3342  0.0007 -0.0064
23405W        W40252  13.320  16.018   1.627  0.2435 -0.0481  0.1866
23406W        W40253  13.703  12.310   4.779  0.1415  0.2641 -0.2550
23407W        W40254  12.571   3.914  12.496  0.1880  0.1869 -0.2026
23408W        W40255  12.085  13.241   4.301  0.4956 -0.3294  0.1765
23409W        W40256   1.819  14.691   1.786  0.0598  0.2945 -0.0918
23410W        W40257   7.637  14.148  12.872 -0.0350 -0.4808  0.0503
23411W        W40258   0.605   6.781   5.791  0.1007 -0.0496  0.1199
23412W        W40259   9.167   6.802  15.466 -0.2112  0.0548  0.3686
23413W        W40260  14.199  14.956   1.563  0.2233  0.0159 -0.1382
23414W        W40261   1.826  15.843   0.646 -0.2246 -0.2752  0.0155
23415W        W40262  11.184  14.332  14.074 -0.1449  0.2149  0.2101
23416W        W40263  16.487  17.111   3.730  0.1595  0.2771  0.0100
23417W        W40264   6.078  12.524  16.176 -0.0433 -0.1094  0.1491
23418W        W40265  17.884   4.322  14.715  0.0001 -0.2245  0.2027
23419W        W40266   5.341   9.406   3.682  0.0962 -0.1039  0.1500
23420W        W40267   4.565   5.480   1.012 -0.0197  0.1183  0.0660
23421W        W40268  12.075   3.936  15.655  0.5057  0.0111  0.1333
23422W        W40269   0.949   5.018   2.811  0.2202 -0.2492  0.2941
23423W        W40270   2.648   2.740  11.719 -0.0485  0.0876  0.0862
23424W        W40271  12.471  10.088   3.544 -0.0259 -0.1329 -0.0478
23425W        W40272   2.181   7.857   3.676 -0.3276  0.0272  0.1685
23426W        W40273   1.177   1.620  14.350  0.0584  0.2996 -0.1969
23427W        W40274  15.455  15.689   3.240  0.0853  0.0349 -0.1104
23428W        W40275  14.517  13.965  15.360  0.2836  0.1666  0.0953
23429W        W40276   4.299   0.508  14.900 -0.2174 -0.0614 -0.1091
23430W        W40277  13.281   5.610   1.585  0.0592 -0.1610  0.0452
23431W        W40278  13.530  12.196  15.971  0.0349  0.1721  0.2238
23432W        W40279   4.138   7.411  15.171  0.2899 -0.0157  0.0011
23433W        W40280   1.308  11.758   1.965 -0.0360  0.2615 -0.0225
23434W        W40281  14.386   9.103   3.274  0.1180 -0.0980  0.3420
23435W        W40282   9.253   2.101   5.349 -0.3043 -0.0550 -0.0039
23436W        W40283   0.428   7.229   2.387  0.0111 -0.0208  0.0116
23437W        W40284   8.045  11.056  16.164 -0.0880 -0.0072 -0.1637
23438W        W40285  11.286   6.584   3.350 -0.3461  0.0230  0.0867
23439W        W40286  12.466   9.087  11.646  0.1326 -0.0427  0.1252
23440W        W40287  10.633   7.945   2.026 -0.0141  0.1051 -0.1481
23441W        W40288   7.711  16.106  14.456  0.3152 -0.0400 -0.1936
23442W        W40289  16.571  16.636   4.508  0.2829 -0.0886 -0.2876
23443W        W40290   2.001   6.136   2.459  0.1850  0.0826 -0.0084
23444W        W40291  17.148  13.216   3.701  0.0576 -0.0259  0.4793
23445W        W40292   3.749  10.249  15.181 -0.3050  0.0435  0.0677
23446W        W40293   3.222  12.141  13.593  0.0809  0.0100 -0.0431
23447W        W40294  13.066  16.530   0.434 -0.2748 -0.1309 -0.0977
23448W        W40295  13.266  17.329   4.907 -0.0613  0.2510  0.3392
23449W        W40296  17.531   0.780  13.407 -0.0902  0.0305  0.0328
23450W        W40297  13.125  17.078   3.386 -0.2506 -0.1317  0.0071
23451W        W40298   0.108   1.315  14.685  0.0219  0.1004  0.2702
23452W        W40299   5.638   6.166   2.261  0.1150 -0.2011  0.2559
23453W        W40300   6.528  12.743   4.953  0.1283  0.0501 -0.1299
23454W        W40301   4.513   2.025  14.724 -0.1152  0.1402  0.1888
23455W        W40302   2.032   0.075  12.374 -0.0091 -0.1128  0.1182
23456W        W40303   6.267  13.914   1.517  0.0650  0.3902 -0.0409
23457W        W40304  15.801   8.351  14.149  0.0950  0.2543 -0.1198
23458W        W40305   8.142   5.586  14.527  0.4057  0.0005 -0.0668
23459W        W40306  16.085  10.130  14.585  0.0261 -0.1185  0.1990
23460W        W40307   0.561   1.257  12.716  0.1363 -0.1543 -0.1512
23461W        W40308   8.671  10.679   0.137  0.2493 -0.1181  0.2489
23462W        W40309   8.324  11.100   3.032  0.2748  0.0724  0.3204
23463W        W40310  11.835  17.899  16.751  0.2655  0.1125 -0.0576
23464W        W40311   9.555  16.468  11.420 -0.2566  0.1513 -0.0268
23465W        W40312   2.020   8.514  12.410 -0.0553 -0.0504  0.2080
23466W        W40313  12.171   7.652   3.696 -0.1585 -0.3004  0.3300
23467W        W40314   2.297  12.256  15.649 -0.0141 -0.0307 -0.0266
23468W        W40315   4.174   8.982   3.383 -0.1150 -0.2308  0.1965
23469W        W40316   8.025   1.224   4.084 -0.0521 -0.0908 -0.1473
23470W        W40317   2.708   5.889  13.586 -0.0434  0.3188  0.0563
23471W        W40318  13.215  12.270   2.623  0.1927 -0.2551  0.0369
23472W        W40319   3.955   1.570  12.457 -0.0183 -0.0588  0.0015
23473W        W40320   3.735  17.735  13.444  0.0541  0.2144  0.2632
23474W        W40321   7.697   6.800  15.188 -0.1864 -0.1425  0.1470
23475W        W40322  10.570  11.864   0.360 -0.1881 -0.2813  0.1952
23476W        W40323  14.476  10.082   0.012 -0.1380  0.0242  0.0876
23477W        W40324  13.251  15.179  14.667 -0.3057 -0.4280 -0.0282
23478W        W40325  13.546   8.998   3.186  0.0127  0.0070 -0.4832
23479W        W40326  10.764  12.692  13.672  0.0287 -0.3047  0.1912
23480W        W40327   2.880  14.906  15.614  0.0300 -0.0658  0.0721
23481W        W40328   7.639  17.486  12.649 -0.2897  0.1266 -0.4112
23482W        W40329  15.476  16.907   5.023 -0.0375  0.2132  0.0298
23483W        W40330   5.088  11.392  12.981 -0.1324 -0.1009  0.1000
23484W        W40331  12.834  17.092  13.248 -0.1719 -0.0821  0.1084
23485W        W40332  14.170  13.236   0.139 -0.1056  0.0038 -0.1264
23486W        W40333   7.649  16.600  14.375  0.0303  0.3542 -0.1025
23487W        W40334   8.392  16.238  14.912  0.1333  0.1827 -0.0676
23488W        W40335   7.404   8.083   2.001  0.1555 -0.1146  0.1897
23489W        W40336  16.875   2.329  14.554  0.1221  0.2481 -0.1274
23490W        W40337   2.682   9.955  15.707  0.1346  0.0098 -0.0309
23491W        W40338  11.046   6.222   1.221 -0.2108 -0.2486 -0.0338
23492W        W40339   8.736   2.040   5.463 -0.2708  0.1295 -0.1712
23493W        W40340  13.669   8.317   2.267 -0.1408 -0.2577  0.1719
23494W        W40341   0.044   0.617   3.041 -0.0249  0.2780 -0.1210
23495W        W40342   6.338   1.849  15.315  0.1519  0.0310 -0.0052
23496W        W40343   8.305  14.419   5.673  0.0489 -0.0436 -0.0157
23497W        W40344  17.414  13.744   3.283  0.1530  0.0954  0.1899
23498W        W40345   3.311   4.875   1.601  0.1587 -0.2961 -0.0472
23499W        W40346  16.611   2.480  13.280  0.2209 -0.0039  0.0238
23500W        W40347   0.718   8.048   4.938 -0.0125  0.0426  0.1522
23501W        W40348  16.599  16.437   1.264 -0.2594 -0.1885 -0.1689
23502W        W40349   8.844   3.270  12.803 -0.3098  0.1512  0.0377
23503W        W40350  15.366   2.064   5.583 -0.0985 -0.1321 -0.1258
23504W        W40351   9.295   1.838  16.482  0.2214 -0.3662 -0.2295
23505W        W40352  13.430  12.209   0.880  0.1351  0.0978 -0.2291
23506W        W40353  14.891   8.380  14.949 -0.0390 -0.1402  0.1696
23507W        W40354   2.534  14.307   0.129 -0.1032 -0.0804  0.1911
23508W        W40355   5.000   9.816   0.224  0.0943  0.0506 -0.0233
23509W        W40356  15.483  15.078  12.221 -0.2131  0.1152  0.5000
23510W        W40357   8.087  16.333  13.538 -0.1151  0.0232 -0.1322
23511W        W40358  14.256  10.979  16.176  0.2104  0.0904  0.2794
23512W        W40359  10.581   3.217  15.882 -0.1137 -0.0398  0.1048
23513W        W40360  11.732  10.425  14.336  0.1222  0.2305 -0.1360
23514W        W40361  14.764   9.270  15.840 -0.1891 -0.0427  0.0247
23515W        W40362   9.030   8.182   2.880  0.0833 -0.1195 -0.2926
23516W        W40363  15.931   7.767   4.283 -0.0308 -0.3464  0.1048
23517W        W40364  10.519   0.933  16.526  0.0866  0.2965 -0.0269
23518W        W40365   2.676   2.760  13.045  0.3038 -0.1259 -0.2606
23519W        W40366   7.488   3.200  13.749  0.1487  0.0731 -0.0449
23520W        W40367  12.622  15.394   4.339  0.0649  0.0395  0.0818
23521W        W40368   0.824   5.993  11.918 -0.0105  0.2402 -0.2883
23522W        W40369  14.570  14.043   2.964 -0.1460 -0.1231  0.5342
23523W        W40370   4.618  16.289  11.783  0.2563  0.1876  0.0330
23524W        W40371  15.709  11.077   3.237 -0.1220 -0.2782 -0.2706
23525W        W40372  15.122  14.541  13.723 -0.2603  0.0069  0.0130
23526W        W40373   5.916   3.263  15.675 -0.1793  0.0124 -0.2077
23527W        W40374   5.071   5.406  14.257  0.3167 -0.1006 -0.1612
23528W        W40375  11.386   1.644   2.972  0.4725  0.0702 -0.0730
23529W        W40376   5.198   3.683  15.402 -0.1104  0.1024 -0.0757
23530W        W40377  16.583  15.407  12.624  0.0908  0.0614  0.1487
23531W        W40378   7.039   1.537  12.725  0.1601  0.0111  0.0917
23532W        W40379   2.053   6.152  12.620 -0.2142 -0.0297 -0.2675
23533W        W40380   0.568   7.228  15.980 -0.0352 -0.2417  0.0552
23534W        W40381   6.306  15.320   0.535  0.2024 -0.1813  0.0717
23535W        W40382   4.225   3.140   2.547  0.1556  0.0252  0.0126
23536W        W40383   5.902  16.646   3.315  0.0466 -0.0730  0.1383
23537W        W40384   2.011   7.649   1.906  0.3577  0.1236 -0.0127
23538W        W40385  15.437   5.357  15.121  0.0063  0.1430 -0.1245
23539W        W40386   4.286  17.702   4.942  0.0207  0.2481 -0.2882
23540W        W40387   3.408   0.862   0.626  0.1258 -0.3638  0.3835
23541W        W40388  12.113   9.529   1.317  0.1818  0.2557 -0.5626
23542W        W40389   6.182  14.254  11.708  0.1712 -0.0335 -0.2872
23543W        W40390  10.759  15.847  15.026 -0.0733 -0.0119 -0.0454
23544W        W40391   6.660   7.007   5.702 -0.3392 -0.0918 -0.1935
23545W        W40392  10.775  13.696   2.742  0.2231  0.0146  0.0184
23546W        W40393  10.927   2.533  10.559  0.0649 -0.1414 -0.1609
23547W        W40394   2.953   1.329   2.296 -0.4390  0.0673 -0.0595
23548W        W40395   0.318  14.150   3.367  0.0906 -0.2948  0.0592
23549W        W40396   9.803  15.335   0.717  0.0585  0.0096  0.2288
23550W        W40397   2.513   9.359   4.361  0.2242 -0.0139  0.1084
23551W        W40398  12.748   8.878  13.804  0.3359 -0.2089  0.0229
23552W        W40399   1.180   6.646  12.439  0.4581  0.2592  0.1201
23553W        W40400  13.553  12.151   2.279  0.0176 -0.0211 -0.1413
23554W        W40401   7.345   7.753   4.323  0.0544  0.2652  0.2141
23555W        W40402  13.259  11.420  14.785 -0.2048 -0.0487  0.0757
23556W        W40403   4.977  14.025   0.616 -0.2054 -0.0753  0.1425
23557W        W40404  14.285  12.756   3.604  0.0586  0.0020 -0.2703
23558W        W40405   2.623  11.621   4.090  0.1789 -0.0970  0.2453
23559W        W40406  15.722  11.793  16.123  0.0501 -0.3841  0.1096
23560W        W40407   4.937  15.309   2.610 -0.0950  0.1381 -0.0043
23561W        W40408  11.761  16.514  15.287 -0.0005 -0.1006  0.1175
23562W        W40409   3.833   7.570   5.675 -0.0125  0.1901 -0.0343
23563W        W40410   4.339  14.966   5.066 -0.0821 -0.0357  0.1695
23564W        W40411  10.957   2.834   3.422 -0.0005  0.0564 -0.3532
23565W        W40412  13.440   8.944  13.143 -0.1325 -0.3101 -0.4297
23566W        W40413   6.131  12.652  14.994  0.2239 -0.4686 -0.1029
23567W        W40414   2.881   8.340  12.276  0.4907  0.2566 -0.0466
23568W        W40415  12.690  16.423   3.334  0.1843  0.0064 -0.0695
23569W        W40416  11.923   6.372  12.742  0.3274  0.1106 -0.0279
23570W        W40417   6.075   4.517   1.976 -0.3023 -0.0292  0.1534
23571W        W40418  14.885   4.056   3.521  0.0198 -0.0624 -0.2366
23572W        W40419   7.826   5.922  13.196 -0.1552 -0.0920 -0.0031
23573W        W40420   8.724   1.515  16.574  0.1618 -0.2117 -0.0916
23574W        W40421   2.147   9.198  15.385 -0.2387 -0.1031  0.2691
23575W        W40422  16.587   4.435   1.754  0.0240 -0.2437 -0.0478
23576W        W40423   7.645   4.903  16.116  0.1291  0.1007 -0.0993
23577W        W40424  11.486   1.012  12.641 -0.0417  0.0921  0.2981
23578W        W40425   6.617  17.557   1.957  0.3343 -0.3362 -0.3528
23579W        W40426   3.047   2.778   1.626  0.2534 -0.0296  0.3388
23580W        W40427   5.417  13.298   5.275 -0.1267 -0.0088  0.1388
23581W        W40428   0.520   6.769   1.490  0.0428  0.0662 -0.1030
23582W        W40429  11.318  16.138  12.584  0.0061  0.0765 -0.2028
23583W        W40430   0.121   6.834   4.941  0.0505  0.2446  0.1034
23584W        W40431  16.480  14.936  13.262  0.1488 -0.0820 -0.1517
23585W        W40432   7.866   2.798  15.830  0.0746  0.0658  0.2433
23586W        W40433   9.821   4.000  12.332 -0.0559 -0.3074  0.2713
23587W        W40434   6.424   7.018   3.029 -0.1875  0.1941  0.1303
23588W        W40435  16.801  17.949  13.141  0.0203 -0.2209  0.0887
23589W        W40436   6.456  14.179   5.067 -0.2204  0.4727 -0.2260
23590W        W40437   9.973   3.274  15.289  0.2115  0.1942  0.1640
23591W        W40438   3.823  16.642  12.317  0.2099  0.1926 -0.0423
23592W        W40439  14.091  17.177   4.400  0.0428 -0.0263  0.1369
23593W        W40440  10.808  14.801   2.505 -0.0109 -0.0490  0.1408
23594W        W40441   9.730  17.276  11.011 -0.1405  0.2720  0.0466
23595W        W40442   8.442   8.518   0.755 -0.0178 -0.1456 -0.0761
23596W        W40443   5.969   1.540  16.382  0.0807 -0.0952 -0.0007
23597W        W40444   0.485  14.630  14.945  0.1004 -0.0579  0.0338
23598W        W40445  13.937   9.186   1.051  0.1362 -0.2384 -0.2668
23599W        W40446   3.555   0.225   1.321  0.1128  0.1587  0.1726
23600W        W40447   2.695  16.765   2.867 -0.0985 -0.0831  0.2525
23601W        W40448   7.686   8.033   5.434 -0.0017 -0.2231  0.0162
23602W        W40449   2.888   4.075  15.242  0.1385  0.1360  0.1438
23603W        W40450   0.672   3.907  15.729 -0.1126 -0.1808 -0.1464
23604W        W40451  12.170   1.044  16.057 -0.0081 -0.0539  0.1720
23605W        W40452  15.827  12.203   2.447  0.0494 -0.1709 -0.1362
23606W        W40453  11.516   2.949  11.881  0.0013 -0.0598 -0.2653
23607W        W40454   8.716  17.340   5.053 -0.0629 -0.4301  0.0984
23608W        W40455   5.347   9.378   3.168  0.0272  0.0508 -0.1696
23609W        W40456   4.739  15.253   3.259 -0.2344  0.2681 -0.1206
23610W        W40457   0.917   9.680  12.002 -0.2200  0.1549 -0.0674
23611W        W40458   7.036   2.546  16.560  0.0453 -0.1813 -0.3173
23612W        W40459   0.855   8.409   5.373  0.0387  0.0857 -0.0541
23613W        W40460   3.307   8.414   3.591 -0.3298 -0.3352  0.1651
23614W        W40461  17.033   8.157   2.608  0.2459 -0.0284  0.4486
23615W        W40462   2.886  11.639   5.189 -0.0870  0.0223 -0.1383
23616W        W40463   1.927  12.060  16.579 -0.1093 -0.0585 -0.0377
23617W        W40464   1.941   6.158   2.955 -0.0503  0.4167 -0.0379
23618W        W40465   3.269   1.287  16.214  0.2928  0.0890  0.1329
23619W        W40466   0.755   8.841   3.191 -0.2766 -0.0013  0.1160
23620W        W40467  16.956  10.108  16.084  0.0379 -0.0803  0.0606
23621W        W40468   0.539   7.671  15.103  0.1193  0.2143  0.3025
23622W        W40469  12.016   8.886  11.565 -0.3516 -0.3147  0.1135
23623W        W40470   9.273   2.925   0.557 -0.3501 -0.1022 -0.2904
23624W        W40471   9.464   1.592  12.622 -0.0183  0.0270 -0.2913
23625W        W40472  15.880  14.991   3.640 -0.0771 -0.3413  0.0440
23626W        W40473  13.100   2.396  11.577 -0.0214 -0.0531  0.1907
23627W        W40474   5.822   6.623  13.180 -0.1072 -0.0966 -0.0215
23628W        W40475  13.951   1.179   1.152  0.2549  0.0283 -0.0291
23629W        W40476   9.964  12.412  13.982  0.1092  0.2737 -0.1132
23630W        W40477   3.396   3.602  13.851 -0.2737 -0.1179 -0.0493
23631W        W40478  14.809  15.993  16.240  0.2502 -0.0844 -0.1900
23632W        W40479   0.870   9.341  15.283  0.2028 -0.0804  0.0488
23633W        W40480  16.510  10.386  15.951  0.0571  0.1075  0.1840
23634W        W40481  11.266  13.012  15.460  0.0753 -0.1731  0.2314
23635W        W40482  13.065   7.650  12.218  0.1335 -0.1669 -0.2589
23636W        W40483   8.066  12.049  15.570 -0.1157 -0.0524 -0.4390
23637W        W40484  17.135   8.387   0.005 -0.1234  0.2084 -0.1497
23638W        W40485   8.434   5.862   0.583 -0.1909 -0.1986  0.4473
23639W        W40486   9.709   7.198   2.737  0.2132 -0.2306 -0.0885
23640W        W40487  13.370  11.350   3.319 -0.2208  0.2041 -0.1519
23641W        W40488  12.610  10.394   3.970  0.2263  0.2013 -0.4813
23642W        W40489  17.613  12.699  12.050 -0.0654 -0.1954 -0.1085
23643W        W40490  14.312  14.055  13.424  0.1401  0.1668  0.0001
23644W        W40491  10.780  12.373  13.291  0.0763 -0.0617  0.4451
23645W        W40492   5.663   7.225   6.070  0.2731 -0.0058  0.1228
23646W        W40493  15.801  14.103  16.146  0.1251  0.3411  0.0737
23647W        W40494  15.648  10.388   5.543  0.0372  0.2625 -0.1863
23648W        W40495   6.734   4.948  11.399 -0.1961  0.1892 -0.2565
23649W        W40496   5.771  12.305  13.507  0.2080  0.1115 -0.2338
23650W        W40497  12.262  12.933   1.832 -0.2720 -0.0902 -0.1099
23651W        W40498   7.625   0.387  12.187 -0.1721  0.0966  0.0991
23652W        W40499  10.943   9.702  11.851  0.0253  0.1925 -0.1242
23653W        W40500  14.852   7.597   0.809 -0.2150  0.0661 -0.1387
23654W        W40501   3.593  15.603  12.500  0.2408 -0.0746 -0.1612
23655W        W40502   1.452   3.541  12.603 -0.1398  0.2125 -0.0380
23656W        W40503   2.328   2.731   4.163 -0.1104  0.2006 -0.1798
23657W        W40504   7.220  11.046   4.165 -0.3111  0.0467  0.2018
23658W        W40505  14.622  16.630   2.889  0.0305 -0.0089 -0.0506
23659W        W40506  10.519   4.516   3.161  0.2256  0.2472  0.3535
23660W        W40507   5.722   9.948  14.880 -0.2803  0.0098  0.1166
23661W        W40508  16.551   3.363   3.578 -0.1100  0.0474  0.1761
23662W        W40509  11.454   1.959  13.674 -0.0568  0.0497  0.0601
23663W        W40510   5.877  11.652  15.777 -0.0449  0.0588 -0.0212
23664W        W40511   6.881   5.924  12.637 -0.0033  0.2301 -0.0282
23665W        W40512   4.020   8.223   3.118  0.0121 -0.1992  0.2790
23666W        W40513   7.004   3.937   2.592 -0.0498 -0.3204 -0.1180
23667W        W40514  11.631   7.625   3.871 -0.3087 -0.1933 -0.0427
23668W        W40515  12.633   9.777  16.336 -0.1922 -0.2220  0.1484
23669W        W40516   3.936   9.099   1.356 -0.0132  0.0823 -0.1482
23670W        W40517   4.769   5.247  14.948 -0.1721 -0.0109 -0.1332
23671W        W40518  14.962   7.181   4.467 -0.0258  0.0335  0.0950
23672W        W40519   5.053   7.393  12.467 -0.1888  0.2733 -0.2828
23673W        W40520  11.931  10.782  13.443 -0.0710  0.1388  0.2443
23674W        W40521   8.011   1.590   0.485 -0.0634 -0.0205  0.0104
23675W        W40522   3.510  10.842  13.106  0.1918 -0.0393 -0.1494
23676W        W40523  10.527   2.606  12.745 -0.1379 -0.2216 -0.0395
23677W        W40524  10.039  14.714   1.456  0.0419 -0.1864  0.0194
23678W        W40525  11.595   4.434   5.137 -0.0973 -0.3161 -0.2344
23679W        W40526   3.243   1.315   0.810 -0.3703  0.0358  0.3732
23680W        W40527  17.857  13.850   1.749  0.1487 -0.1647 -0.1034
23681W        W40528  10.685  16.053  15.745  0.0236 -0.1363 -0.0714
23682W        W40529   1.917   1.554  15.799  0.3581  0.2672 -0.0436
23683W        W40530  12.557  12.216  14.600  0.0258 -0.0660  0.4281
23684W        W40531   5.021   3.067  15.754 -0.1413 -0.1523  0.1936
23685W        W40532  10.004   4.812  13.576 -0.0336  0.0312 -0.0961
23686W        W40533   3.828  15.747  15.370 -0.3277 -0.2128  0.1638
23687W        W40534   6.319  16.976  13.607 -0.0747 -0.0075  0.0865
23688W        W40535   9.235   4.620  11.502  0.2062  0.0063 -0.0547
23689W        W40536  13.108  15.382  11.940  0.0032 -0.3341  0.0665
23690W        W40537   2.590  11.179   0.953  0.0939  0.1641  0.2394
23691W        W40538  15.998  17.130   3.625  0.3064 -0.0840 -0.3006
23692W        W40539  10.693   1.609  16.431  0.0987  0.2524 -0.0207
23693W        W40540   7.533   6.033   4.236  0.0835  0.1965 -0.0360
23694W        W40541   3.232   7.665   3.180  0.0297 -0.1041  0.2075
23695W        W40542   2.947  15.077  12.156  0.2733 -0.0413  0.0156
23696W        W40543   2.976   6.035   0.808 -0.1289  0.0051 -0.0024
23697W        W40544  11.460  11.029   5.529 -0.1104  0.1139 -0.0507
23698W        W40545  17.187  17.917   1.587  0.1421  0.1623  0.0974
23699W        W40546   0.629  14.124   5.253 -0.1580  0.0735  0.0022
23700W        W40547   6.258   8.922  14.288 -0.2780  0.2421  0.0149
23701W        W40548  14.496   7.737   2.354  0.2078  0.0318  0.0967
23702W        W40549   8.325   1.637  12.020 -0.0639  0.1661  0.1281
23703W        W40550  11.640  14.113  16.299 -0.0825  0.0223  0.0032
23704W        W40551   0.669  13.737  15.680 -0.0256  0.2376  0.1107
23705W        W40552   7.281  15.034   3.915 -0.0130 -0.2947 -0.2252
23706W        W40553  15.242   6.432  15.519 -0.0615 -0.1236  0.3745
23707W        W40554   6.179  16.592   0.379  0.0807  0.0117  0.3965
23708W        W40555  10.142   5.935  13.884 -0.1132 -0.0668 -0.0609
23709W        W40556  15.142  16.114   3.478 -0.0343 -0.1832  0.2260
23710W        W40557   6.597   1.563   3.756  0.2423 -0.1495 -0.1246
23711W        W40558   0.934   9.507  16.277  0.0141  0.1906 -0.0909
23712W        W40559  11.331   8.706   0.715  0.0641  0.0844  0.1408
23713W        W40560   2.358   9.937   0.107 -0.1638 -0.3232 -0.0198
23714W        W40561  13.456  16.680  15.302 -0.0953  0.1482  0.4971
23715W        W40562   7.052  12.207   6.301  0.0833 -0.0307  0.2749
23716W        W40563  13.950   0.926   0.128  0.1745 -0.1184  0.0696
23717W        W40564   2.272   9.297  13.717 -0.2298 -0.0190 -0.1055
23718W        W40565   6.855  12.349  15.658  0.0427 -0.1095 -0.0123
23719W        W40566   6.830  14.289   0.895  0.4571  0.0823 -0.0154
23720W        W40567  15.812  16.648   1.126  0.1800 -0.0542  0.2544
23721W        W40568  12.955  16.707  15.075  0.1601  0.2428  0.3546
23722W        W40569   2.854   3.272  11.404 -0.1982  0.1871 -0.1201
23723W        W40570  14.385   7.017   2.989 -0.1562 -0.2612 -0.0347
23724W        W40571  14.209   2.829  14.540 -0.1898  0.1013 -0.1174
23725W        W40572   8.040  15.227   1.383 -0.0195 -0.0856 -0.3016
23726W        W40573   9.938  16.779   4.622  0.2122  0.0118  0.1321
23727W        W40574  12.051  15.340  16.613 -0.0373 -0.0609  0.0001
23728W        W40575  10.321   4.422  11.419  0.1760  0.0112  0.0105
23729W        W40576   5.712   8.502   3.043 -0.2611  0.0453  0.0667
23730W        W40577   4.902  12.236  14.020 -0.4705 -0.1314 -0.2353
23731W        W40578   8.896  16.885   4.860 -0.0098  0.0365 -0.1797
23732W        W40579  16.812  16.639   0.813  0.3158 -0.4516 -0.2428
23733W        W40580  15.985   6.418  11.656  0.0169 -0.1081 -0.2307
23734W        W40581   0.267   6.648  13.463 -0.0981  0.4173  0.2299
23735W        W40582   5.640   1.825   4.800  0.1485 -0.0558 -0.0059
23736W        W40583   3.575   7.167  13.489  0.1269  0.0181  0.2351
23737W        W40584   9.953   0.217   4.605  0.0389 -0.3263 -0.0468
23738W        W40585  10.311  13.248   5.870  0.1630  0.2897  0.1667
23739W        W40586  11.211  14.087  12.131  0.4741  0.3244 -0.0013
23740W        W40587  16.961   4.978  12.101  0.1488 -0.2010  0.0231
23741W        W40588  15.900  16.100   1.027 -0.2227  0.0146  0.0399
23742W        W40589   3.454   0.275   5.799  0.2133  0.0596 -0.2501
23743W        W40590  14.270  15.645   1.097  0.1230 -0.1469  0.1453
23744W        W40591  14.400   5.000   1.973 -0.0262 -0.0153 -0.1583
23745W        W40592   7.206   3.991   1.162 -0.1355 -0.3132 -0.1456
23746W        W40593   5.466  15.491  10.831 -0.0720  0.1156 -0.0699
23747W        W40594   3.893  14.496  14.824 -0.0256 -0.1335 -0.0418
23748W        W40595  11.231  11.097  13.570  0.2657  0.4250  0.1256
23749W        W40596  16.750  15.474  14.772  0.0078 -0.0681  0.3152
23750W        W40597   7.096  13.824   1.667 -0.1604  0.1797 -0.1727
23751W        W40598  13.203  16.235  15.533 -0.0617  0.1380 -0.0310
23752W        W40599   8.796   2.678  12.615  0.1365 -0.2803 -0.4597
23753W        W40600   6.368   6.557   2.078  0.1340  0.3635 -0.1305
23754W        W40601  12.463  10.540  16.566 -0.1129 -0.3436 -0.0281
23755W        W40602   4.671   1.200   1.005  0.0088  0.3329 -0.2033
23756W        W40603  12.136   9.183  12.707 -0.0449  0.0649 -0.1837
23757W        W40604  15.114  17.055   3.731  0.1128 -0.0558 -0.2324
23758W        W40605   5.204  11.162   5.360  0.0213  0.2249 -0.2596
23759W        W40606  17.122  17.099   4.312 -0.0600  0.0791  0.0826
23760W        W40607   4.680   0.988  12.523  0.0565 -0.1309  0.1732
23761W        W40608   0.131  16.822  12.505  0.0120 -0.3638  0.0533
23762W        W40609   2.930   7.448  16.134 -0.1198  0.0382  0.1021
23763W        W40610   8.564  17.909  16.105  0.0691 -0.1868 -0.0438
23764W        W40611   3.016   0.160  12.907 -0.2370  0.1645 -0.2547
23765W        W40612  11.584   7.840   0.417  0.0479 -0.0465 -0.0011
23766W        W40613   6.228   5.209   1.813 -0.2546  0.0207 -0.0924
23767W        W40614   0.664   1.127   0.861  0.2337  0.0139  0.0122
23768W        W40615   8.942   1.896   0.647  0.0032  0.2842 -0.0364
23769W        W40616  15.257   3.782   4.343  0.1130 -0.0425 -0.0713
23770W        W40617   0.177   5.834  16.158  0.1682  0.0925 -0.0308
23771W        W40618   6.191  17.949  13.540  0.1334  0.2072  0.0417
23772W        W40619  15.668  16.754   1.986 -0.1786  0.0794  0.3732
23773W        W40620   6.075  14.427   2.722 -0.1759  0.0638 -0.0282
23774W        W40621  14.577   1.073  11.461 -0.0448 -0.1037 -0.0732
23775W        W40622   9.318  13.860   5.061  0.1029 -0.0656  0.0814
23776W        W40623   5.355  17.607   0.074 -0.0302  0.0841  0.0773
23777W        W40624  14.786   6.947   5.280 -0.0053 -0.0949  0.1892
23778W        W40625   7.519  17.773  11.360  0.3990 -0.1994 -0.1512
23779W        W40626  17.056   4.799   2.309  0.0813 -0.2864 -0.1925
23780W        W40627   3.700  10.111  15.876  0.3227 -0.2281  0.0922
23781W        W40628  12.102   0.713   1.716 -0.1340 -0.1175 -0.1820
23782W        W40629   1.707   5.309   1.063  0.1117 -0.0180 -0.0123
23783W        W40630  10.993  11.391  11.825 -0.2118  0.0540  0.3654
23784W        W40631   0.448  10.563   5.228  0.4155  0.1046  0.0271
23785W        W40632  13.581   9.602   0.240 -0.0049  0.1985 -0.3349
23786W        W40633   4.398   8.077   4.078  0.0505  0.3148 -0.0666
23787W        W40634  17.631  14.315   5.574  0.1211 -0.1485  0.2918
23788W        W40635  13.587  11.188  14.301  0.1393 -0.1207 -0.2943
23789W        W40636   5.897   1.548  14.240  0.1515 -0.0797  0.0181
23790W        W40637   7.461  11.453  14.875 -0.0439  0.0896 -0.3528
23791W        W40638   5.092   4.867  15.663  0.3054  0.2059 -0.1374
23792W        W40639  14.014   4.583  14.909 -0.0850  0.2105 -0.0736
23793W        W40640  17.595  17.079   4.556  0.0351 -0.1685  0.2047
23794W        W40641  10.175  12.654   0.194 -0.0593  0.0332 -0.3307
23795W        W40642  16.240  12.741   3.964  0.3156  0.1306  0.2024
23796W        W40643   5.496   3.580  12.096 -0.1296 -0.2517 -0.0459
23797W        W40644   1.464  13.253  15.079  0.1710 -0.2861 -0.2284
23798W        W40645  14.782   5.772   2.957  0.0822 -0.0133  0.2336
23799W        W40646   0.785   1.817  11.866 -0.0617 -0.1865 -0.0878
23800W        W40647   2.369  15.264   2.311 -0.3545 -0.0388  0.0414
23801W        W40648  13.344  14.340   2.457  0.0766 -0.3221  0.2192
23802W        W40649   7.012   6.153   5.349 -0.1018  0.0464  0.1727
23803W        W40650  15.699   7.554  15.534 -0.1073  0.2136 -0.0118
23804W        W40651  10.347   1.816  14.289 -0.0338  0.2176 -0.0160
23805W        W40652   7.461  14.184   3.708  0.1231 -0.1512 -0.1239
23806W        W40653  14.742   1.749  16.346 -0.0536 -0.0022  0.2699
23807W        W40654   4.334  15.740  12.880 -0.2510 -0.2048 -0.1055
23808W        W40655  15.079  15.387  12.277 -0.2273  0.3003 -0.0757
23809W        W40656   1.151  12.627  14.150 -0.1848 -0.3036 -0.0632
23810W        W40657   3.739   3.786  14.135  0.1280 -0.1035  0.0470
23811W        W40658  10.567   2.983   2.207 -0.1265  0.0681 -0.0146
23812W        W40659   8.241  11.447   3.920  0.0063 -0.2621  0.1329
23813W        W40660   2.879  12.000   3.853 -0.1606 -0.0223 -0.0109
23814W        W40661   6.405  16.322   3.524  0.3686 -0.1219  0.0351
23815W        W40662   7.578  16.829  13.450  0.0302 -0.0832  0.0877
23816W        W40663   4.101   4.286  14.831  0.0347  0.2539 -0.0510
23817W        W40664   9.634  14.756  12.925 -0.1374 -0.1514  0.2092
23818W        W40665  17.334  13.962   5.410 -0.1826 -0.2955 -0.2265
23819W        W40666  16.674  16.341  12.284  0.1527 -0.1496 -0.2303
23820W        W40667  16.879   7.693  14.371  0.1901  0.0981  0.2841
23821W        W40668  15.910  12.327   4.032 -0.1691 -0.2223 -0.1098
23822W        W40669  14.533  14.299   5.063  0.1706 -0.1870 -0.1533
23823W        W40670  11.100   7.982  11.876  0.1460 -0.2012 -0.0782
23824W        W40671   9.668   7.693  10.598  0.0340 -0.2802 -0.2971
23825W        W40672   6.111   5.543  12.269 -0.0427  0.0852  0.2219
23826W        W40673  17.094  17.191  12.361 -0.2370  0.1696 -0.2384
23827W        W40674   7.124  10.803  16.557  0.1708  0.1208  0.0146
23828W        W40675   0.636   7.307   4.213  0.2041 -0.5721  0.0887
23829W        W40676   3.929   7.329   3.535 -0.2630 -0.3270 -0.0349
23830W        W40677  10.675   5.067   0.512  0.0935  0.0469  0.1398
23831W        W40678   3.739  11.444   1.984 -0.1719 -0.0182  0.1170
23832W        W40679  10.560   7.882   1.394  0.0044  0.1971  0.1682
23833W        W40680   4.136   1.339  11.403 -0.1206  0.1839  0.0455
23834W        W40681   0.088  15.472   1.039 -0.2371  0.1420 -0.0790
23835W        W40682   7.842  13.734   1.971  0.1468 -0.2110 -0.0333
23836W        W40683   9.122   7.809   5.114  0.2296  0.1189 -0.2658
23837W        W40684   7.523   8.212   6.267 -0.2242 -0.3161  0.0694
23838W        W40685  17.885   4.933  11.690  0.0565  0.0033  0.0957
23839W        W40686   0.430  12.927  16.256 -0.1073  0.0450 -0.1690
23840W        W40687   0.443   7.376  12.592 -0.1234 -0.2926  0.2007
23841W        W40688   5.346   5.971  12.673  0.1894 -0.0668  0.0812
23842W        W40689   9.927  17.181   4.221  0.1435  0.1546  0.0717
23843W        W40690   6.712  13.966  15.294  0.1818  0.3543  0.1413
23844W        W40691  11.146  15.052   4.862 -0.2211  0.0200  0.3475
23845W        W40692  17.702  13.708   2.511 -0.1439 -0.0524 -0.2734
23846W        W40693  13.463   0.770   0.479  0.2049  0.1006 -0.2302
23847W        W40694   5.099   5.491  13.060 -0.0861 -0.1752  0.2805
23848W        W40695  12.233  15.014   2.983 -0.1319  0.0974  0.3150
23849W        W40696   5.253  15.498   1.456 -0.0560  0.0589  0.2633
23850W        W40697  11.012   7.061  10.603 -0.2724  0.0088 -0.0163
23851W        W40698  12.914   5.747  12.161  0.1372 -0.0592  0.0078
23852W        W40699  16.591   2.699   3.117  0.1744 -0.1352  0.3579
23853W        W40700  12.510   7.040  15.061  0.0112 -0.2585 -0.0351
23854W        W40701   2.682   8.553  11.720  0.1039 -0.0195 -0.0432
23855W        W40702   5.014   2.358   3.744 -0.1020 -0.3472  0.1801
23856W        W40703   0.400  10.922  16.443  0.0395 -0.0329  0.2387
23857W        W40704   4.849   5.734  14.575 -0.3381 -0.0436 -0.1524
23858W        W40705   3.375   7.844   1.909 -0.0137 -0.1192  0.0874
23859W        W40706  13.294  11.132   1.979  0.2839 -0.0397  0.3554
23860W        W40707   5.105   2.242  11.505  0.0181 -0.0844  0.0867
23861W        W40708   4.100   6.014  13.412  0.1243 -0.0356  0.1834
23862W        W40709   4.230  17.556  15.397 -0.0133 -0.3301  0.0249
23863W        W40710  11.876  15.291  14.398  0.1708  0.0918  0.0035
23864W        W40711   9.164   5.769  12.963 -0.0630 -0.1973  0.1151
23865W        W40712   5.819  11.072   1.896 -0.0858  0.1395  0.1289
23866W        W40713  10.011   2.691   5.803 -0.0377 -0.0741 -0.3184
23867W        W40714   5.361  11.110   4.869  0.0224  0.1234  0.0020
23868W        W40715   7.908  15.947  16.769 -0.3050 -0.1679 -0.0287
23869W        W40716   4.512   5.901  13.128 -0.1739 -0.3542  0.0614
23870W        W40717  16.679   8.294   4.178 -0.3121  0.1250  0.1526
23871W        W40718  10.602  16.736  14.623  0.0550  0.2170  0.1340
23872W        W40719   1.806   3.470   2.992  0.0309  0.1104  0.0062
23873W        W40720  15.809   0.644   0.179  0.0772 -0.1900 -0.2100
23874W        W40721   1.923  13.285  14.759  0.1295 -0.1167  0.0794
23875W        W40722  13.253   5.135   4.908 -0.1538  0.1867  0.3313
23876W        W40723  10.438   5.879   3.310 -0.1416 -0.1928 -0.0151
23877W        W40724  16.683   5.628  13.688 -0.0925  0.1861 -0.0500
23878W        W40725  14.530   6.922   1.594 -0.3258 -0.1719  0.0805
23879W        W40726   8.890  10.384   5.571  0.1566 -0.2607 -0.0273
23880W        W40727   1.816   3.370   3.843  0.0808 -0.1456 -0.1475
23881W        W40728  15.813   8.481   1.894 -0.2360 -0.0842  0.2429
23882W        W40729   0.534   8.505  15.052  0.1419  0.0839 -0.3174
23883W        W40730   2.006   5.658  14.534 -0.0582  0.4108 -0.2381
23884W        W40731   4.418   2.089   3.804 -0.3163  0.1617 -0.0563
23885W        W40732   8.805  14.684   2.335  0.1696 -0.0036 -0.0954
23886W        W40733  12.993  15.853  11.759 -0.0532 -0.2538  0.1592
23887W        W40734   9.960   3.296   0.007 -0.1354  0.1642  0.0323
23888W        W40735  10.888  16.199  14.037  0.1958 -0.0400 -0.0364
23889W        W40736   9.539   7.732  16.275  0.4016  0.3746 -0.1039
23890W        W40737   8.638   7.872  14.231  0.2331 -0.2551 -0.0468
23891W        W40738   6.757   6.476   3.055  0.0795 -0.0253 -0.1008
23892W        W40739  14.191  13.668  14.113  0.4111 -0.1110 -0.0301
23893W        W40740   2.502   0.364   2.361 -0.1132 -0.0009  0.2410
23894W        W40741   8.448  10.631  16.308 -0.0768 -0.1528 -0.1993
23895W        W40742  17.173   0.074   2.115  0.2254 -0.0289 -0.0259
23896W        W40743  15.047   2.572   1.492 -0.2486 -0.0451 -0.1512
23897W        W40744   8.147   3.520   2.105  0.0538  0.0519  0.1784
23898W        W40745  12.146   2.409   3.748 -0.3044 -0.0703  0.3126
23899W        W40746  17.337  13.439  13.330  0.0194 -0.3281 -0.1914
23900W        W40747  14.066  16.327  13.544 -0.0442  0.0002  0.2136
23901W        W40748  13.642  17.324   4.522  0.1215 -0.0643  0.2572
23902W        W40749   3.861   0.078   0.553  0.1804  0.2656  0.0069
23903W        W40750  16.923  16.330   2.710  0.0709  0.0806 -0.2189
23904W        W40751   0.230  16.381  16.769 -0.1880 -0.1944  0.0700
23905W        W40752  15.973  16.227   5.358 -0.3172  0.0839 -0.0801
23906W        W40753  11.143  12.171   2.560 -0.0371 -0.2159  0.0225
23907W        W40754   4.060  10.574  13.489 -0.0221  0.0726  0.1775
23908W        W40755   1.723   5.668  15.563  0.0226  0.1342  0.0752
23909W        W40756   3.979  17.329  14.135 -0.0230 -0.1008  0.1090
23910W        W40757   7.775  12.862   5.163  0.1949  0.0516 -0.0881
23911W        W40758  17.839  15.040   0.062 -0.0892 -0.0628  0.2007
23912W        W40759   8.520  14.322   3.929  0.1878  0.2013 -0.0510
23913W        W40760  15.660   8.199   6.088 -0.1330 -0.2518  0.0947
23914W        W40761   2.426   0.607  14.459 -0.0048 -0.0042 -0.1696
23915W        W40762   5.188   1.571   3.068  0.0106  0.0389  0.0353
23916W        W40763   5.191  13.981  13.949  0.2412  0.3446 -0.1743
23917W        W40764  15.910   5.416  11.793 -0.1089 -0.0462 -0.4186
23918W        W40765   7.921   2.377   1.014 -0.0907  0.1156 -0.1931
23919W        W40766   2.418   3.557  11.312  0.0517 -0.2009 -0.0227
23920W        W40767   5.971  13.067   1.849 -0.0236 -0.1632 -0.0018
23921W        W40768  14.790   2.237   4.266  0.2481  0.1727 -0.0703
23922W        W40769  15.993   9.042  14.972  0.2396  0.0168  0.0967
23923W        W40770   1.443   0.498   4.199  0.0773  0.0700  0.1237
23924W        W40771   5.952  17.158   1.596 -0.0849  0.1745  0.0147
23925W        W40772   5.822  11.095   4.557 -0.0070 -0.2910  0.0419
23926W        W40773  13.906   0.460  14.055 -0.0614  0.0287  0.0462
23927W        W40774  11.416   6.674   1.240 -0.4013 -0.1509  0.2426
23928W        W40775   1.237   8.977  15.210  0.0948 -0.2191  0.0524
23929W        W40776   0.377   3.901   2.923 -0.1677  0.3810 -0.0645
23930W        W40777   3.832   8.263   2.039 -0.0835  0.0721 -0.1072
23931W        W40778  12.065  11.654  13.737  0.1807 -0.0696  0.1115
23932W        W40779  14.459  11.618   2.424 -0.0349 -0.3339 -0.2119
23933W        W40780   6.240   2.042  13.612 -0.0926 -0.2060  0.0906
23934W        W40781  16.351  13.466   5.226 -0.1894  0.1417 -0.0531
23935W        W40782   9.588   5.578  13.096  0.0213  0.0294  0.1461
23936W        W40783  12.855  12.729  12.444 -0.1826 -0.1543 -0.0829
23937W        W40784   1.178  17.425   1.900 -0.0686  0.2336  0.0267
23938W        W40785   8.573   6.046   1.129 -0.0123  0.1031 -0.4010
23939W        W40786   9.386  12.207   5.639  0.3361  0.1421  0.1027
23940W        W40787  14.958   9.629   0.103 -0.2721  0.0111  0.0252
23941W        W40788  10.732  11.579   3.323 -0.0339  0.0903  0.0994
23942W        W40789   9.483   1.872   4.367  0.1357 -0.0688  0.1091
23943W        W40790   4.532   5.628   3.255 -0.1598 -0.1660  0.2243
23944W        W40791   4.576   5.442  12.921  0.0638 -0.0379  0.0260
23945W        W40792   2.187   8.548   4.803  0.1947 -0.3212 -0.1209
23946W        W40793   1.031  12.536   0.421  0.0965 -0.2442  0.3162
23947W        W40794   2.333   6.753  13.764 -0.2770  0.0211  0.0307
23948W        W40795   8.608  14.978  12.282 -0.0415 -0.1625  0.0670
23949W        W40796   7.495   3.335  12.161  0.1545  0.1387  0.0921
23950W        W40797  11.190   7.381   3.817  0.0663 -0.0124 -0.0301
23951W        W40798  12.031   0.748   5.057 -0.0166 -0.1414  0.0672
23952W        W40799   7.361   8.959   5.276  0.1310  0.2677 -0.0505
23953W        W40800   8.670  10.124   0.051  0.1441  0.0820 -0.3420
23954W        W40801   9.126  11.774   3.937 -0.1338  0.1399 -0.1697
23955W        W40802  10.864  11.133  16.150  0.0744  0.1253  0.1628
23956W        W40803   8.198   3.003  15.417  0.1736 -0.0077 -0.0118
23957W        W40804   9.364   4.961   5.688  0.0867 -0.2503  0.0330
23958W        W40805  12.223   2.307   2.795 -0.2965 -0.0855  0.2799
23959W        W40806   5.652   8.946   5.414  0.1231 -0.2283  0.1713
23960W        W40807   3.525   3.832   4.990 -0.1660  0.0696  0.0483
23961W        W40808  16.476   3.914   4.378  0.1643 -0.3662  0.1180
23962W        W40809   9.174   8.847   3.905 -0.3386 -0.1918  0.5008
23963W        W40810  17.600  16.330  13.728  0.1632 -0.2926  0.0147
23964W        W40811  16.826   4.735   3.438  0.3567  0.1812 -0.1806
23965W        W40812   5.374  16.427   4.197 -0.1510 -0.1321  0.3651
23966W        W40813  12.152   6.627   0.581 -0.1237 -0.0309 -0.0071
23967W        W40814   2.862   9.277  12.424 -0.1583 -0.0676  0.2215
23968W        W40815  17.129  13.196   1.667  0.3318 -0.1120 -0.2741
23969W        W40816  12.932   6.143   3.191  0.1609 -0.1145  0.2801
23970W        W40817   8.134  16.154  16.405  0.2707 -0.4255 -0.0190
23971W        W40818  17.813  14.257   0.724 -0.1657 -0.3345 -0.2839
23972W        W40819  11.494  16.845   4.266 -0.1414 -0.0294 -0.0120
23973W        W40820   3.164  16.363  13.506  0.1053 -0.0981 -0.1252
23974W        W40821  14.301   5.485   3.078  0.1384  0.1707 -0.2093
23975W        W40822   0.280   7.397  15.618 -0.0665 -0.0759  0.1044
23976W        W40823  15.940  14.147   4.010  0.2137  0.0924  0.1978
23977W        W40824   3.561   2.646  16.061  0.1155 -0.1166  0.0124
23978W        W40825  11.064   1.419  16.723  0.1503 -0.2666 -0.1211
23979W        W40826  14.598   5.492   0.086 -0.2329 -0.0831  0.2283
23980W        W40827   9.148  17.615   2.891  0.1144 -0.0625 -0.1804
23981W        W40828  11.398  16.971   0.223 -0.0525  0.4376 -0.0900
23982W        W40829  17.787  15.438  11.914  0.1114 -0.2449 -0.1021
23983W        W40830   7.234  12.500   0.474 -0.4134 -0.2612 -0.0308
23984W        W40831  11.262  17.279   4.347 -0.2420  0.0499 -0.0926
23985W        W40832   4.529  17.403   0.571 -0.1134 -0.0386  0.1976
23986W        W40833  16.803   8.917   3.328  0.1317 -0.1265  0.0350
23987W        W40834   5.769  10.188  14.419 -0.0580 -0.1351  0.1057
23988W        W40835   7.179  11.597  13.334  0.1401  0.0237 -0.1797
23989W        W40836   6.713  11.817   1.624  0.0456 -0.0309  0.0516
23990W        W40837   6.058   1.898  13.098 -0.3107 -0.0187 -0.1969
23991W        W40838  16.639   4.360   3.154  0.0694  0.0342  0.2120
23992W        W40839   5.979  15.159   0.079  0.0045 -0.2198  0.1994
23993W        W40840  14.108   1.551  14.223  0.2013  0.1791  0.1710
23994W        W40841   8.876   0.040   1.684 -0.1642  0.0303  0.1525
23995W        W40842  10.501  10.821  13.331 -0.1352  0.0863  0.0196
23996W        W40843   6.899  16.562   1.042  0.1452 -0.2039 -0.0404
23997W        W40844   4.097   2.387   4.028  0.0952 -0.3549  0.1872
23998W        W40845  17.189   5.086   3.238 -0.2015 -0.1335 -0.2225
23999W        W40846   8.898  14.460   1.854  0.0933  0.0883  0.1093
24000W        W40847   6.009   4.534  16.455 -0.1479  0.0575  0.1412
24001W        W40848  15.384   5.036   2.991  0.2014  0.0461  0.4038
24002W        W40849  12.483   0.851  15.670  0.1842  0.1692 -0.2817
24003W        W40850  17.115  12.440   0.783  0.0708  0.3198 -0.2296
24004W        W40851  11.698   5.003   4.511 -0.0334  0.1458  0.1441
24005W        W40852  17.607   4.687  16.615 -0.1717  0.1835  0.0092
24006W        W40853  14.062   5.369  12.288 -0.2008  0.0246  0.1275
24007W        W40854   1.684  17.576   2.708 -0.2754  0.0277 -0.2236
24008W        W40855   3.300   3.908   1.864  0.0875 -0.0735 -0.1927
24009W        W40856  11.056   1.976  12.537 -0.0549  0.1251 -0.1756
24010W        W40857   3.732  14.017  15.517  0.0913  0.2314  0.0890
24011W        W40858   2.744   0.683  13.687  0.0942  0.4692  0.1440
24012W        W40859   2.682  12.078   0.773  0.0232  0.1509  0.1174
24013W        W40860  14.201   0.089  13.836 -0.0835 -0.1512  0.0365
24014W        W40861   7.045  15.100   1.672  0.0855 -0.0287  0.0554
24015W        W40862   4.976   2.240  14.605  0.1035  0.2067 -0.0326
24016W        W40863   6.785  13.590  16.491  0.2919 -0.0810 -0.2350
24017W        W40864   2.875  14.110   2.660  0.0966  0.0765 -0.0780
24018W        W40865  13.081   9.220   4.577 -0.2801  0.1260  0.1318
24019W        W40866  15.486   3.219  15.057  0.1480  0.2407 -0.1698
24020W        W40867   8.000   5.450   5.021  0.2538  0.2736 -0.0903
24021W        W40868  13.007  13.205   2.705 -0.0108  0.1961 -0.0787
24022W        W40869   2.273  14.762   4.522  0.2147 -0.2868 -0.5651
24023W        W40870   5.799   0.916   3.326  0.0412 -0.1330 -0.1497
24024W        W40871   9.572   3.179   1.003  0.1875  0.1031 -0.1510
24025W        W40872  12.717  15.396  15.359 -0.0540  0.3870  0.0890
24026W        W40873  17.760   9.255  14.851 -0.4518  0.1326 -0.1053
24027W        W40874   5.873   9.173  14.605  0.1064  0.2682 -0.1103
24028W        W40875   6.370  15.853  13.272  0.0917 -0.1366 -0.0274
24029W        W40876   6.330  12.481  12.362 -0.1538 -0.2528 -0.1559
24030W        W40877  13.994   6.241   0.141  0.1043  0.1205 -0.0023
24031W        W40878  17.524   1.344  14.531 -0.1069 -0.0967 -0.1798
24032W        W40879   9.616  10.935   1.531  0.1153 -0.0652 -0.0479
24033W        W40880   0.405  17.155   5.152  0.3512 -0.0590 -0.2160
24034W        W40881   9.921  11.828  11.931  0.0376  0.0212  0.0965
24035W        W40882  10.967  14.090  15.684  0.1493  0.1682 -0.1400
24036W        W40883   3.229  13.965  16.544  0.0062 -0.3270  0.1993
24037W        W40884   7.014   6.157  13.560 -0.0478  0.0651  0.0755
24038W        W40885   6.606  13.408   2.382 -0.0210 -0.2346 -0.0524
24039W        W40886   9.271   6.344   3.836 -0.1161  0.3515  0.1868
24040W        W40887   9.206   6.507   2.779 -0.1417  0.1958  0.2960
24041W        W40888  13.487   0.235  14.826  0.0640 -0.1115  0.0544
24042W        W40889   2.228  15.311  12.618  0.1344 -0.0900 -0.2055
24043W        W40890  10.199   2.854   1.927  0.0609  0.1041  0.1719
24044W        W40891   3.197   1.839  16.345 -0.2342 -0.0766 -0.2385
24045W        W40892   4.241  16.448   0.630 -0.0852 -0.0392 -0.1948
24046W        W40893   5.172  10.653   5.598  0.4101  0.2512 -0.1370
24047W        W40894  13.903   3.974   1.121 -0.2141  0.1547  0.2603
24048W        W40895  16.640   2.658   0.952 -0.0620  0.0370  0.0424
24049W        W40896   3.286   4.964  12.551  0.1138  0.0751  0.2034
24050W        W40897   4.531   2.209   0.141 -0.1387 -0.0201  0.2497
24051W        W40898   6.318  15.890   0.468 -0.2212  0.2752  0.3227
24052W        W40899  14.491   5.549   4.759  0.4676 -0.0571  0.0154
24053W        W40900  17.064  15.280  12.810  0.0982  0.2709  0.0859
24054W        W40901   2.917   8.023  12.722  0.2425 -0.2375 -0.1210
24055W        W40902  17.368   8.438   1.306  0.2513  0.0678  0.0154
24056W        W40903  16.203  15.199   4.784 -0.2526  0.0774  0.3050
24057W        W40904   4.307   1.782   2.874 -0.5282 -0.1435 -0.4489
24058W        W40905   1.194  16.763   4.560  0.0746  0.0152  0.0728
24059W        W40906  15.879   0.954  14.627  0.2818  0.0784  0.1512
24060W        W40907  10.643  13.361  15.023 -0.0462 -0.1130 -0.0368
24061W        W40908   3.687   2.565  11.732 -0.0610 -0.0510 -0.3712
24062W        W40909  12.150   3.629  13.292 -0.0692 -0.0880  0.0904
24063W        W40910   7.396   5.401   5.902 -0.0339  0.3533  0.0103
24064W        W40911  17.509   8.824  11.694 -0.0333 -0.0349 -0.2519
24065W        W40912   6.996   1.312  13.161  0.1741 -0.2844 -0.0268
24066W        W40913   7.703  17.786   4.293  0.0714  0.2656  0.2253
24067W        W40914  14.993   5.944  14.031 -0.2154 -0.0505  0.1085
24068W        W40915   0.412  11.672  13.368  0.0402 -0.2815 -0.1424
24069W        W40916   3.034   7.122   4.738  0.1962 -0.1439  0.0104
24070W        W40917   6.652  12.793   4.391  0.0152  0.2403 -0.1047
24071W        W40918  14.929  10.940  12.202 -0.0660 -0.0251  0.0971
24072W        W40919   3.861   1.067   2.398 -0.0330  0.0864 -0.3414
24073W        W40920   2.023  13.519   0.122 -0.0638  0.0262 -0.0800
24074W        W40921   0.265   0.950   5.052 -0.0384 -0.2060  0.0558
24075W        W40922  15.452   5.336   2.623 -0.1083 -0.1088  0.1754
24076W        W40923   8.176  17.416  12.389  0.1816  0.1415  0.0555
24077W        W40924   0.348   1.803   0.024 -0.3075 -0.0961  0.1624
24078W        W40925   3.387   8.608   4.046  0.1231 -0.2556 -0.0281
24079W        W40926  14.308  12.830   3.121  0.0267  0.0723 -0.1382
24080W        W40927  14.718  10.685  16.331  0.0759 -0.0133  0.0839
24081W        W40928   1.007  12.394  16.773  0.2611 -0.1113 -0.0760
24082W        W40929   7.154   2.741  13.955  0.1086 -0.0037 -0.1368
24083W        W40930  17.575  12.985   3.744 -0.1088 -0.0656  0.0510
24084W        W40931  17.496   7.219  14.143  0.0007  0.2228  0.0869
24085W        W40932  13.206  10.404   0.071  0.0212  0.2814  0.0523
24086W        W40933  14.416   9.454  13.409  0.3081  0.1376 -0.2532
24087W        W40934   4.744   5.188   3.532  0.1506  0.0000 -0.1051
24088W        W40935   1.937   4.695   1.629 -0.3406  0.0425  0.1430
24089W        W40936   7.966  12.205  16.541 -0.0886 -0.1661  0.1819
24090W        W40937   5.943   4.596   0.225 -0.3592  0.1369  0.1072
24091W        W40938   0.647   4.921   0.534 -0.1785 -0.0822 -0.0392
24092W        W40939   6.544   9.930   1.839 -0.3028 -0.0237 -0.1825
24093W        W40940   2.573  10.691  12.036 -0.1749  0.1279 -0.1650
24094W        W40941   6.319   4.135   5.206  0.1455 -0.0344 -0.0080
24095W        W40942  17.770   6.911  12.200  0.0339  0.0307  0.1549
24096W        W40943   7.092   2.159   1.803  0.3900 -0.0425  0.2113
24097W        W40944   7.240   2.238   5.022  0.1766 -0.1664 -0.1633
24098W        W40945   7.806  17.096   5.387  0.2173  0.0986  0.3470
24099W        W40946   8.665   0.713   0.412 -0.0311  0.0940  0.1408
24100W        W40947   0.134  14.951   4.794 -0.2946  0.1325 -0.2609
24101W        W40948   1.612   7.933   5.243 -0.1228 -0.0832 -0.0572
24102W        W40949   4.907  15.615  14.929 -0.1089  0.2611 -0.1029
24103W        W40950   7.098  16.361   5.177 -0.0541 -0.0879 -0.0098
24104W        W40951   0.602   7.116   3.288  0.1649  0.0203  0.0298
24105W        W40952  16.808   9.959  15.275 -0.1280 -0.0510 -0.0123
24106W        W40953   0.503   2.737  15.838  0.1717  0.0668 -0.1854
24107W        W40954   7.641   5.366   4.322  0.1739  0.2519  0.3408
24108W        W40955   0.205   1.512   5.026  0.2735  0.0805  0.1226
24109W        W40956  13.360   0.014   0.213  0.1493 -0.1108  0.0937
24110W        W40957  15.696   6.196  12.875 -0.0590 -0.1447 -0.1053
24111W        W40958  13.895   9.349  15.966 -0.1766  0.0072 -0.1202
24112W        W40959  15.077   5.964  12.162 -0.1404  0.0423  0.3064
24113W        W40960   9.443   1.747  11.568  0.1132  0.1712 -0.1376
24114W        W40961  14.635  12.465  12.369  0.1837  0.0490  0.4159
24115W        W40962   0.843  17.853   3.180  0.2707  0.0556 -0.2838
24116W        W40963   7.644   9.412  13.676  0.3771 -0.2487  0.0467
24117W        W40964  10.612   0.039   3.622  0.0285  0.2261 -0.2540
24118W        W40965   1.996  16.626  14.284  0.0789  0.2036  0.3658
24119W        W40966  14.420   5.975   5.185  0.0760  0.3229 -0.0188
24120W        W40967  13.998   9.535   3.774 -0.3498  0.1548  0.0295
24121W        W40968   5.313   3.105   4.683 -0.1289  0.1437  0.0440
24122W        W40969   3.814   8.282   0.211  0.3026  0.0036 -0.1213
24123W        W40970   5.521  16.352  11.327  0.0519 -0.3411  0.0259
24124W        W40971   9.357  10.997   3.829  0.1086 -0.2286 -0.5720
24125W        W40972  12.840   7.139  16.153 -0.0029  0.0199  0.2616
24126W        W40973  11.594  13.571   3.596  0.2865 -0.0800  0.1027
24127W        W40974  13.390   2.543  13.124  0.0947  0.1279 -0.3907
24128W        W40975  13.078  14.180  13.505 -0.0393  0.0141 -0.0062
24129W        W40976  16.224  15.946   4.414  0.2881  0.1057 -0.0884
24130W        W40977   1.186   9.917  16.036 -0.0475  0.1376  0.1222
24131W        W40978   3.484  15.027   0.885  0.1328  0.2497  0.0406
24132W        W40979   6.412  13.266  16.672 -0.0471  0.0763  0.2545
24133W        W40980   6.649  12.022   5.624  0.1365  0.2172 -0.0573
24134W        W40981   0.331  10.763   1.978  0.2035 -0.0510  0.0949
24135W        W40982  11.350  11.214   0.944 -0.0048 -0.0265 -0.2683
24136W        W40983   2.237  13.204   5.113  0.1095 -0.2561 -0.1914
24137W        W40984  10.077   8.093  11.583  0.0177 -0.1867  0.1622
24138W        W40985   2.388   2.136  12.268 -0.0195 -0.1654  0.0262
24139W        W40986   1.139   5.657   1.926  0.1082  0.0538 -0.0321
24140W        W40987   5.750  10.635   2.746 -0.0484 -0.2749  0.1290
24141W        W40988  15.314  13.955  16.007  0.1711  0.1331  0.2236
24142W        W40989   1.687  12.880  15.951 -0.2524 -0.2626 -0.0300
24143W        W40990   8.400   7.415   1.255  0.0956  0.1567  0.4771
24144W        W40991   3.528   6.868  13.043  0.0156 -0.0338  0.1501
24145W        W40992  11.624   0.993   5.257  0.0351 -0.1239 -0.1858
24146W        W40993  12.872  16.426  12.702 -0.3423 -0.0001 -0.1042
24147W        W40994  17.511   6.941   2.035  0.0473  0.0171 -0.0130
24148W        W40995  17.146   4.215  14.172  0.1111  0.0178 -0.1279
24149W        W40996   1.452  16.053  12.326 -0.3140 -0.0348  0.2336
24150W        W40997  12.528  17.449  14.603  0.0803  0.0867  0.0392
24151W        W40998   9.648  10.417  13.041 -0.0646  0.1057 -0.3384
24152W        W40999   3.811   5.965  15.512  0.1741  0.2794 -0.2933
24153W        W41000   9.782   1.373   1.505 -0.4092  0.2809 -0.0752
24154W        W41001  14.326   1.961   5.451  0.1104 -0.1870  0.0938
24155W        W41002  13.664   2.823  14.666  0.1316  0.1612 -0.0726
24156W        W41003   6.823   7.158  13.952  0.1252 -0.2649  0.0692
24157W        W41004  15.020  14.700   2.088 -0.2304  0.0100 -0.2094
24158W        W41005   4.854   6.842   4.986 -0.2991 -0.2168 -0.1750
24159W        W41006   1.061  11.506  13.560  0.1233  0.0042 -0.0963
24160W        W41007   2.519  12.100   2.437  0.1510  0.1537  0.1708
24161W        W41008  17.065   5.099   0.924  0.3159 -0.2316 -0.1001
24162W        W41009   9.232  16.051   1.089  0.2312  0.1610 -0.0760
24163W        W41010   9.646   0.575   2.744  0.0200  0.3314  0.0153
24164W        W41011  16.788   0.556   3.876  0.2259 -0.0799  0.1119
24165W        W41012  11.795  14.341  14.715 -0.0285  0.2607 -0.0563
24166W        W41013  14.506   3.014   4.758  0.0169 -0.1531  0.0749
24167W        W41014  16.460  10.251   2.825  0.1961 -0.0769  0.0983
24168W        W41015   9.979   9.270  11.548  0.0803 -0.2684 -0.0848
24169W        W41016   1.495   4.946   0.755 -0.0281 -0.2876 -0.0053
24170W        W41017   5.906   2.172   1.766  0.2108  0.0681  0.1308
24171W        W41018  17.704  10.772   2.651  0.2147  0.0250 -0.0315
24172W        W41019   0.725  17.236  13.678  0.0393 -0.1388  0.1485
24173W        W41020   9.935   0.667  12.487 -0.1360 -0.0268 -0.1596
24174W        W41021   6.047   8.962  13.825  0.1111 -0.0964  0.0306
24175W        W41022  16.004  14.239   3.153 -0.0693 -0.2984  0.1036
24176W        W41023   6.329   1.350  11.928 -0.0176  0.0572 -0.0557
24177W        W41024   3.876  11.777  12.508 -0.1210  0.0258 -0.2004
24178W        W41025  17.059   4.652  15.764  0.1767  0.0899 -0.0946
24179W        W41026   1.573  17.217  16.485  0.1766  0.1059  0.2207
24180W        W41027   8.698   8.669  16.730  0.1864 -0.1874  0.1996
24181W        W41028  15.099   9.068   2.568 -0.0301 -0.0949 -0.2707
24182W        W41029  15.510   1.822  13.678 -0.1132  0.0209 -0.1558
24183W        W41030  10.575  13.762  16.796  0.1774 -0.0342 -0.2286
24184W        W41031   9.334  11.375   0.516  0.2155  0.0620 -0.0705
24185W        W41032   3.175  12.196  15.125 -0.0177 -0.1096 -0.0979
24186W        W41033   7.278  13.151  15.277 -0.1984  0.0308  0.2188
24187W        W41034  14.673   5.378   4.350  0.1001 -0.0309  0.1433
24188W        W41035  14.611   6.233  13.801 -0.2705  0.1550 -0.0640
24189W        W41036   5.914  14.606  16.760 -0.0120  0.3336 -0.0339
24190W        W41037  13.113  17.491  13.879  0.2435  0.3466 -0.1476
24191W        W41038  11.872  12.878  16.049  0.0739  0.2178 -0.1668
24192W        W41039  11.641  15.855  13.509 -0.1950  0.0061 -0.1133
24193W        W41040  14.938   7.862  13.706 -0.2477  0.2737 -0.1715
24194W        W41041   0.364  12.806  15.294  0.1113  0.1331  0.2614
24195W        W41042   3.637   2.330   4.315  0.3019 -0.0471 -0.1753
24196W        W41043   7.625   3.264   3.956 -0.2501  0.0539 -0.0602
24197W        W41044   7.647  12.822   2.191  0.0520  0.0846  0.2000
24198W        W41045   9.402  13.136  14.356  0.1093  0.0888  0.3001
24199W        W41046   9.237  16.283   0.219  0.1192  0.2042 -0.1246
24200W        W41047   7.141   1.801  13.330 -0.3125  0.0004 -0.1675
24201W        W41048   7.292  14.982  12.497  0.1347  0.2095 -0.2969
24202W        W41049   4.513  10.631   4.844 -0.1867 -0.0475  0.1998
24203W        W41050  13.414  17.816   0.822 -0.0755  0.0301 -0.1253
24204W        W41051  14.665   0.719   3.894 -0.0027 -0.0011  0.0120
24205W        W41052  12.030   8.977  12.258  0.0205  0.0143 -0.0487
24206W        W41053  15.622  17.268   5.969 -0.2046 -0.1098 -0.1177
24207W        W41054   5.155   8.740   1.823  0.1070 -0.2625 -0.1461
24208W        W41055  15.013  15.860  12.734  0.2990  0.2146  0.4154
24209W        W41056  16.886   9.102  13.677 -0.0787 -0.0578  0.0028
24210W        W41057   1.765   9.319   0.416  0.2517 -0.0854 -0.1670
24211W        W41058   6.370  11.916   2.492  0.2141 -0.1109 -0.2369
24212W        W41059   6.679   4.892   6.201 -0.1074 -0.1971  0.1483
24213W        W41060   9.426  13.567   4.247  0.2461 -0.1849  0.0073
24214W        W41061   1.903  15.396  14.813  0.1767 -0.0731  0.1434
24215W        W41062   8.591   7.010  13.044  0.0423 -0.2615 -0.0843
24216W        W41063  10.187  12.792   2.471 -0.1104  0.1855 -0.0748
24217W        W41064  13.933   0.776   2.679  0.2517 -0.1336  0.0405
24218W        W41065   9.933   3.870  15.210 -0.0698 -0.0538  0.1553
24219W        W41066  15.417   7.799   5.422  0.1417 -0.0182 -0.0933
24220W        W41067  11.051   2.159   4.637  0.1234 -0.0407 -0.0334
24221W        W41068  14.206  10.321  11.893  0.1178 -0.0429  0.2394
24222W        W41069  11.253  14.747   4.464 -0.1333  0.0281  0.6638
24223W        W41070   2.226  11.335  13.325  0.3923 -0.2095  0.0811
24224W        W41071  13.765   2.157  16.422  0.0039 -0.0243  0.1041
24225W        W41072   8.812  16.991   5.393  0.0751  0.0857  0.2007
24226W        W41073   5.179  12.719  16.471 -0.2063 -0.0510  0.3127
24227W        W41074   2.915  17.486  13.925 -0.0925  0.0989 -0.0620
24228W        W41075  15.281   4.597  15.993  0.1147 -0.3970 -0.2426
24229W        W41076   5.020  11.745  14.074  0.4096  0.4443  0.1483
24230W        W41077   8.609  17.090  12.250  0.3793 -0.1363  0.1677
24231W        W41078   6.623   3.632  11.718 -0.1462 -0.0165  0.0349
24232W        W41079  14.564  12.368   3.549 -0.0053  0.0160 -0.2175
24233W        W41080   9.893   4.375   0.268 -0.3621  0.0226 -0.0769
24234W        W41081   9.155  13.653  13.300 -0.4035  0.0247  0.3164
24235W        W41082   8.383   6.154   2.167  0.0527 -0.2284  0.3731
24236W        W41083  11.149   0.964   1.778 -0.0793 -0.0737 -0.0516
24237W        W41084   8.873  11.015  13.690 -0.0109 -0.2350 -0.2151
24238W        W41085   8.991  10.902  14.521  0.3053 -0.2705 -0.2580
24239W        W41086   2.811  14.216  16.412  0.1774  0.0525  0.1202
24240W        W41087  13.700  17.418  16.213 -0.2897 -0.1511  0.1577
24241W        W41088  12.215  14.572  15.548 -0.0224 -0.0760  0.1023
24242W        W41089   6.591  15.680   4.797  0.1886  0.0185 -0.3131
24243W        W41090   9.624  17.043  12.877  0.3652 -0.1249 -0.0333
24244W        W41091  10.204  10.291  15.963  0.0856 -0.0509 -0.1042
24245W        W41092   7.104   0.979  14.230  0.0651  0.0770 -0.1294
24246W        W41093   3.162   5.288  15.203 -0.1982  0.2998 -0.0693
24247W        W41094   8.809   7.504  13.313  0.0724  0.0918  0.0361
24248W        W41095   7.191  16.005   2.386  0.1178 -0.0751 -0.0565
24249W        W41096  13.917  12.897   2.814  0.2970  0.0636 -0.1394
24250W        W41097   6.867   4.252  13.939  0.0195 -0.0377  0.3204
24251W        W41098  12.234   7.074   0.327 -0.3109  0.0441 -0.0860
24252W        W41099  11.128   0.378   0.774  0.0007 -0.0987  0.2412
24253W        W41100   6.016  15.429  13.314  0.2215  0.0864 -0.0939
24254W        W41101  16.658  12.390   4.678  0.0681 -0.0402  0.0818
24255W        W41102   3.092   8.106   4.614 -0.2097 -0.2266 -0.0587
24256W        W41103   4.926  15.978   1.168  0.0599 -0.0230  0.1911
24257W        W41104  11.607   5.208   3.785  0.1961  0.0415 -0.0943
24258W        W41105   1.491  11.459   0.376  0.1986 -0.1709  0.2592
24259W        W41106   2.308   1.817   0.021  0.2573 -0.2095  0.1320
24260W        W41107  17.239   7.202   0.531 -0.1703 -0.0993  0.0752
24261W        W41108   8.636   5.398  16.185  0.0345 -0.0492  0.0431
24262W        W41109  14.507   5.761  15.474  0.1576 -0.1426  0.1507
24263W        W41110   3.606   3.418   5.360 -0.0704 -0.4145  0.0589
24264W        W41111   2.120   3.549  11.847  0.2275 -0.1710  0.2457
24265W        W41112   7.580   0.422  13.988  0.1507  0.3955 -0.0686
24266W        W41113  16.315  15.184   0.673 -0.1662 -0.1741  0.0296
24267W        W41114   6.886   5.409  15.045 -0.3732 -0.0396  0.5609
24268W        W41115   5.074  14.401  14.204  0.0973 -0.2136 -0.1317
24269W        W41116  14.311   0.063   4.096  0.2505 -0.0896 -0.0538
24270W        W41117   9.325  13.051   1.955  0.0170  0.0305  0.0170
24271W        W41118  14.491   5.190   3.560  0.0908  0.0991  0.1036
24272W        W41119  16.496  10.976  16.669  0.0516  0.1575 -0.0849
24273W        W41120  15.196  12.082   1.927 -0.1877  0.1931 -0.1787
24274W        W41121  16.368  17.727  12.342  0.0994  0.0488 -0.0207
24275W        W41122  11.146  10.854   5.826  0.1054 -0.1619 -0.1132
24276W        W41123  17.028  17.877   4.001  0.1469  0.0242  0.0916
24277W        W41124   0.556   6.452   4.102 -0.1039 -0.1996 -0.4212
24278W        W41125   5.468  14.745  14.235 -0.1009  0.1393 -0.1541
24279W        W41126   3.306  16.284   4.311 -0.0928  0.2505  0.1062
24280W        W41127   8.799   2.989   1.748 -0.3951 -0.1414 -0.3392
24281W        W41128  14.212  10.493  14.074  0.0243 -0.2047 -0.2001
24282W        W41129   6.274   3.845   4.797 -0.0811 -0.1401  0.0703
24283W        W41130  17.070   2.931  12.533 -0.1309 -0.2470 -0.1411
24284W        W41131   0.869  17.583   4.163  0.0194 -0.4060 -0.1390
24285W        W41132   6.941  13.833   0.286  0.0678 -0.0351 -0.0046
24286W        W41133   8.577  11.914  15.593  0.2643 -0.2356  0.4154
24287W        W41134   4.054   0.341   5.064  0.0577  0.0432 -0.0240
24288W        W41135   4.544   2.181   1.999 -0.1530 -0.0801 -0.2523
24289W        W41136  11.105  17.664   4.103  0.0257  0.0055  0.0460
24290W        W41137   1.890   7.637   4.138  0.0515 -0.1102 -0.0858
24291W        W41138   1.105  16.991   3.696  0.0846 -0.1092  0.0944
24292W        W41139   5.164   7.264   5.125 -0.1170  0.0655  0.0305
24293W        W41140  17.458   6.942  14.889 -0.2059 -0.1300 -0.3131
24294W        W41141   2.640  17.383  16.781  0.4689 -0.2476  0.0020
24295W        W41142   3.633  15.344  15.089  0.1249 -0.1307  0.0527
24296W        W41143   2.441   3.738   1.100 -0.3025  0.2126  0.4036
24297W        W41144   5.653   8.923  15.005  0.0110  0.0192 -0.1248
24298W        W41145  15.350  15.280   4.848 -0.0601  0.0072 -0.1682
24299W        W41146   2.129  16.702  12.024  0.4165 -0.1064 -0.1569
24300W        W41147  13.793  14.926  13.189  0.0047 -0.1139  0.3421
24301W        W41148  10.745   4.743   0.092  0.4094  0.0084  0.1542
24302W        W41149  11.121  17.040  12.204  0.3074  0.0371 -0.1412
24303W        W41150  12.659  12.593  15.631 -0.0303 -0.4500 -0.0848
24304W        W41151  10.086   7.990   1.301  0.0242 -0.1306  0.0356
24305W        W41152  15.924   8.352  15.634  0.0348  0.0310 -0.0836
24306W        W41153  11.984  15.758  15.069 -0.1028  0.0483 -0.3186
24307W        W41154   5.425   1.911  15.883 -0.1871 -0.0719  0.0509
24308W        W41155   2.608   2.692   3.706 -0.2918 -0.1989 -0.3861
24309W        W41156  16.671  10.927  13.220 -0.0251 -0.1236  0.1239
24310W        W41157   8.759  14.789   3.824  0.1062  0.1683 -0.0689
24311W        W41158  13.081   2.208   3.453  0.1464  0.2098 -0.2759
24312W        W41159   5.772   6.060  14.678 -0.0042 -0.0418  0.0076
24313W        W41160   5.626   0.835   0.788 -0.0530 -0.0632  0.1115
24314W        W41161  16.715   2.878   4.350  0.1552 -0.0380  0.1151
24315W        W41162   8.154   8.667   4.948 -0.2005  0.1286  0.1912
24316W        W41163   2.147  14.349   3.197 -0.0055 -0.1499  0.2271
24317W        W41164   9.097  14.982   1.523  0.1170 -0.0803 -0.1625
24318W        W41165   8.638  15.568   4.452 -0.0149  0.2231 -0.1138
24319W        W41166   5.990  15.046   1.516  0.2902 -0.2667 -0.0715
24320W        W41167  12.109   3.507  12.736  0.0223 -0.0514 -0.3678
24321W        W41168  16.260   5.410  15.819 -0.0844 -0.2719 -0.0175
24322W        W41169  14.226   3.690  14.773  0.0078 -0.1773  0.1131
24323W        W41170   1.910   3.088  16.076 -0.2223  0.2202 -0.1410
24324W        W41171   7.093   6.407  16.749 -0.1781  0.1228 -0.0039
24325W        W41172  12.930   1.047  14.434 -0.0188  0.0735 -0.0562
24326W        W41173   6.505  14.748   5.825  0.3145 -0.0016 -0.0318
24327W        W41174   7.017  15.172  16.008 -0.2364  0.0041  0.2692
24328W        W41175  11.592   9.117   5.546 -0.1676 -0.1003 -0.3124
24329W        W41176   0.920  10.162  12.890  0.0172  0.1362  0.2084
24330W        W41177   2.587   9.613   5.333 -0.2574  0.0759 -0.1030
24331W        W41178  17.143  13.177  12.198  0.2485 -0.0028 -0.0251
24332W        W41179   4.367   0.731   2.287 -0.1077  0.0887 -0.0094
24333W        W41180   5.874  13.527  12.113 -0.0111  0.2263 -0.1467
24334W        W41181  12.312   7.297   5.473  0.1586  0.1074 -0.0658
24335W        W41182  11.393   2.815   4.882 -0.1713 -0.2829  0.2699
24336W        W41183   3.357  17.407   4.074 -0.1533  0.0117  0.0762
24337W        W41184  13.416   7.941   0.835 -0.1008  0.0691 -0.2718
24338W        W41185  17.690  15.953   4.015 -0.3777  0.2331 -0.3319
24339W        W41186  17.611  10.460  16.669 -0.1965 -0.4203  0.0364
24340W        W41187   6.526   1.243   2.740 -0.2395 -0.0070  0.0014
24341W        W41188   6.275   9.171   1.549  0.4441 -0.2673 -0.1168
24342W        W41189   9.846   8.571   4.650 -0.3085  0.1450  0.1869
24343W        W41190  12.692  11.896   3.034  0.3325  0.0925 -0.0134
24344W        W41191  13.937   6.489  12.993  0.0468 -0.0029  0.1678
24345W        W41192   4.158  17.425   5.616 -0.0311 -0.0303 -0.4100
24346W        W41193   6.735   1.780  14.873  0.0503 -0.2092 -0.1110
24347W        W41194  13.175  11.734   0.799 -0.2089  0.0549 -0.0319
24348W        W41195   6.463   6.591   5.944 -0.1902 -0.0122  0.0553
24349W        W41196   0.981  11.650   0.563  0.0767  0.0293 -0.1109
24350W        W41197   8.026   4.525  13.435 -0.1743 -0.2825 -0.1396
24351W        W41198   0.574  17.149  14.732  0.1021 -0.1041  0.3301
24352W        W41199  14.417   7.301  15.872  0.0906  0.3132 -0.0545
24353W        W41200   6.767  12.879   2.708 -0.2078  0.2768 -0.0960
24354W        W41201   8.863   0.070   0.664  0.3321  0.0394  0.3340
24355W        W41202  14.615   9.384  15.208 -0.0288 -0.1396  0.5441
24356W        W41203   1.150   7.390   1.552 -0.0115  0.1584  0.0138
24357W        W41204  11.171  13.828  13.259  0.0161 -0.2015  0.2073
24358W        W41205   4.172   8.230  16.151  0.0650  0.0813 -0.2207
24359W        W41206   6.565  10.123   4.158 -0.1614  0.0716 -0.0363
24360W        W41207   7.898   2.670   2.946  0.0101  0.1986 -0.1830
24361W        W41208  15.274   1.241  12.836 -0.1168 -0.0749  0.1646
24362W        W41209  16.833  14.912   1.534  0.1239 -0.1354 -0.1523
24363W        W41210  15.057   1.267  14.836  0.1596  0.0605 -0.1200
24364W        W41211   3.467  14.873  16.708 -0.0188  0.1714 -0.1285
24365W        W41212   5.722  17.402   4.105  0.0591  0.0423  0.1174
24366W        W41213   3.033   9.663   2.736 -0.1539  0.3283  0.0672
24367W        W41214  16.107   3.911   0.389 -0.0343 -0.3102 -0.0249
24368W        W41215  14.835   7.655   1.280 -0.0776 -0.1638  0.0557
24369W        W41216   1.908  14.196  16.629 -0.1494  0.1398 -0.0851
24370W        W41217  13.050   4.253  12.634 -0.0181  0.2578  0.3868
24371W        W41218  10.513   8.575   0.704 -0.0615  0.0390 -0.2455
24372W        W41219   2.687   3.506  16.116 -0.1077  0.1960 -0.1106
24373W        W41220  11.749   9.345   1.723  0.2438  0.1459  0.0451
24374W        W41221  11.453   1.177  11.626 -0.3439 -0.0493 -0.0200
24375W        W41222   4.802  14.964  11.695 -0.1166 -0.1270 -0.0935
24376W        W41223   4.499  15.357  11.617 -0.1119  0.0993  0.3823
24377W        W41224   3.690   0.262   1.832 -0.1126  0.0869 -0.2282
24378W        W41225   4.715   1.471   2.284 -0.2345 -0.0298 -0.0986
24379W        W41226   7.562  10.785  13.530  0.1247  0.3418 -0.2155
24380W        W41227  16.791  13.205  16.324 -0.4476 -0.0371 -0.0000
24381W        W41228   1.364  16.256   4.743  0.2188  0.0208  0.1987
24382W        W41229   6.984  15.480  12.141  0.0062 -0.1926  0.3624
24383W        W41230   3.055   5.212  10.779 -0.2713  0.3815  0.1630
24384W        W41231   1.300   1.770  16.450  0.0776  0.0229 -0.0131
24385W        W41232   7.678   9.361   1.387 -0.1310  0.2326  0.0966
24386W        W41233  17.459   1.722   5.672 -0.0396  0.3603  0.2356
24387W        W41234   5.373  11.753   2.223  0.1010  0.0290  0.1048
24388W        W41235  13.222   7.759  16.671 -0.1056  0.0335 -0.0703
24389W        W41236   2.313  16.315  12.338  0.2532  0.1911  0.0464
24390W        W41237   8.745   6.470  12.811 -0.2618 -0.0741 -0.0261
24391W        W41238  16.104   8.115   1.868  0.3488  0.0972  0.1220
24392W        W41239  10.006   9.306  14.952 -0.2531 -0.0025 -0.2496
24393W        W41240   4.766   0.981  14.011 -0.1117  0.0393 -0.0685
24394W        W41241   8.043  13.073   5.572 -0.2997  0.2351  0.1827
24395W        W41242   8.623   1.087   0.097  0.1203  0.4836 -0.2526
24396W        W41243  13.936  10.042  12.719  0.1366 -0.2417 -0.2199
24397W        W41244   5.286   7.896   4.162  0.1219 -0.3150 -0.0310
24398W        W41245   6.347  14.330  15.330 -0.0371 -0.0719  0.1414
24399W        W41246  17.617   3.590  12.926  0.0558  0.0587  0.1491
24400W        W41247  16.280   8.310  13.972 -0.0884  0.2319 -0.2771
24401W        W41248  11.614   1.408  12.883  0.3348 -0.3086 -0.3453
24402W        W41249   4.098   2.158  11.794  0.1636  0.1253  0.1876
24403W        W41250   9.246  13.960  13.803  0.4402  0.0839 -0.1994
24404W        W41251   9.382   8.657  15.166  0.1463 -0.1588 -0.0224
24405W        W41252   9.841   3.634   3.602  0.0069  0.2012 -0.0097
24406W        W41253   8.290   9.494   2.086  0.2541 -0.2346  0.0119
24407W        W41254  12.141   1.420  14.395  0.1114  0.2792  0.3893
24408W        W41255   3.396  13.377  12.517 -0.2377 -0.4177 -0.0388
24409W        W41256  14.400  10.948  13.799  0.4102  0.0875  0.1240
24410W        W41257   4.058  12.325   6.360 -0.0275  0.2364 -0.1234
24411W        W41258  16.549  17.789  15.016  0.0872 -0.2560  0.2305
24412W        W41259  10.314   9.530  13.204 -0.1235 -0.0555  0.0246
24413W        W41260  11.412   7.663  15.479  0.0864  0.1157 -0.1508
24414W        W41261   3.312   6.301  13.133 -0.0698 -0.1100 -0.0114
24415W        W41262   4.078   7.058   5.681  0.1434  0.1752  0.0302
24416W        W41263  14.107  15.391   3.369 -0.3099 -0.2268  0.0099
24417W        W41264   0.588  15.108  15.064 -0.5388 -0.0256  0.1509
24418W        W41265   8.798  17.055  13.628  0.1638  0.3099  0.0728
24419W        W41266  12.973  16.071   0.119 -0.2002  0.1982 -0.2199
24420W        W41267   5.103   1.136  12.919  0.1980  0.2217  0.4045
24421W        W41268   2.214  13.495  12.639  0.2074  0.0881  0.2089
24422W        W41269   8.312   3.856   2.900  0.0594 -0.0677 -0.1721
24423W        W41270  13.215  14.520  15.347 -0.0971  0.1318 -0.1631
24424W        W41271  11.881   6.090  14.499 -0.0960 -0.2111  0.0161
24425W        W41272  10.680  13.103  12.847  0.2205  0.3773 -0.2153
24426W        W41273  14.739  10.532   3.457 -0.0111 -0.2554  0.0174
24427W        W41274   1.604   9.276   1.638 -0.1551 -0.0699  0.0833
24428W        W41275  13.317  16.482  12.892  0.0588  0.2065 -0.2181
24429W        W41276   8.573   0.773   1.829  0.1880  0.2128  0.1300
24430W        W41277   7.944  11.591  14.795  0.1190 -0.0335 -0.0992
24431W        W41278   2.463   5.628  14.750 -0.0790  0.2715  0.4811
24432W        W41279  16.853   0.266   4.501  0.1631  0.0046  0.1371
24433W        W41280  17.229   1.434  14.907 -0.1407  0.1054 -0.2128
24434W        W41281   9.966  14.925   5.321 -0.3144 -0.1891 -0.0789
24435W        W41282  14.687   4.835  12.064 -0.1461  0.2762  0.1140
24436W        W41283   9.592   0.836  13.892  0.2592  0.0875 -0.0493
24437W        W41284   2.602   8.344   5.915  0.1282 -0.1178  0.0398
24438W        W41285  14.992  15.699   0.552  0.1385 -0.0592 -0.1063
24439W        W41286   7.776   9.667   2.841  0.1036 -0.1442  0.3261
24440W        W41287  17.634   8.285   3.772 -0.0965  0.0633 -0.0046
24441W        W41288  17.190  13.518   1.259  0.1822 -0.1183  0.1006
24442W        W41289   9.008  16.598   5.978 -0.0039  0.0541  0.0758
24443W        W41290   8.997  15.927   4.309  0.0065  0.0676 -0.0446
24444W        W41291   5.980  13.628   0.175  0.0983 -0.0980 -0.3936
24445W        W41292   8.574  15.495   0.600 -0.1904  0.3195  0.1714
24446W        W41293  16.776   1.440   5.459 -0.0250  0.3858  0.2365
24447W        W41294  17.712  17.628  12.127  0.0419 -0.1840  0.0090
24448W        W41295   6.039  16.756   1.150 -0.0398  0.0989 -0.0586
24449W        W41296  14.826  11.422  12.021  0.1168  0.0244  0.0303
24450W        W41297   4.461  13.583   1.889 -0.1326  0.0325  0.2633
24451W        W41298   0.942   0.496  14.104 -0.1888  0.1271  0.0350
24452W        W41299  16.706   8.565  16.665 -0.0526  0.1348  0.2634
24453W        W41300   8.068  17.537   2.493  0.0586  0.0463 -0.1648
24454W        W41301   8.369   0.623  15.091  0.0814  0.0480  0.1316
24455W        W41302  13.367  12.142  14.728 -0.0896  0.0131  0.2128
24456W        W41303   3.117  11.870   0.472 -0.2599  0.2710  0.0443
24457W        W41304   7.531  13.150  16.249  0.3458  0.1439  0.2593
24458W        W41305  12.700   2.309  14.125  0.0527  0.0169 -0.1123
24459W        W41306   4.612   4.746   1.498 -0.0430  0.2738  0.1193
24460W        W41307   6.660  13.260  12.737  0.0075  0.2361 -0.1069
24461W        W41308   5.823   1.494   1.458 -0.2694 -0.0846  0.0153
24462W        W41309  15.575   7.464   4.103  0.0766 -0.2866 -0.0782
24463W        W41310   4.083   7.547   4.003  0.2242 -0.1087  0.3574
24464W        W41311   8.622   4.427   5.343  0.4621  0.0057 -0.0216
24465W        W41312  14.126   8.707   1.138  0.1189 -0.3027 -0.1586
24466W        W41313  10.864   4.625  13.771 -0.1373 -0.1456 -0.4103
24467W        W41314  14.460  15.619  13.605 -0.2908  0.0643  0.2552
24468W        W41315   1.933   7.824   5.775 -0.2126 -0.0300 -0.0309
24469W        W41316  11.111  14.573  15.605 -0.0782  0.1124  0.0613
24470W        W41317   2.050   1.013   4.458 -0.1799 -0.1196 -0.0446
24471W        W41318  13.533  14.070  15.384  0.0714 -0.4147  0.0494
24472W        W41319  14.578  16.169  11.857  0.1225 -0.0493 -0.1575
24473W        W41320   4.852   7.838   2.384 -0.1992  0.0271  0.0328
24474W        W41321   4.239   2.390   1.523 -0.0067  0.0306 -0.0443
24475W        W41322  11.016   4.936  14.567 -0.0887  0.1080 -0.0901
24476W        W41323   9.704  14.465   2.314 -0.0676 -0.1645 -0.2442
24477W        W41324   2.624   3.503  14.237  0.2921 -0.0008  0.0058
24478W        W41325  17.502   0.167  16.617  0.1085  0.1612  0.0765
24479W        W41326   3.058  13.722  12.767 -0.0829  0.2289  0.1022
24480W        W41327  17.747  16.768  11.564  0.0481 -0.0601  0.3906
24481W        W41328  17.299   6.718   1.673  0.2326 -0.1742  0.0097
24482W        W41329   3.806  15.001   3.278 -0.3827 -0.4221 -0.0025
24483W        W41330   3.380   1.790  12.998 -0.0562  0.1890 -0.2621
24484W        W41331   5.405   0.276  12.515 -0.4301  0.0348 -0.1536
24485W        W41332   9.232  10.084   5.312 -0.2822 -0.1587  0.1107
24486W        W41333   7.079   8.137  13.961 -0.1375 -0.0303  0.2002
24487W        W41334   9.708  11.743   0.516 -0.1876  0.0493  0.0025
24488W        W41335  16.078   2.230  12.647 -0.3063 -0.1825  0.2482
24489W        W41336   2.459   0.980  12.430  0.4491 -0.0108 -0.1120
24490W        W41337   4.986   6.903  12.732 -0.2040  0.1312 -0.0227
24491W        W41338   7.114  14.582  12.245  0.1073  0.2165  0.0387
24492W        W41339  15.398   3.931   2.856 -0.2215  0.1154 -0.0082
24493W        W41340  14.397   9.944   1.465  0.1296  0.0836 -0.0017
24494W        W41341  10.594   4.706  11.036 -0.1186  0.1940 -0.0935
24495W        W41342   5.876   9.009   3.751 -0.1952 -0.0024  0.1026
24496W        W41343   3.858   2.615   3.293 -0.1969 -0.3103  0.2406
24497W        W41344   0.521   3.467   2.390  0.0853  0.3114  0.0141
24498W        W41345  15.403   6.064  13.244  0.0409  0.1257 -0.0894
24499W        W41346   1.761  12.026  12.932  0.0672  0.2872 -0.1278
24500W        W41347  11.673   7.554   2.341  0.0355  0.1168  0.1390
24501W        W41348   5.699   0.105   2.889 -0.0886  0.0113 -0.1751
24502W        W41349   6.052   0.333   3.779  0.0759  0.4367 -0.2881
24503W        W41350   6.223   9.667   6.189  0.0647 -0.0644 -0.0155
24504W        W41351   0.706  14.585   0.433  0.0380  0.0514  0.0443
24505W        W41352  11.457  15.320  15.812 -0.0202 -0.0685  0.0671
24506W        W41353  15.903   7.882  13.114  0.2890  0.2175  0.3806
24507W        W41354  16.190   6.014   5.395 -0.1550 -0.2313 -0.1865
24508W        W41355  12.093   4.616  15.084 -0.0147 -0.2586 -0.0097
24509W        W41356  12.607   1.927   5.099 -0.0730  0.1194  0.2120
24510W        W41357  17.017   8.622  11.759  0.0334  0.3241 -0.1276
24511W        W41358  11.532   7.224   4.156 -0.1351 -0.0165 -0.2070
24512W        W41359  17.391   1.820  11.682 -0.4349 -0.0054 -0.1891
24513W        W41360  10.999  10.956   0.210  0.3598 -0.2072  0.2001
24514W        W41361   5.344   7.692  15.610 -0.0606  0.2550 -0.2854
24515W        W41362  10.383   9.900  12.276 -0.3407 -0.0545 -0.0962
24516W        W41363   2.475   9.070   0.670  0.0414  0.2068  0.1893
24517W        W41364  17.771  10.747   3.555  0.2745  0.3179  0.0521
24518W        W41365   0.274  15.250  12.230  0.1795 -0.2686 -0.3615
24519W        W41366   0.429  14.887   5.375 -0.4052 -0.1051 -0.2517
24520W        W41367  16.846   6.186   4.774  0.0490  0.0053  0.0637
24521W        W41368  11.881   2.376   1.469 -0.0018  0.0042 -0.0368
24522W        W41369  14.827   0.391   5.638 -0.1499 -0.0722 -0.0553
24523W        W41370   8.119  12.855   2.321  0.0117  0.0386  0.0746
24524W        W41371  12.022   2.726  13.812 -0.2012 -0.2307 -0.2737
24525W        W41372  11.739  11.085  12.557 -0.3084  0.0888  0.0498
24526W        W41373   6.279   1.265  13.851  0.0563 -0.1845 -0.4373
24527W        W41374   5.066   2.749  11.657 -0.1586  0.1852  0.0717
24528W        W41375   7.478   3.737  13.772  0.0163  0.0211 -0.0690
24529W        W41376  13.524  14.188  12.684 -0.0530 -0.2344 -0.4342
24530W        W41377   6.571   3.947  11.271 -0.1114 -0.1192 -0.1598
24531W        W41378   2.968   4.902   3.017  0.1616 -0.1294 -0.0219
24532W        W41379   1.851  16.133  12.616 -0.0339 -0.1227 -0.1784
24533W        W41380  10.626   6.145  13.809 -0.2206  0.1045 -0.4353
24534W        W41381  13.809  14.447   2.397 -0.0996  0.0433  0.0334
24535W        W41382  14.018   0.839  12.136 -0.1530 -0.2865  0.1026
24536W        W41383   1.491  14.622  16.727  0.4093  0.0141 -0.5224
24537W        W41384  17.832   7.431  12.370  0.1038 -0.0722 -0.2496
24538W        W41385  16.551  11.415   5.031 -0.1259 -0.0067  0.1288
24539W        W41386  14.201  16.507  11.696 -0.1332 -0.1590 -0.0528
24540W        W41387   0.817  10.522   3.316 -0.0796 -0.0507  0.0142
24541W        W41388   8.364  15.400   4.058  0.0670  0.0908  0.1632
24542W        W41389   8.365  15.787  12.716  0.0403 -0.1823 -0.1911
24543W        W41390   4.416  14.963  12.575 -0.0300  0.0843 -0.3118
24544W        W41391  12.477  14.967  13.828  0.1742  0.1975 -0.2475
24545W        W41392  15.104  12.277   1.060 -0.1044 -0.0017  0.1199
24546W        W41393   5.146   9.514   0.659 -0.0159 -0.1352  0.0981
24547W        W41394  14.094   8.310  15.924 -0.1472 -0.1756  0.0836
24548W        W41395   3.577   9.611   0.482 -0.1084 -0.1324 -0.0652
24549W        W41396  16.992   1.932   4.242 -0.0208 -0.0480  0.1933
24550W        W41397   8.862  14.694  13.328 -0.0186 -0.3835  0.1985
24551W        W41398  13.070   5.648   0.192 -0.3766  0.0434  0.1927
24552W        W41399  14.974   3.430   1.647 -0.1618  0.1068 -0.1345
24553W        W41400  11.535  17.891  14.578 -0.2195  0.0284 -0.0555
24554W        W41401  11.555  12.397  16.140  0.1529  0.0737 -0.0941
24555W        W41402   8.559  14.308  16.488  0.1957  0.2611  0.0505
24556W        W41403   4.791  13.628   3.545  0.0692 -0.0950  0.2309
24557W        W41404   2.138  13.809  16.166  0.1807  0.1691 -0.1189
24558W        W41405  16.843   9.135  12.701  0.0543  0.1270 -0.2557
24559W        W41406   3.092   5.529   2.384 -0.0090 -0.0302 -0.1153
24560W        W41407  12.169  13.065   0.688  0.0693  0.1657  0.2576
24561W        W41408   6.651  14.249   3.668 -0.3419 -0.1321 -0.3100
24562W        W41409   4.834   5.369   5.288  0.1705  0.1671 -0.0654
24563W        W41410  10.619   6.864   4.286  0.1376 -0.3041  0.1586
24564W        W41411   4.273  14.055   2.190 -0.2210 -0.1963  0.0519
24565W        W41412   1.446   6.619  15.407 -0.0647  0.0617  0.2278
24566W        W41413   3.339   8.796   1.571 -0.0798  0.1914 -0.1699
24567W        W41414   7.803  11.555  16.062 -0.2119  0.1334  0.3326
24568W        W41415  16.284  11.331  16.419  0.2358  0.1518  0.0337
24569W        W41416  16.582   2.802  11.375  0.1097 -0.0106 -0.2009
24570W        W41417  15.532   6.982  14.462  0.1804 -0.2529  0.1336
24571W        W41418   6.195   4.047   0.316 -0.1927  0.1908 -0.1889
24572W        W41419  13.702   2.731  16.659  0.2971 -0.0141  0.0970
24573W        W41420   7.842   1.051   2.963  0.0109 -0.0588 -0.2778
24574W        W41421  12.969   6.032  14.077 -0.2410 -0.1434  0.1294
24575W        W41422  14.805   6.411  12.107 -0.2467 -0.0518 -0.2371
24576W        W41423  17.753  11.639  16.620  0.0456 -0.2397 -0.1988
24577W        W41424  11.606  13.025   5.039  0.0514  0.0362  0.1657
24578W        W41425  12.530   2.585  15.086 -0.1815  0.0153  0.1375
24579W        W41426  16.122   0.556  14.355 -0.1452  0.1559  0.1367
24580W        W41427  13.433   9.962  16.722 -0.1053  0.0510  0.0254
24581W        W41428   6.494   2.486   0.991  0.0998 -0.0392  0.2715
24582W        W41429  13.107   6.094  16.627  0.2439  0.1225  0.0460
24583W        W41430   2.595   2.451  16.022 -0.0735  0.3327  0.2635
24584W        W41431  12.295  14.993  14.309  0.0852 -0.3051  0.1964
24585W        W41432  12.147   2.873   1.987 -0.1195 -0.3694  0.1876
24586W        W41433   2.011  10.974  16.638 -0.0639  0.1863 -0.3188
24587W        W41434  14.968  10.986   0.049  0.1544 -0.1325 -0.0140
24588W        W41435   0.979   4.379  14.621  0.1840  0.1167 -0.1346
24589W        W41436   2.251  14.303   4.417 -0.0522  0.4512 -0.0063
24590W        W41437   6.955   6.565  15.928 -0.0350 -0.0539  0.0669
24591W        W41438  11.542   9.148  16.781 -0.1364 -0.1231 -0.0228
24592W        W41439   4.172  15.386  15.175 -0.1360  0.0097  0.3322
24593W        W41440   3.306  11.229   3.821  0.0200  0.0171  0.2696
24594W        W41441   7.979   2.251  15.816  0.0594 -0.2163  0.3011
24595W        W41442   6.491  17.665   0.071 -0.1454  0.0972 -0.0137
24596W        W41443   4.360  16.033   3.569  0.0467 -0.2677 -0.2010
24597W        W41444   6.694  16.135   5.694  0.0254  0.3283  0.1226
24598W        W41445   4.228   3.345  13.158  0.0137  0.1367 -0.0761
24599W        W41446   7.833   4.421  16.510 -0.0998  0.0652  0.1391
24600W        W41447   0.172  12.887  14.373 -0.2257 -0.2080 -0.1390
24601W        W41448   4.168   1.572  11.944  0.0850  0.2074 -0.2661
24602W        W41449   9.513   7.712  14.962 -0.1271  0.0512 -0.0081
24603W        W41450  13.772  16.849  14.464  0.2149 -0.1807 -0.1824
24604W        W41451  17.889  12.189   3.432 -0.3010 -0.3568  0.1299
24605W        W41452  13.539   3.701  14.060 -0.1287 -0.1334 -0.1306
24606W        W41453  11.728  13.600   1.297 -0.2103  0.1602 -0.2762
24607W        W41454  11.385   5.305  14.862  0.1010 -0.4190  0.0663
24608W        W41455   8.519  16.576  13.614  0.1138 -0.0989 -0.1271
24609W        W41456   9.359   9.127  13.882 -0.1090  0.2315  0.1390
24610W        W41457   6.917  17.590  14.603 -0.0035 -0.0226  0.1605
24611W        W41458  10.462  17.380   3.034  0.0642  0.1224 -0.0656
24612W        W41459   6.945   9.191   0.169 -0.0817 -0.0706 -0.4839
24613W        W41460   3.108  16.757  15.761 -0.0874 -0.0023 -0.0135
24614W        W41461  12.512  12.229   1.143 -0.1111 -0.2824  0.2284
24615W        W41462   8.149   7.975  12.947  0.2949 -0.0132  0.0776
24616W        W41463  17.868   9.191  13.983 -0.1068  0.0569  0.0981
24617W        W41464   0.642   0.052  16.669 -0.0854 -0.0444  0.0202
24618W        W41465  17.125   6.069   4.303 -0.0835  0.1524  0.0607
24619W        W41466   1.780  12.848   3.807 -0.1921  0.0046  0.0295
24620W        W41467  12.585  10.549   2.075 -0.1158  0.0409  0.2553
24621W        W41468   0.355   5.218  15.987  0.1405  0.0075 -0.0283
24622W        W41469  17.136  17.426   2.300  0.0813 -0.0259  0.0668
24623W        W41470   8.918   5.391  14.960  0.2148 -0.1052  0.2676
24624W        W41471  10.912  10.184  14.202 -0.1632 -0.1361 -0.0715
24625W        W41472  13.096   6.259  10.995 -0.0565  0.3573 -0.0664
24626W        W41473   2.388   8.474  15.093  0.1372 -0.1105 -0.1789
24627W        W41474   1.566  16.286   2.675  0.1980  0.2406 -0.1450
24628W        W41475   3.876  16.834   0.154 -0.0740 -0.4075 -0.2725
24629W        W41476   2.382   1.589   1.652  0.0228  0.2643  0.1147
24630W        W41477   6.886   6.799  12.552 -0.4577  0.1351  0.0756
24631W        W41478  12.444   7.274   3.465  0.0063  0.1031  0.0700
24632W        W41479   0.070   8.380   2.362  0.1440 -0.2751  0.2624
24633W        W41480   3.644  17.052   3.742  0.0584  0.1345  0.3825
24634W        W41481  11.567  14.001   5.018 -0.2524  0.0393 -0.3538
24635W        W41482   3.294  13.372   5.682 -0.2535  0.1041  0.1743
24636W        W41483   7.156   1.292   1.107  0.1671 -0.3159 -0.0703
24637W        W41484   5.491   3.836   0.304 -0.2768 -0.0562 -0.1007
24638W        W41485  10.969   0.780   2.946  0.1110  0.0254  0.0482
24639W        W41486   8.540   6.100   5.620 -0.1007 -0.2460 -0.2520
24640W        W41487   8.769   1.111  14.433  0.0493 -0.0492  0.0330
24641W        W41488   5.885   5.466   5.717  0.1642 -0.1411  0.1392
24642W        W41489  17.529  14.278  16.724 -0.0212 -0.0977 -0.5136
24643W        W41490  17.600  16.532   5.229 -0.1255 -0.0101 -0.1179
24644W        W41491   8.231  12.142   0.741 -0.2780  0.2369 -0.0544
24645W        W41492  12.384   5.408  15.641  0.3926 -0.2291 -0.1509
24646W        W41493   7.070  14.892  15.253  0.2149  0.0017 -0.2308
24647W        W41494  10.438   0.335  13.790  0.3233 -0.1611  0.1837
24648W        W41495  15.035  10.456  12.321  0.0319 -0.2637 -0.1137
24649W        W41496   1.491  15.306   1.762 -0.1030 -0.2056 -0.2414
24650W        W41497  14.575  11.960   3.813  0.1141  0.0744 -0.0365
24651W        W41498   5.831  16.305   2.289  0.2266  0.1137 -0.2029
24652W        W41499  15.226   7.062   3.978  0.1712 -0.0554  0.5497
24653W        W41500  11.286   5.502  15.854 -0.0056  0.1901 -0.0773
24654W        W41501  15.095  16.930  11.825 -0.3378  0.1606 -0.0412
24655W        W41502  13.027  12.200   3.462 -0.1222  0.2950 -0.1960
24656W        W41503   2.405  11.369   0.510 -0.0056  0.0550 -0.0489
24657W        W41504   4.280  10.457  13.919 -0.1615 -0.1146 -0.1008
24658W        W41505  14.184   9.744   5.583  0.1616 -0.1534 -0.0708
24659W        W41506   0.312  12.534   1.185  0.2039 -0.0259 -0.0771
24660W        W41507  14.057   9.736  13.280 -0.0483 -0.0624 -0.1973
24661W        W41508   4.131  16.946   5.609 -0.0797  0.1473 -0.3211
24662W        W41509   2.335   5.477   1.470 -0.2243 -0.0882 -0.0335
24663W        W41510  11.251   3.898  14.381 -0.0089  0.1656 -0.2268
24664W        W41511  13.352   2.573   5.390 -0.1936  0.0796 -0.1419
24665W        W41512   6.699   5.320   2.298  0.0327 -0.2349 -0.1278
24666W        W41513   5.963   3.522   0.301 -0.0342  0.1181 -0.2268
24667W        W41514  14.965   6.884  15.529 -0.1792  0.0474 -0.3416
24668W        W41515  15.315   9.923   4.164 -0.0656 -0.0219 -0.2810
24669W        W41516  15.050   8.105   2.174 -0.0085  0.1824 -0.3009
24670W        W41517   1.355   0.364  14.715 -0.1131 -0.1200 -0.1660
24671W        W41518   8.843   0.924  15.432 -0.0037 -0.0140 -0.0636
24672W        W41519  17.309  12.473   5.155 -0.0536 -0.0293 -0.1443
24673W        W41520   2.138   1.702  11.251 -0.2802 -0.0110  0.1186
24674W        W41521  13.137  11.486   5.569 -0.0872  0.1944  0.0745
24675W        W41522  16.730  14.206  14.325 -0.3258  0.1314  0.3499
24676W        W41523   7.926  15.648  12.425 -0.1441 -0.3704 -0.2233
24677W        W41524   5.572  13.723   2.692  0.0848 -0.1278  0.0044
24678W        W41525  12.893  16.800   1.499 -0.2825  0.1095  0.0769
24679W        W41526   2.584  16.846  15.563 -0.1867  0.0309  0.1356
24680W        W41527   3.681  10.746  16.029 -0.0395 -0.2777  0.2007
24681W        W41528   6.563  10.981  15.119  0.0114 -0.1355  0.0034
24682W        W41529   5.972  10.359  15.337  0.2170 -0.0497  0.0937
24683W        W41530  15.143   5.898   2.123 -0.1694  0.0553  0.0413
24684W        W41531   1.139   1.797  12.986 -0.0919 -0.0658 -0.1570
24685W        W41532   2.373  13.356   4.463 -0.0352  0.3726  0.0475
24686W        W41533   8.563  17.471  16.385 -0.1160  0.2154 -0.0319
24687W        W41534   6.557  11.827   0.265  0.2599 -0.0033  0.1958
24688W        W41535   3.688   7.321   0.517  0.1422  0.1630  0.0788
24689W        W41536   9.929   8.946   1.806 -0.2958  0.0943 -0.2212
24690W        W41537   5.848  16.224  12.153  0.5465  0.1118  0.0189
24691W        W41538   4.626   1.154   1.900 -0.2093  0.1690 -0.1695
24692W        W41539   6.920  14.666  14.838  0.0324 -0.1035  0.2473
24693W        W41540   5.369   0.854   3.705 -0.1149  0.1696  0.1951
24694W        W41541   1.517  10.140   4.928  0.0373  0.1034  0.2579
24695W        W41542  11.833   3.696   2.624  0.2860  0.0699 -0.0256
24696W        W41543   0.143  10.315   2.281  0.0172  0.0647 -0.0462
24697W        W41544  14.432   4.233   3.391 -0.0821  0.0784  0.0656
24698W        W41545  15.578   1.849  16.717 -0.1488  0.1501  0.1132
24699W        W41546   8.227   9.686   0.438  0.0817 -0.4088 -0.2059
24700W        W41547   3.948   1.081   4.691 -0.0980 -0.0192 -0.2571
24701W        W41548   9.580   1.610   3.167 -0.0118  0.0044  0.1159
24702W        W41549   7.078   9.517   0.876 -0.2498 -0.0465  0.0102
24703W        W41550  12.650   8.565   2.733  0.1038  0.2462  0.1661
24704W        W41551  15.511  16.655  12.749  0.3407  0.1767  0.2069
24705W        W41552   3.632   8.565  12.690  0.2383  0.1706 -0.0102
24706W        W41553  11.858   9.273  15.976  0.0556 -0.2042  0.0098
24707W        W41554   2.383  11.493  12.745 -0.2818 -0.2539 -0.3112
24708W        W41555   4.035  13.925  11.986  0.2830 -0.2351  0.2025
24709W        W41556  12.912   7.459   4.918  0.0234 -0.2903 -0.0619
24710W        W41557   7.253  15.501  16.317  0.2337  0.0042  0.1291
24711W        W41558  13.161  13.591   3.112  0.3039 -0.2592 -0.1186
24712W        W41559  13.463  14.609   0.368 -0.2036  0.0384  0.1370
24713W        W41560   5.127  16.506  15.652 -0.1092 -0.1432 -0.1526
24714W        W41561  11.628  14.709   3.107 -0.1678  0.1355  0.0867
24715W        W41562   6.035   4.625   3.872  0.1158  0.0274  0.0368
24716W        W41563   1.838   2.502   3.244 -0.0105  0.0113  0.0296
24717W        W41564  11.688  15.691  14.123  0.0776  0.1594  0.1991
24718W        W41565  12.897   2.768  15.391 -0.2753  0.0011  0.1341
24719W        W41566  12.576   0.757   2.551 -0.0945 -0.1489 -0.0810
24720W        W41567   0.390   8.377  13.826 -0.1132 -0.0922  0.1849
24721W        W41568  11.909   8.061  14.266 -0.0922 -0.0288  0.0670
24722W        W41569   3.377   9.701   4.563 -0.0018  0.2473  0.0149
24723W        W41570  10.638   2.179  13.506 -0.2632  0.1590  0.1495
24724W        W41571  16.588  14.766   0.538  0.1263 -0.4002  0.2033
24725W        W41572   3.291  12.497  14.031 -0.0593  0.0668 -0.0075
24726W        W41573  16.624  14.139   2.290 -0.2999  0.3118  0.0872
24727W        W41574   1.615  15.576   4.280  0.2458  0.1722 -0.0885
24728W        W41575   2.125  10.396  12.198  0.1049  0.1568  0.2380
24729W        W41576   7.157   3.324  15.639  0.0602  0.0065 -0.0679
24730W        W41577  15.295   7.810   3.785  0.1930 -0.3136 -0.0332
24731W        W41578  15.152   3.880   0.704 -0.2016  0.2622  0.1270
24732W        W41579  10.568  12.216   2.480 -0.1604  0.0539 -0.1711
24733W        W41580   6.804   5.941   1.558 -0.0182  0.1405  0.2034
24734W        W41581   4.550   8.578  14.256 -0.0519  0.1416 -0.0505
24735W        W41582   2.957   6.297  12.109 -0.2413 -0.1547 -0.0658
24736W        W41583  17.373   1.252  13.507 -0.1101 -0.1979 -0.0311
24737W        W41584  11.943   2.764  13.259 -0.1480 -0.1144 -0.3209
24738W        W41585   5.016   1.299  11.943 -0.3956  0.2547  0.2289
24739W        W41586  14.089   4.305   3.751  0.1615  0.2097 -0.2684
24740W        W41587  17.144   2.905  11.566 -0.0829 -0.0476 -0.0528
24741W        W41588  10.354   2.300  14.492 -0.3558 -0.0812 -0.0991
24742W        W41589  12.422  17.396  13.116 -0.0319 -0.0446 -0.0646
24743W        W41590  12.981  10.035  16.567 -0.0061  0.0050 -0.0924
24744W        W41591  16.400  13.072  15.516 -0.3854 -0.2218 -0.1615
24745W        W41592   8.943  15.683   0.864  0.1000  0.1264  0.1509
24746W        W41593   9.978  15.081   3.617  0.1243  0.3944 -0.2032
24747W        W41594  12.380   4.455   0.564  0.1252  0.0263  0.2616
24748W        W41595   3.545   7.100  14.564 -0.1487 -0.0637  0.0259
24749W        W41596  13.279   1.958  15.834  0.2667 -0.2260  0.1372
24750W        W41597  15.152   2.924  14.166  0.1232  0.1228  0.0484
24751W        W41598  17.487   7.574   1.900  0.0632  0.4052  0.0541
24752W        W41599   7.829  11.013   4.890 -0.0407  0.1044  0.0988
24753W        W41600   7.758   4.123   4.926  0.2090 -0.1545  0.0320
24754W        W41601   9.732  17.894   3.654 -0.3991  0.1562  0.1511
24755W        W41602  15.867  10.791  14.776  0.0437  0.2374 -0.3230
24756W        W41603   5.407  15.526  11.306 -0.0746 -0.1503 -0.1072
24757W        W41604  17.613  12.944   5.101  0.0862 -0.5296 -0.0560
24758W        W41605   0.158  16.723   0.928 -0.0031  0.0610 -0.2919
24759W        W41606  11.036  14.332   3.725  0.0772  0.2324 -0.0822
24760W        W41607   9.809  12.523  15.591 -0.1052  0.2327  0.1558
24761W        W41608  17.151   9.655  14.259 -0.1483 -0.2268 -0.1132
24762W        W41609   2.648   9.382  14.127  0.1651  0.2454 -0.1005
24763W        W41610  13.660   3.732  15.911  0.3298  0.0261 -0.1299
24764W        W41611   0.715  10.942   1.661 -0.0790 -0.2498  0.2357
24765W        W41612   0.286   6.118   2.080 -0.1521  0.0991  0.0554
24766W        W41613   9.481  15.411  11.714  0.0266 -0.1173 -0.0723
24767W        W41614  17.675  16.443  12.752 -0.2882 -0.1920  0.2300
24768W        W41615   2.104   4.180   2.612 -0.0715  0.0764  0.3018
24769W        W41616  17.332   7.361   5.010  0.0080  0.1092 -0.1551
24770W        W41617   6.394  16.484   3.048  0.0086 -0.1289 -0.1378
24771W        W41618   1.277   3.588   5.072  0.2034 -0.3740 -0.2125
24772W        W41619  17.772   2.276  15.918  0.0044  0.1903  0.0843
24773W        W41620   2.946   0.463   2.865 -0.0477  0.1427 -0.0011
24774W        W41621   8.735   5.498  12.321  0.1066  0.0236  0.4580
24775W        W41622   0.266  15.834  12.841  0.0216  0.1165  0.0816
24776W        W41623  14.747  11.797   1.172 -0.0157 -0.0581 -0.2166
24777W        W41624   2.637   5.942   4.953 -0.2922  0.2488 -0.2200
24778W        W41625   8.787   1.545   2.379  0.1844 -0.0608 -0.0867
24779W        W41626  15.151   5.143   0.728 -0.0236 -0.1408  0.1836
24780W        W41627  12.357  13.620   5.223  0.1886 -0.0348  0.0044
24781W        W41628   3.805   3.630   4.122 -0.1433  0.3154 -0.0578
24782W        W41629   8.833   3.464   1.985 -0.0002 -0.0161 -0.1439
24783W        W41630  17.638   5.469  14.147  0.0791 -0.0581 -0.1174
24784W        W41631  15.354  16.448   2.557 -0.1819 -0.0621 -0.0947
24785W        W41632  12.554  12.388   2.272  0.1824 -0.0287 -0.1408
24786W        W41633   9.550  15.480  12.267  0.1986  0.0023  0.0573
24787W        W41634  12.997   5.901  15.795 -0.0160 -0.0193 -0.0365
24788W        W41635   2.895   8.781   0.543 -0.0004 -0.1168 -0.2514
24789W        W41636  10.756   7.350   1.301  0.3123  0.0786  0.2472
24790W        W41637  16.104  17.058  11.980  0.1995 -0.1595  0.1123
24791W        W41638   0.819  13.458  13.674 -0.0608 -0.2377 -0.3284
24792W        W41639  13.341  17.945  15.722  0.0214  0.2156 -0.2121
24793W        W41640   7.096   3.089  14.320  0.1266 -0.1707 -0.1855
24794W        W41641  11.066  11.968  15.745 -0.1490 -0.3269  0.1640
24795W        W41642  17.547   2.148  12.152 -0.4642  0.1365 -0.1174
24796W        W41643  14.251   9.228  14.138  0.2591  0.0069 -0.4029
24797W        W41644  12.883   0.051  16.476 -0.0385 -0.0099 -0.1601
24798W        W41645  14.673   9.598  12.576 -0.1004 -0.1109 -0.2251
24799W        W41646   8.663  10.779  14.199  0.2010  0.3511  0.0918
24800W        W41647  16.790   0.600   5.445  0.0219 -0.2523 -0.0437
24801W        W41648   4.999   4.517  14.011 -0.0082  0.1420 -0.1021
24802W        W41649   8.598   7.832  11.926  0.0013  0.1486  0.3580
24803W        W41650  16.123  12.522   4.470  0.1533  0.0070 -0.0883
24804W        W41651  17.506  15.478  15.295 -0.1681  0.2294 -0.0471
24805W        W41652   0.108   4.421  16.741  0.0522 -0.2275 -0.0200
24806W        W41653   4.139  11.643   0.024  0.0456  0.1308  0.0505
24807W        W41654   8.742  10.436  15.692  0.4027  0.0661 -0.2953
24808W        W41655   7.205  10.254  13.335 -0.2167 -0.2681  0.3832
24809W        W41656   4.817   6.874  12.259 -0.1835  0.3545  0.1567
24810W        W41657   9.603  15.093   1.214 -0.2241  0.2530 -0.1922
24811W        W41658   7.481   9.652   0.531 -0.0961 -0.3071 -0.2599
24812W        W41659   1.479  17.493  15.576 -0.3210 -0.1181 -0.0980
24813W        W41660   1.333   4.106  15.977  0.0481  0.0627  0.4295
24814W        W41661   0.672  14.036   0.413 -0.0457 -0.0647  0.0358
24815W        W41662   3.705  12.298   3.920  0.0525  0.0323  0.2277
24816W        W41663  13.716  14.214   1.577 -0.0377  0.2105  0.0719
24817W        W41664  15.632  14.338   4.426 -0.3517  0.0505 -0.2109
24818W        W41665   1.427   2.522  10.218  0.0604 -0.1356 -0.2266
24819W        W41666  15.071   0.333   0.839 -0.1126  0.0719 -0.1929
24820W        W41667  15.154   6.592   5.315 -0.0207  0.0419  0.0394
24821W        W41668  17.362  11.305   1.697  0.0416  0.2134 -0.0375
24822W        W41669   6.723  15.626  14.543  0.3091 -0.1670 -0.1053
24823W        W41670   6.133   7.090   3.834  0.0252  0.2978  0.0194
24824W        W41671  17.545  17.598   5.081  0.1591  0.2423 -0.0529
24825W        W41672   4.615  15.448   4.447 -0.1358 -0.0343 -0.0256
24826W        W41673   9.999  16.644  14.105  0.0375 -0.2753  0.2684
24827W        W41674  13.254   4.795  15.806  0.2215 -0.2243  0.1380
24828W        W41675  11.303   6.582  14.300  0.1093  0.1922  0.0925
24829W        W41676  11.364  16.760   0.693  0.4427 -0.3057 -0.1011
24830W        W41677   4.053  14.904   2.775  0.0789  0.0072 -0.2605
24831W        W41678   7.209   7.303  16.613  0.1786  0.0470  0.1044
24832W        W41679  16.240  16.915   1.210  0.0516  0.1056  0.1813
24833W        W41680  13.602   6.194   2.926 -0.2767  0.1426  0.0440
24834W        W41681   3.535  14.530   0.885  0.0991 -0.0148 -0.4093
24835W        W41682  10.216   9.051  12.196  0.0666  0.2939 -0.3101
24836W        W41683   5.343  15.812  13.947 -0.0848 -0.0645 -0.1143
24837W        W41684  14.981   4.099   4.025 -0.3868 -0.2834  0.2373
24838W        W41685  12.730  12.662   1.220 -0.1561  0.0580  0.0520
24839W        W41686  13.060   0.427  15.564 -0.0944 -0.1422  0.0011
24840W        W41687   9.411   3.865   0.167  0.0297 -0.1027  0.0534
24841W        W41688   3.253  10.736  12.710  0.0687 -0.0617 -0.0452
24842W        W41689   0.098   5.307  15.202 -0.0723  0.1264 -0.2645
24843W        W41690  15.551  13.191   3.033  0.1197  0.0714 -0.3414
24844W        W41691   6.927  15.335   2.796  0.0647  0.1469  0.1056
24845W        W41692   2.795   9.104   1.865  0.0503  0.1415  0.2281
24846W        W41693  14.957  16.719   0.817  0.2981 -0.0200  0.1671
24847W        W41694   9.619   1.229   0.075 -0.0021 -0.2358  0.1265
24848W        W41695  11.605   7.620   1.307 -0.0797  0.1916  0.2106
24849W        W41696   6.726  13.967   3.305 -0.0777 -0.1290  0.0288
24850W        W41697  16.763   3.564   2.126  0.0432 -0.1806  0.2003
24851W        W41698  17.431   1.927  16.782 -0.2675  0.1804 -0.2223
24852W        W41699   4.555  12.191  15.356 -0.2670  0.0430  0.1426
24853W        W41700  14.101   5.315   0.257 -0.3599  0.3332 -0.1758
24854W        W41701  16.815   3.881   3.439  0.0467 -0.0217 -0.1139
24855W        W41702   4.124  12.666   3.413  0.0145  0.0566 -0.1408
24856W        W41703   6.172   6.466  13.836 -0.1134 -0.2154  0.1043
24857W        W41704  16.611  16.427  15.400  0.1252 -0.2719  0.1851
24858W        W41705   3.065   3.132   4.458  0.1802 -0.0624 -0.0838
24859W        W41706  15.681  10.220   3.257 -0.2189 -0.0455 -0.0158
24860W        W41707   4.105   6.019   0.562  0.3546  0.0041 -0.0179
24861W        W41708  11.861   1.055   3.638 -0.1043 -0.2413 -0.2323
24862W        W41709   0.415  14.642   4.506 -0.0233  0.1151 -0.0572
24863W        W41710  13.087  10.129  12.458 -0.0573  0.2169 -0.0262
24864W        W41711  10.829  10.274  14.816 -0.1035  0.2258 -0.1730
24865W        W41712  12.003   2.105  16.293 -0.1602 -0.1641 -0.0856
24866W        W41713   3.793   1.570   4.925 -0.4623  0.0301 -0.0528
24867W        W41714  10.704   0.802   5.105 -0.1264 -0.0324 -0.0914
24868W        W41715   6.223  11.949   1.591  0.0554 -0.1229  0.2335
24869W        W41716   3.631   7.114  15.762 -0.0587  0.0350 -0.1707
24870W        W41717   2.780  14.311   6.286 -0.0723  0.0106  0.1747
24871W        W41718   5.037   2.780  12.173 -0.0856 -0.1625  0.0062
24872W        W41719  16.670  13.729  16.278  0.1802  0.1584  0.0866
24873W        W41720   2.537  14.953  12.465  0.1880  0.1803  0.0860
24874W        W41721  12.111  12.481   3.576 -0.0151  0.0706 -0.2327
24875W        W41722  11.898   4.667   0.594  0.0854  0.0297 -0.1046
24876W        W41723   9.090   6.844  14.095  0.0737 -0.4827 -0.0385
24877W        W41724  15.226   3.995  13.398 -0.0089 -0.0060 -0.0378
24878W        W41725   3.453  11.066  14.793  0.1454  0.2715 -0.0646
24879W        W41726  15.772  10.416   2.120  0.0848 -0.0804  0.0590
24880W        W41727   4.247  17.766  12.101  0.4018  0.1291  0.0139
24881W        W41728  11.958   9.711   0.859 -0.1634 -0.0991 -0.3851
24882W        W41729  15.794   5.493   0.136 -0.0489 -0.0437 -0.2025
24883W        W41730   5.374  17.645  15.984 -0.0399  0.2807  0.2781
24884W        W41731   2.826  11.286  11.803 -0.1285 -0.0116  0.0235
24885W        W41732   9.691   1.545   2.381 -0.0627  0.3157  0.0092
24886W        W41733  10.172  12.708   4.877  0.0351  0.2795 -0.2741
24887W        W41734   4.276   4.511   5.083  0.1012  0.3131  0.1677
24888W        W41735   5.826  16.188   4.271 -0.1930  0.1155 -0.1519
24889W        W41736  15.085   2.498  16.091 -0.1711 -0.0330  0.1142
24890W        W41737  11.553  17.177   5.152 -0.0459 -0.2046 -0.1327
24891W        W41738  10.883   4.032  13.127  0.1455 -0.2581  0.0037
24892W        W41739  15.620   7.174   3.638 -0.2407 -0.1437  0.0915
24893W        W41740   3.997   7.209  12.460 -0.1215 -0.1969 -0.2790
24894W        W41741  15.047   4.312   0.491  0.0320  0.1690  0.0184
24895W        W41742   0.135  12.600  16.493 -0.0419 -0.0045 -0.1011
24896W        W41743   5.419   9.742   1.445  0.1238  0.0722 -0.0028
24897W        W41744  15.315  17.852  11.575  0.0417 -0.0523 -0.2065
24898W        W41745  17.312   4.677  12.397  0.1858  0.0363  0.0848
24899W        W41746   6.515  16.718   0.064 -0.1996 -0.1220  0.1172
24900W        W41747   8.263   7.933   4.006  0.0138 -0.0062  0.1294
24901W        W41748   3.530  14.494   5.018  0.0510 -0.4826 -0.2423
24902W        W41749  12.642   9.331   5.414  0.1123  0.0066 -0.1037
24903W        W41750   3.664   5.148   0.514  0.0717  0.0624  0.0425
24904W        W41751  12.503  17.615   5.011  0.2010 -0.0044 -0.0666
24905W        W41752  14.555   8.092   1.987  0.1598 -0.2558  0.1222
24906W        W41753  16.740   3.480  16.067  0.2303 -0.1119 -0.3150
24907W        W41754  15.727  11.921   1.989  0.0300 -0.2562  0.1156
24908W        W41755   6.738  15.638  15.542 -0.0992  0.7913 -0.0550
24909W        W41756   2.329  16.069  13.901  0.2330 -0.1682 -0.0532
24910W        W41757  11.669  10.531   0.645 -0.1955 -0.1261 -0.2089
24911W        W41758   1.979   2.165  11.393  0.2658 -0.0674 -0.1444
24912W        W41759  16.942  15.726   3.126 -0.1327  0.0596 -0.1599
24913W        W41760   9.987  10.431   4.170 -0.1622 -0.5303 -0.2374
24914W        W41761   5.563   4.076  14.301 -0.1444 -0.2353  0.1288
24915W        W41762   6.623  15.598   1.631  0.0569 -0.1568  0.0187
24916W        W41763  14.914  17.300  11.027 -0.0093  0.2278  0.0749
24917W        W41764  12.730  15.946  12.593  0.0712  0.0415 -0.2593
24918W        W41765   9.880  10.547   4.805  0.0188 -0.2329 -0.4988
24919W        W41766  13.340  10.334  16.242  0.1088 -0.1539 -0.3803
24920W        W41767   7.712  11.292  16.782 -0.3118 -0.1417 -0.0106
24921W        W41768  16.425   1.962   2.040 -0.0647 -0.2833 -0.1154
24922W        W41769   8.510  10.532   3.913 -0.1292  0.1215  0.4736
24923W        W41770  16.022  10.095  12.406 -0.1882  0.0121  0.2696
24924W        W41771  11.401  12.408  12.642 -0.2048  0.1006 -0.0780
24925W        W41772  10.134  11.905   4.353 -0.3659 -0.0663 -0.1790
24926W        W41773  13.474   6.967  16.098 -0.1872 -0.2908  0.2866
24927W        W41774   7.427   4.099  12.424 -0.0003 -0.0204  0.1050
24928W        W41775  10.117   3.351   1.851  0.0298 -0.1119  0.0239
24929W        W41776   9.182   7.806   6.127 -0.1688  0.0184 -0.2332
24930W        W41777   7.912   1.478  15.313  0.1484  0.0938 -0.0796
24931W        W41778  12.695   6.902   5.493 -0.1737 -0.2582  0.0399
24932W        W41779   2.614   6.990   5.019  0.0987  0.1444 -0.1620
24933W        W41780   5.988  11.143   3.578 -0.1164 -0.3001 -0.1969
24934W        W41781   0.483   2.788   3.659 -0.0826  0.0202 -0.1194
24935W        W41782  11.262  14.336   4.824 -0.1811 -0.1850  0.0414
24936W        W41783   9.626   1.039   3.301  0.1304  0.1639 -0.0192
24937W        W41784   1.212   0.076  16.473 -0.3441 -0.0281 -0.1784
24938W        W41785   4.724  15.760  11.892  0.1895 -0.1072 -0.0735
24939W        W41786   8.760   2.734   2.175 -0.2796  0.1932 -0.1120
24940W        W41787   4.342   4.882  14.708 -0.2667  0.0935  0.2010
24941W        W41788  13.464  11.541   5.175 -0.2605  0.1674 -0.0501
24942W        W41789   5.115   6.027   0.275  0.0185  0.0907 -0.1656
24943W        W41790   7.929   8.671   3.774 -0.2333  0.2368 -0.2046
24944W        W41791  12.872   2.809  14.788 -0.2203 -0.0146  0.1821
24945W        W41792   5.083  15.547  15.901 -0.4212 -0.1824  0.2454
24946W        W41793   3.581   0.128  13.830 -0.0620  0.0717  0.0665
24947W        W41794   9.797   7.904  14.513 -0.1358 -0.0449 -0.2593
24948W        W41795   2.074   4.177  15.738 -0.1529 -0.0291 -0.0461
24949W        W41796   2.456   3.510  12.268 -0.2595 -0.0713  0.0328
24950W        W41797   7.128   4.944   5.795 -0.4487 -0.0861  0.0025
24951W        W41798  10.301  16.981   5.146 -0.0051 -0.5296 -0.1269
24952W        W41799  11.394   3.789  15.425  0.3157 -0.1976  0.2766
24953W        W41800  12.447   1.770  13.288 -0.0213 -0.1226 -0.0139
24954W        W41801   3.564  17.534  16.531 -0.2075  0.1643  0.1424
24955W        W41802   0.858   7.880   1.508  0.0003  0.1729 -0.0537
24956W        W41803   3.519  12.783   4.020 -0.0838 -0.2709 -0.0244
24957W        W41804  16.993  10.924   4.431  0.2933 -0.0361  0.3028
24958W        W41805  17.378   7.991  16.625  0.0643  0.0825 -0.1354
24959W        W41806  12.854   8.482   4.522  0.1494  0.0677 -0.0480
24960W        W41807   2.333   7.462  15.902 -0.1699  0.0263 -0.0614
24961W        W41808  12.395  10.931   4.087 -0.0550 -0.2016  0.0301
24962W        W41809   6.600  10.241  14.431  0.1044 -0.0076 -0.3208
24963W        W41810  11.693   7.095   1.193  0.0498 -0.0758 -0.4045
24964W        W41811   8.027  10.707  14.889 -0.0185  0.1089  0.4873
24965W        W41812   8.967  15.113   0.509  0.2143 -0.1464  0.2100
24966W        W41813   0.517   1.554  14.864  0.2092  0.1157 -0.1695
24967W        W41814   6.107   3.618   4.435 -0.0130 -0.3104  0.2044
24968W        W41815   6.892   8.063  12.072 -0.0356  0.3512  0.0513
24969W        W41816   0.679   5.004   1.995 -0.1410 -0.0854 -0.0896
24970W        W41817  12.455  15.082  16.601 -0.0008  0.0684 -0.2259
24971W        W41818   5.581   4.283  16.242 -0.1177 -0.1938  0.1971
24972W        W41819  11.264   4.000  16.220  0.1109 -0.2868 -0.1287
24973W        W41820   0.997  12.802  14.669  0.0018  0.1236 -0.0859
24974W        W41821  16.955   0.505   2.840  0.1310 -0.0943  0.4688
24975W        W41822   6.013   1.454  11.269 -0.0392 -0.0030 -0.0234
24976W        W41823  12.570  13.918   0.430 -0.2526  0.1147 -0.2072
24977W        W41824  10.888  12.862   3.634  0.0733  0.2357  0.0129
24978W        W41825  11.419  11.999  12.352 -0.0081 -0.1328  0.0384
24979W        W41826   4.555   4.322   3.851  0.0146  0.1187 -0.0380
24980W        W41827  13.198   5.883   2.323 -0.0808  0.1208  0.0624
24981W        W41828  11.784   5.978   1.872 -0.0590  0.0702  0.0129
24982W        W41829   5.249  16.749   0.518  0.3043  0.0079 -0.1893
24983W        W41830   0.367  13.092  14.858 -0.1216 -0.3236 -0.2017
24984W        W41831   8.509  16.915   3.620 -0.0931 -0.0396 -0.1336
24985W        W41832  15.382   4.334  15.536 -0.0435  0.0767  0.3549
24986W        W41833   9.786  11.845  14.070  0.3740  0.1008  0.1725
24987W        W41834  15.545  16.864   2.723 -0.2634  0.1226  0.0324
24988W        W41835   3.623   7.670   5.241 -0.0490 -0.0537 -0.1523
24989W        W41836  13.743  14.073  16.595 -0.1251  0.0981 -0.1678
24990W        W41837  15.618  16.986  11.733  0.3214 -0.0977  0.0834
24991W        W41838  16.553   5.983  15.266  0.2351  0.1447 -0.1138
24992W        W41839   9.634   5.332   5.800 -0.2400  0.0155 -0.1245
24993W        W41840   4.571   3.662  12.448  0.0138  0.3021  0.1150
24994W        W41841   4.625   4.077   5.779 -0.0110  0.3619 -0.0147
24995W        W41842   6.638  17.922  10.966  0.2729  0.0460  0.1162
24996W        W41843   8.798   4.532  11.768  0.1049 -0.1866 -0.0168
24997W        W41844  12.064   2.462   0.942 -0.0039 -0.0502  0.2116
24998W        W41845  11.428   3.952   0.466 -0.0060  0.0323 -0.3736
24999W        W41846   7.973   9.185  15.036  0.0655  0.2206 -0.0018
25000W        W41847  16.134   1.059  15.969 -0.0975  0.1320 -0.0080
25001W        W41848  15.826  13.810   0.434 -0.0555 -0.0209  0.0623
25002W        W41849  17.450   3.056   3.935  0.3704  0.2363  0.0925
25003W        W41850  17.514  14.957  14.038  0.1991  0.0421  0.0167
25004W        W41851  16.096  13.250   0.392 -0.2904 -0.0970 -0.1526
25005W        W41852  11.561  10.686   6.053 -0.0798 -0.2396  0.1281
25006W        W41853   3.541   3.638  14.615  0.0696 -0.1668 -0.2159
25007W        W41854   5.967   4.220   1.006  0.0702  0.3113 -0.0197
25008W        W41855  17.767  17.257  16.703 -0.0934 -0.0377 -0.1379
25009W        W41856  12.195   1.446   1.611 -0.0621 -0.3062  0.3287
25010W        W41857   1.441   3.724  12.125 -0.1516 -0.2221  0.2194
25011W        W41858   4.495   1.342  16.562 -0.2199 -0.0228  0.0931
25012W        W41859   1.926  16.845   3.394 -0.0305  0.4946 -0.1350
25013W        W41860   2.603   4.864   0.275  0.1800 -0.1692  0.1352
25014W        W41861   0.295   7.196  11.109 -0.0959 -0.0765  0.0498
25015W        W41862   8.781   9.060  15.841  0.0780 -0.0377  0.1430
25016W        W41863  12.913   7.423   2.700  0.2460 -0.1514 -0.0310
25017W        W41864   0.448  16.279  13.242 -0.3213 -0.2550  0.0467
25018W        W41865  15.776   7.758   3.698  0.1537  0.1803 -0.0441
25019W        W41866   1.974   9.365   1.306  0.1416 -0.0503  0.1755
25020W        W41867  12.307  11.507   0.150  0.2057  0.0618 -0.0838
25021W        W41868  16.207  10.217   3.258  0.0604  0.0540 -0.1403
25022W        W41869   5.194   8.725  14.192 -0.1388  0.0882 -0.0303
25023W        W41870   1.227   0.851   0.167  0.2644  0.0002  0.1250
25024W        W41871  10.346  17.157   4.055  0.0816 -0.0680  0.0602
25025W        W41872  14.462   7.570  13.529  0.0883  0.4080 -0.2555
25026W        W41873  11.852  16.670  12.124  0.0602 -0.0636 -0.1704
25027W        W41874   9.862   3.154  12.299  0.2112 -0.0582  0.2021
25028W        W41875   5.439   6.420   0.233 -0.1722 -0.0678  0.0975
25029W        W41876  10.591   2.538   0.138  0.0478  0.0238 -0.1556
25030W        W41877   8.735  16.031  14.432  0.1202  0.1527 -0.1660
25031W        W41878  11.027  10.045  11.502  0.1027 -0.0073 -0.0059
25032W        W41879  16.284   3.970   3.528  0.0998  0.0660  0.0141
25033W        W41880   2.402   9.522  11.795 -0.1069  0.1690 -0.2625
25034W        W41881  12.850  10.056   0.745  0.4622  0.1505 -0.2212
25035W        W41882   0.404  13.307   4.794  0.2599  0.1192  0.1871
25036W        W41883  15.526   3.628   5.300  0.2535 -0.1118 -0.3316
25037W        W41884   6.851  17.727  11.526  0.1108  0.1194  0.0151
25038W        W41885   0.536  15.375  14.140  0.0858 -0.0590 -0.1146
25039W        W41886   6.754  11.479   2.006 -0.0014 -0.1296  0.0642
25040W        W41887   7.860  13.127  15.432  0.2353  0.0458 -0.0469
25041W        W41888  16.332   2.357   3.491 -0.0802 -0.0843 -0.1858
25042W        W41889   6.679   8.218  12.602 -0.2374 -0.2020  0.0597
25043W        W41890   6.687   4.376   2.433  0.1509 -0.3137  0.1481
25044W        W41891  14.748  13.770   4.002  0.2729 -0.1056  0.0254
25045W        W41892   4.295   0.773   3.273  0.4884  0.0119 -0.3665
25046W        W41893   8.284  13.431  16.751 -0.0298 -0.3567  0.4522
25047W        W41894   3.835   8.095   4.202 -0.7363 -0.1760 -0.1188
25048W        W41895  10.820  14.158  13.536  0.0796 -0.0859  0.0599
25049W        W41896  16.124   6.881   1.926 -0.0573  0.2094 -0.1216
25050W        W41897   6.099  12.769   4.171 -0.1100  0.2619  0.1063
25051W        W41898   9.474   4.376   0.019 -0.0179  0.2521 -0.1711
25052W        W41899  12.562   0.710   5.977  0.0612  0.1542 -0.0064
25053W        W41900  12.843   4.496  15.812 -0.0589 -0.0069  0.0830
25054W        W41901  15.043   1.456  15.390 -0.3848 -0.2038  0.0699
25055W        W41902  10.238   2.254   2.990 -0.2166  0.3703  0.1806
25056W        W41903  10.437  16.364  13.890 -0.0371 -0.0454  0.3419
25057W        W41904   7.622  12.413  14.899 -0.0678 -0.2985 -0.1896
25058W        W41905  10.076   4.269  14.271  0.4504  0.2306 -0.2348
25059W        W41906  15.750  15.438   5.793 -0.0427 -0.0903 -0.1275
25060W        W41907  11.692  12.092   0.678 -0.0428 -0.1018  0.2300
25061W        W41908   1.657   2.064   1.525 -0.0817 -0.1726 -0.2669
25062W        W41909   4.981  15.450  14.098  0.1649 -0.2998 -0.1559
25063W        W41910  14.724   0.739  14.016 -0.0305 -0.2694  0.4002
25064W        W41911  12.218   6.633  15.219 -0.3047 -0.2065  0.1319
25065W        W41912  13.794   5.741  15.149 -0.0074  0.1003  0.1392
25066W        W41913   2.034  13.737  15.654  0.2035  0.1019 -0.0054
25067W        W41914   9.750  13.941   5.374 -0.0228 -0.3578 -0.1723
25068W        W41915   2.763   6.490  14.920 -0.1956  0.0878 -0.2795
25069W        W41916   4.056  12.840   5.037 -0.1985  0.0302  0.2123
25070W        W41917  17.815  12.029  11.678 -0.1854  0.1060 -0.1285
25071W        W41918  13.773   5.852  12.217 -0.0178 -0.1483  0.1548
25072W        W41919   9.107  15.273  11.383 -0.2749 -0.1375 -0.0400
25073W        W41920  11.921   5.957  15.914  0.0848 -0.0429  0.3452
25074W        W41921   7.993  10.568   2.415 -0.0415  0.1646 -0.1828
25075W        W41922   6.538  15.437  13.137  0.0212 -0.0079 -0.0348
25076W        W41923   2.277  12.316  14.880 -0.0727 -0.0281  0.3251
25077W        W41924   6.054  16.501   5.396  0.4318  0.0661 -0.2931
25078W        W41925  10.042   5.791  12.599  0.1967  0.2575 -0.1386
25079W        W41926   0.858  14.784   3.575 -0.0162  0.2008  0.0923
25080W        W41927  16.183  15.378  15.754  0.0359  0.0215  0.2319
25081W        W41928   1.071  11.490  12.229 -0.2005 -0.2059  0.2105
25082W        W41929   3.425   3.507  11.848  0.0558  0.1488 -0.2520
25083W        W41930   0.737   8.907   1.884 -0.1440 -0.1524 -0.1814
25084W        W41931   0.807   3.368   5.871  0.0573 -0.0640  0.2794
25085W        W41932   0.378   2.615   5.851 -0.1813 -0.0135  0.1120
25086W        W41933   2.404   6.486   3.658 -0.0161 -0.0150 -0.3551
25087W        W41934   0.307  14.907   1.458  0.0599  0.0167  0.1043
25088W        W41935   0.430  16.894   2.959 -0.0340 -0.2081  0.1359
25089W        W41936   1.045   7.422  16.067  0.0504 -0.2957  0.0922
25090W        W41937  13.799  10.503   0.592 -0.0663  0.1627 -0.5593
25091W        W41938  10.779   7.716   4.543  0.1573  0.1542 -0.2808
25092W        W41939   3.934  16.766  14.387  0.1776  0.1231  0.0372
25093W        W41940   4.136   2.011  14.393  0.0958  0.1099  0.1695
25094W        W41941  13.491   7.303  12.189  0.1981  0.1298  0.0330
25095W        W41942  14.908   8.351   5.571 -0.0839  0.2528  0.2018
25096W        W41943  17.462  15.249   5.680  0.2978 -0.3332 -0.3638
25097W        W41944  10.724  16.312   4.708 -0.1317  0.2245  0.1821
25098W        W41945  17.697   3.076  15.887 -0.1547 -0.0188  0.0686
25099W        W41946  10.569  14.147  16.462  0.4486  0.1076 -0.0505
25100W        W41947   3.945   2.922  16.534 -0.3862 -0.1233  0.0096
25101W        W41948  17.675   2.776  13.401 -0.0401 -0.0973  0.0132
25102W        W41949  16.661  12.003   5.086  0.0532 -0.1004 -0.1062
25103W        W41950   4.071  10.462   0.606 -0.1225  0.3920 -0.2008
25104W        W41951   1.778  12.044   0.293  0.0900 -0.3282  0.0975
25105W        W41952  14.213   5.565  14.949 -0.3868  0.3100 -0.0827
25106W        W41953  11.846   6.571   1.000  0.0856 -0.0257 -0.0327
25107W        W41954  11.210  10.985   1.824  0.1443 -0.4297 -0.2759
25108W        W41955   5.634   5.662  16.514 -0.0773 -0.0025  0.0971
25109W        W41956  14.946   9.708   3.294  0.2499  0.0437 -0.1827
25110W        W41957   8.759  15.486  12.788  0.1693 -0.1017 -0.2364
25111W        W41958  15.446  16.689  12.105  0.0219  0.2389 -0.2052
25112W        W41959  15.259  15.569   3.947 -0.1063  0.1808 -0.1607
25113W        W41960   5.279   6.125   5.304 -0.0108 -0.0386 -0.1460
25114W        W41961   1.068  14.315  13.232 -0.3367 -0.0145 -0.2128
25115W        W41962   1.173  15.021  12.243  0.0176  0.0086 -0.1578
25116W        W41963  12.643  13.584   6.327 -0.2437  0.1407  0.1521
25117W        W41964   3.518  11.025   0.787  0.0184 -0.1625 -0.2053
25118W        W41965   2.006  10.001  14.109  0.1355 -0.0075 -0.2669
25119W        W41966   9.669  17.371  11.508  0.1885  0.1519 -0.2567
25120W        W41967  13.485   2.684   0.276 -0.1414  0.2706  0.1529
25121W        W41968   6.642   5.515  12.365 -0.1818  0.2636 -0.0932
25122W        W41969   4.254   4.420   4.275 -0.3332 -0.0155  0.2513
25123W        W41970   2.558   6.690  15.695 -0.1423  0.1020 -0.3098
25124W        W41971   3.363  12.275   4.927 -0.0653  0.0597  0.3971
25125W        W41972  13.881  13.728   1.759  0.1062  0.3440  0.0705
25126W        W41973   3.418   2.132  11.687 -0.0101 -0.2191  0.4185
25127W        W41974   1.627  10.817   2.163 -0.2891  0.0164 -0.1268
25128W        W41975   7.470  11.916  15.690  0.1331  0.1697 -0.1669
25129W        W41976   6.190  15.370  11.548  0.1155  0.0699  0.2908
25130W        W41977   6.507  12.958   3.949 -0.1401  0.0774  0.4288
25131W        W41978   5.367  15.004   1.574 -0.0596  0.1867 -0.2273
25132W        W41979   7.037   7.914   3.977 -0.1442  0.0714  0.2396
25133W        W41980   4.345   3.619  15.556 -0.0793 -0.1158  0.0621
25134W        W41981   4.881  17.237  14.136 -0.1528 -0.0078 -0.3761
25135W        W41982   4.314   1.004  14.910 -0.0166  0.0160 -0.0373
25136W        W41983   2.077   8.145  15.368  0.3887 -0.0729  0.1658
25137W        W41984   1.708   0.600   5.128 -0.0336  0.1095 -0.0570
25138W        W41985  13.068  10.145  13.826  0.0759 -0.0749 -0.0924
25139W        W41986  11.161   0.658   1.195 -0.1168 -0.0687  0.0798
25140W        W41987   3.976  15.886   1.249 -0.2396  0.1250 -0.2186
25141W        W41988   2.637  11.230  14.487  0.0592  0.0993  0.1390
25142W        W41989   2.976   4.301   3.197  0.2469 -0.1389 -0.0697
25143W        W41990   8.909   0.372  11.016  0.1717 -0.0083 -0.0257
25144W        W41991   1.039  11.363   0.120  0.1537  0.1381  0.3766
25145W        W41992   5.744  13.227  12.720 -0.0260 -0.3051  0.2587
25146W        W41993  17.165  12.588  16.789  0.1147  0.0452  0.0643
25147W        W41994   5.466  11.113   3.414  0.3241  0.2489  0.2667
25148W        W41995   0.584  10.719  13.403  0.3366  0.0231 -0.2738
25149W        W41996   7.021   7.250   5.089  0.0998  0.3032 -0.1898
25150W        W41997  10.755  13.929   4.214  0.0702 -0.0535 -0.1092
25151W        W41998  17.269  15.510  14.820  0.0011 -0.1304 -0.2435
25152W        W41999  12.042  17.215   5.222  0.1851 -0.0857 -0.3202
25153W        W42000  11.387   4.255  15.187  0.0394  0.0323  0.1794
25154W        W42001   5.516  17.110   1.411  0.2765 -0.2538  0.2051
25155W        W42002   2.510  13.785   0.376  0.0247 -0.0996 -0.0177
25156W        W42003   3.620   2.688  13.397 -0.0618  0.0501 -0.0712
25157W        W42004   7.425  15.456   1.993  0.0212 -0.0690  0.4180
25158W        W42005  11.411  10.423   2.507 -0.1711  0.0788  0.0188
25159W        W42006  16.644   0.076   6.229 -0.1206  0.0108 -0.2003
25160W        W42007   1.143  10.867  14.826 -0.2135  0.2092 -0.0408
25161W        W42008   7.542   5.044  14.069  0.1189 -0.2229  0.1673
25162W        W42009   0.414  14.641   3.461  0.1680  0.0536 -0.0334
25163W        W42010  11.539   7.542   4.557 -0.1627  0.2019 -0.0784
25164W        W42011   0.568  10.443  16.630 -0.1287 -0.0262 -0.0414
25165W        W42012   3.540   5.590   2.752  0.0532  0.2028  0.2874
25166W        W42013   4.277   8.374   5.464  0.0051 -0.1826  0.1042
25167W        W42014  11.609   8.049  11.947  0.1408  0.0195  0.2833
25168W        W42015   2.551   3.854   3.012  0.0783 -0.0208  0.0715
25169W        W42016  15.452   3.284  10.393 -0.2630 -0.2200 -0.1440
25170W        W42017   0.365  16.657  14.879 -0.1226  0.0180  0.1799
25171W        W42018   3.784   1.894  16.636  0.0756 -0.0965 -0.0621
25172W        W42019   5.747   7.005   0.452  0.0544  0.1673  0.1427
25173W        W42020   3.366   1.344   3.492  0.1130 -0.0778 -0.0057
25174W        W42021   3.840   8.728  12.238  0.2879 -0.2680  0.0460
25175W        W42022   5.292  11.374  14.296  0.0477 -0.1371  0.1700
25176W        W42023  11.308   5.614  16.365 -0.1877 -0.1811 -0.0333
25177W        W42024   6.597  10.773   0.746  0.1217 -0.4232  0.1172
25178W        W42025   0.038  17.419   4.328  0.1788 -0.2337  0.0333
25179W        W42026  16.328   8.802   0.292 -0.0907 -0.0858 -0.2724
25180W        W42027  10.929   8.364  14.448  0.0617 -0.1492 -0.1428
25181W        W42028   1.332  13.270   3.036 -0.1791  0.0162 -0.2638
25182W        W42029  14.519  10.347  14.420 -0.2898  0.0514 -0.2241
25183W        W42030   2.404   9.946  12.163  0.3565 -0.1048 -0.4612
25184W        W42031  11.372   3.856   4.501 -0.2281  0.2481  0.1951
25185W        W42032   1.522  16.366  13.435 -0.2572  0.1602 -0.1803
25186W        W42033   4.806  14.702   3.391  0.4029 -0.0769 -0.2589
25187W        W42034   5.730   4.283   0.538  0.0286 -0.1551 -0.3838
25188W        W42035  16.512   6.163  13.588  0.3656  0.0677 -0.1892
25189W        W42036   3.095  17.027  13.789  0.0881  0.0221 -0.1544
25190W        W42037   7.210   9.191  13.873  0.1352 -0.0250 -0.0361
25191W        W42038   2.542   6.064  11.436 -0.2794  0.2397  0.2426
25192W        W42039  12.641  15.893  14.559 -0.3175 -0.0592 -0.1418
25193W        W42040   1.552   6.535   0.678  0.3274 -0.4172  0.0488
25194W        W42041  14.621   7.165   2.411 -0.1555 -0.1844 -0.1526
25195W        W42042   5.351   6.657   4.241  0.0734 -0.3061 -0.3423
25196W        W42043   8.750   2.344  14.664 -0.0598 -0.3178  0.2307
25197W        W42044   2.091   5.031  16.714  0.0577  0.2339 -0.1994
25198W        W42045   1.437   1.291   5.640  0.1209  0.3706 -0.1865
25199W        W42046  16.258  17.443   3.952 -0.2401 -0.2220  0.3543
25200W        W42047   3.608   3.315  16.670  0.2976 -0.1746 -0.1461
25201W        W42048  16.224  14.603  14.584 -0.2528 -0.0211 -0.0215
25202W        W42049   9.504   8.879   4.937  0.0183 -0.2431 -0.2963
25203W        W42050   2.853   6.390  12.582 -0.0535  0.2488 -0.0604
25204W        W42051   4.063  11.683  14.213  0.3557 -0.0056  0.1197
25205W        W42052   9.211   6.114   3.335 -0.2100  0.0257 -0.3171
25206W        W42053  13.768   9.740  14.145 -0.0604 -0.2141  0.1718
25207W        W42054  14.698  17.757  12.904  0.1717 -0.0742  0.0032
25208W        W42055   2.178  17.583   2.705 -0.1584 -0.0938 -0.2329
25209W        W42056   8.033   3.625  14.894 -0.1018  0.0315  0.0538
25210W        W42057  10.235   1.737   4.849 -0.1718 -0.1620 -0.1520
25211W        W42058   0.735   8.549   3.653 -0.0411 -0.1486 -0.0229
25212W        W42059   4.882   9.426  12.699 -0.0172  0.0319 -0.1543
25213W        W42060   5.664  12.687  13.088  0.1634 -0.0908 -0.2892
25214W        W42061   7.239  12.006   3.956  0.0267 -0.1128 -0.1515
25215W        W42062   6.824  15.035  12.229 -0.1789 -0.0372 -0.1021
25216W        W42063  15.254   2.755  13.592 -0.0378 -0.4158  0.1385
25217W        W42064   7.633  11.470   3.334  0.2032  0.2333 -0.1996
25218W        W42065   8.706   4.160   3.230 -0.3476  0.3090  0.0531
25219W        W42066  16.853   3.945   5.383 -0.0166  0.1664 -0.2565
25220W        W42067  16.453   3.103   0.134  0.1391 -0.2422  0.2471
25221W        W42068   0.542   7.200   0.966 -0.1293  0.3502  0.1991
25222W        W42069  15.111   8.800  12.535  0.4005 -0.4451 -0.0311
25223W        W42070   4.924   1.730  13.358 -0.0682 -0.2536 -0.0577
25224W        W42071   2.427  13.516   3.771 -0.0549  0.0446  0.3568
25225W        W42072  12.857  13.941   0.018  0.0252  0.0586 -0.2143
25226W        W42073   5.172   3.425   6.540  0.2398 -0.1645  0.1151
25227W        W42074  15.992   4.075   0.827  0.0542  0.1461 -0.0221
25228W        W42075  15.115   4.492   3.780 -0.4834 -0.1100  0.3532
25229W        W42076   2.705  16.546  16.050 -0.3439 -0.2032 -0.1908
25230W        W42077   8.075  10.368   0.903 -0.0015 -0.1496  0.2945
25231W        W42078   7.048  14.146  14.953 -0.1244 -0.3554 -0.0855
25232W        W42079  11.087   8.878  16.754 -0.0396  0.0996  0.1542
25233W        W42080   3.517  17.608  13.013 -0.0670 -0.0293 -0.1528
25234W        W42081  15.121   5.654  16.258  0.1824  0.1805 -0.2968
25235W        W42082   3.657   4.378   4.275 -0.1375  0.3404 -0.1098
25236W        W42083   1.508   9.920  12.603 -0.2755 -0.4346  0.0486
25237W        W42084   7.637  10.006   4.959 -0.0372 -0.2977 -0.5600
25238W        W42085  14.152   7.834   4.947  0.0868 -0.1954  0.0128
25239W        W42086   6.033  10.920  13.915  0.0957  0.1713 -0.0331
25240W        W42087  11.666   0.517   3.666 -0.0684  0.2027  0.0037
25241W        W42088   6.328  11.802  15.885 -0.5372 -0.0702  0.2787
25242W        W42089   1.070   9.805   0.922 -0.2550  0.1485 -0.0917
25243W        W42090   0.808  12.374   5.635  0.1796  0.1660 -0.0803
25244W        W42091  16.924  17.136   2.763  0.0511 -0.1309 -0.0670
25245W        W42092  13.481  15.793  11.652  0.1117  0.0983 -0.2709
25246W        W42093   4.580  14.112  16.724  0.2683  0.1205 -0.0239
25247W        W42094  17.668  16.301   3.402  0.0357 -0.2042 -0.0702
25248W        W42095  10.502   9.987  14.070 -0.0747  0.2764 -0.1713
25249W        W42096  10.262   7.138   0.785 -0.0773 -0.3143  0.0654
25250W        W42097   0.108  16.342  12.341 -0.3243  0.2537  0.1156
25251W        W42098   0.539   1.040   0.387  0.0335 -0.5410  0.2689
25252W        W42099   5.773  17.679   0.882 -0.1724  0.0638 -0.1144
25253W        W42100   4.717   0.709  15.641 -0.0877  0.1656 -0.1362
25254W        W42101   1.095   5.179   3.544 -0.3816 -0.1517 -0.0350
25255W        W42102   5.692   5.130  15.535 -0.1461 -0.1752  0.1354
25256W        W42103  10.309  14.673  14.233  0.1669 -0.0220 -0.1218
25257W        W42104   0.815   0.414   2.512  0.1452 -0.0364 -0.4107
25258W        W42105   0.358  17.526  15.442  0.0439 -0.0744 -0.2211
25259W        W42106   2.101   0.380   2.702  0.4773 -0.3256  0.3353
25260W        W42107  11.560   6.929   3.541 -0.0488 -0.2239 -0.3603
25261W        W42108  10.663  13.703  15.513 -0.1098 -0.2982 -0.0131
25262W        W42109  14.394  11.087   2.807 -0.3656 -0.1228 -0.1384
25263W        W42110   3.349   4.588   3.958  0.1061  0.3205  0.0134
25264W        W42111   0.569   2.472  13.046  0.0890  0.0116  0.3284
25265W        W42112  11.429   6.070   2.873 -0.2463  0.0351  0.0324
25266W        W42113   7.220  17.850  15.592 -0.0544  0.1671  0.1290
25267W        W42114  14.313  11.899   3.370 -0.0435 -0.3534 -0.1990
25268W        W42115   5.736  17.697   4.561 -0.4178 -0.1304 -0.0358
25269W        W42116   1.301   5.523   0.674 -0.0629  0.2754 -0.1777
25270W        W42117  12.938   1.736  13.279 -0.0066  0.2429 -0.0546
25271W        W42118   8.964  12.696   1.730 -0.4053 -0.2509  0.0353
25272W        W42119  11.711  15.274  13.434 -0.0370  0.0304  0.0151
25273W        W42120   4.295  17.560  13.411  0.2312 -0.0132 -0.0819
25274W        W42121   1.712   8.760   1.130 -0.2114  0.1837 -0.0940
25275W        W42122  17.695   2.814  12.131 -0.0690  0.0475 -0.1409
25276W        W42123  17.126   0.730   1.431  0.1074  0.0647  0.1476
25277W        W42124   5.496  11.953   3.961  0.1299  0.2228 -0.0611
25278W        W42125  13.904  12.148  13.173  0.2453  0.0406  0.0237
25279W        W42126   9.358   0.029   0.681 -0.0633 -0.2266  0.1042
25280W        W42127  11.928   0.325   2.278  0.0326  0.2287 -0.1944
25281W        W42128   0.050   2.699  16.101 -0.0510 -0.0109  0.1851
25282W        W42129   0.834   3.686   1.454 -0.0915 -0.2295 -0.0214
25283W        W42130   2.981   6.652  13.019  0.0066 -0.0727 -0.0261
25284W        W42131   3.282  14.993   5.036 -0.0214  0.2011  0.0600
25285W        W42132  12.143  11.411  12.608 -0.0322  0.1961 -0.0740
25286W        W42133  14.247   9.568  15.479  0.2611  0.0131 -0.1608
25287W        W42134   0.953  13.406   3.299  0.3602 -0.1292  0.0176
25288W        W42135   7.783  17.196  10.649 -0.0033 -0.2500 -0.0089
25289W        W42136   1.029  12.543   4.348 -0.5139  0.0750 -0.0755
25290W        W42137   3.807   9.952   1.847 -0.0825  0.1337  0.1740
25291W        W42138  13.837   7.196   4.548  0.1468 -0.0571  0.0344
25292W        W42139  14.917   3.689  13.612 -0.1861  0.1408  0.1702
25293W        W42140   1.431  10.437   0.467 -0.1165  0.1975  0.1121
25294W        W42141  15.591   1.682   3.129 -0.1361  0.0914 -0.0935
25295W        W42142   4.317  11.520   3.884  0.2396  0.2437  0.1083
25296W        W42143   1.167  10.808   0.798  0.1921  0.0237  0.1295
25297W        W42144  15.783   2.850  11.213  0.0967  0.0673 -0.1795
25298W        W42145   6.674   8.448  14.091  0.0889 -0.2244  0.3641
25299W        W42146  11.507  13.983   2.158 -0.1413  0.0114 -0.0679
25300W        W42147  14.466   4.971   3.113  0.2382  0.0936 -0.1451
25301W        W42148   6.322   1.114   2.198 -0.0900 -0.2346 -0.2057
25302W        W42149   1.414  12.192   3.811 -0.1001  0.1024 -0.0122
25303W        W42150   0.748   0.803  11.959  0.5750 -0.1140 -0.0888
25304W        W42151   6.157  11.444  13.979  0.0714 -0.1565 -0.0470
25305W        W42152   5.311   3.214   1.352 -0.1295  0.0703 -0.0947
25306W        W42153  14.845   5.934   0.864 -0.2435 -0.0530 -0.0097
25307W        W42154  17.260   8.713   1.705 -0.1974  0.0352  0.1637
25308W        W42155  16.142   2.499  13.131 -0.3934 -0.1767  0.0034
25309W        W42156  12.231   6.898   2.290  0.0805 -0.3872 -0.3037
25310W        W42157  11.534   7.592   5.720  0.1706  0.2239 -0.2076
25311W        W42158   3.468  10.091  14.594  0.1741  0.0577 -0.1072
25312W        W42159   0.469   8.913  14.141 -0.3276 -0.3509 -0.1332
25313W        W42160   8.547   1.560  12.521 -0.0802  0.1694  0.0209
25314W        W42161  14.235   6.598   1.093  0.1127  0.0720  0.0105
25315W        W42162   1.612  11.611  15.742 -0.0809  0.0432 -0.1284
25316W        W42163   4.730  12.433   5.379 -0.0052 -0.0456 -0.0449
25317W        W42164   1.866   6.281  15.260  0.0492  0.1356  0.4851
25318W        W42165   9.513   5.864  11.836  0.2926 -0.2584 -0.1220
25319W        W42166  17.204  17.751  11.935  0.0925 -0.3288 -0.2415
25320W        W42167   5.187  13.049  16.042 -0.1620 -0.0594  0.2054
25321W        W42168   5.308   7.808  13.272  0.0921  0.0947 -0.0718
25322W        W42169   5.297   5.936  16.139  0.2463  0.0757 -0.0409
25323W        W42170   4.193  15.178   0.216 -0.0147  0.0880  0.3323
25324W        W42171  10.672   7.159  15.193 -0.0733 -0.0921  0.1198
25325W        W42172  11.740  17.510  16.397  0.3009 -0.1335 -0.1383
25326W        W42173   4.844   4.935   1.050  0.1556 -0.0310  0.1353
25327W        W42174   5.112   0.851   1.831 -0.2216 -0.3034  0.0146
25328W        W42175   4.615  10.366  14.351 -0.1946  0.3032 -0.0105
25329W        W42176  14.952   6.881   3.083 -0.0375 -0.0057 -0.0394
25330W        W42177   8.605  14.547  11.892  0.1022  0.4519  0.2997
25331W        W42178  17.124   4.842   3.848  0.0696  0.0027 -0.1495
25332W        W42179  12.973  15.185   1.492 -0.3250  0.0963  0.1780
25333W        W42180  12.922  14.359  14.581 -0.1803  0.0069 -0.1489
25334W        W42181   7.542   7.119   5.312  0.0949 -0.2413 -0.0688
25335W        W42182  14.961  12.845   6.089  0.2603  0.1069  0.0765
25336W        W42183  15.040   1.587   2.428  0.0641  0.1662 -0.0799
25337W        W42184   3.265  14.790  14.521  0.0639  0.0066 -0.2435
25338W        W42185   3.564   8.411   2.972 -0.1326  0.1568 -0.2010
25339W        W42186   0.280  16.505   2.056 -0.0120 -0.2250 -0.1125
25340W        W42187  11.643  16.116   2.422 -0.0648 -0.1264 -0.0183
25341W        W42188   4.008   6.991  14.647  0.1553 -0.0126 -0.1151
25342W        W42189   1.656  13.325   1.552  0.2164 -0.4819 -0.0918
25343W        W42190  13.335   8.203  11.557  0.2061  0.3051  0.2284
25344W        W42191  16.185   6.266   0.088 -0.1956 -0.3336  0.0203
25345W        W42192  12.454  14.937   0.275  0.0924 -0.2660  0.1606
25346W        W42193   5.525  13.001   5.708  0.1610  0.0142  0.1027
25347W        W42194   2.396   6.872   2.915 -0.1082  0.1059  0.1020
25348W        W42195   3.371  13.836  14.638  0.3347  0.0318 -0.1127
25349W        W42196   3.837   0.473  15.404  0.1431  0.0856  0.4067
25350W        W42197   4.948  13.159   5.316 -0.1625 -0.0089  0.6079
25351W        W42198  11.450  11.294  14.521 -0.0288  0.1073 -0.3796
25352W        W42199  17.687   1.276   0.290  0.1781 -0.0923 -0.1042
25353W        W42200   2.933   9.762  13.855 -0.3307 -0.1662 -0.1918
25354W        W42201  12.216   2.219  15.318  0.1432 -0.0523 -0.1899
25355W        W42202  14.577  12.397  14.806  0.0747  0.0461 -0.0107
25356W        W42203  12.871  11.054   4.055 -0.1868 -0.1928 -0.5154
25357W        W42204  12.819  17.015  16.155  0.1858 -0.3430  0.0303
25358W        W42205   5.277  13.382   2.931  0.1868  0.1346 -0.0753
25359W        W42206  12.481   0.055   4.709 -0.0354 -0.0987 -0.2115
25360W        W42207   6.532   5.860  13.396  0.3718  0.1245 -0.0936
25361W        W42208  12.798   2.854   4.026  0.0817  0.0301 -0.3583
25362W        W42209   4.350   8.646  15.290 -0.2795 -0.1088 -0.0027
25363W        W42210  13.174   0.605   3.604  0.3956  0.1898  0.0917
25364W        W42211  15.827  14.998  14.775  0.0211  0.2260 -0.1363
25365W        W42212  10.131  11.091   3.366 -0.2676 -0.2364  0.0555
25366W        W42213   7.565  12.034  13.485  0.0831  0.1677 -0.2608
25367W        W42214  13.659  14.668  11.809  0.0744  0.2833 -0.1457
25368W        W42215   5.579  17.258  11.620 -0.1767 -0.1403 -0.0521
25369W        W42216   6.883   1.649  16.401 -0.1089  0.0144 -0.1323
25370W        W42217   1.738   6.474   1.818  0.2158 -0.0117  0.0036
25371W        W42218   3.125   3.183   0.698  0.0904 -0.0075 -0.0197
25372W        W42219  15.701   4.700  11.479  0.0873 -0.2298  0.1955
25373W        W42220  11.536   4.112  12.393 -0.0133 -0.1173  0.1075
25374W        W42221   1.145   0.257   2.977 -0.1704  0.5193 -0.1016
25375W        W42222  11.924   1.067   1.319 -0.3011 -0.0963  0.0621
25376W        W42223  14.210  16.283   2.594 -0.0144  0.1398 -0.4613
25377W        W42224  11.444   5.985  16.094 -0.1869  0.0662 -0.0267
25378W        W42225   2.796   2.351  11.981 -0.0008 -0.0123  0.1219
25379W        W42226   5.401   9.075   0.534 -0.3977  0.0711  0.0403
25380W        W42227  10.892  17.656  11.353  0.1210 -0.0630  0.1219
25381W        W42228   5.473  17.311  13.898 -0.0117  0.0102  0.1515
25382W        W42229   3.822   1.875   3.035  0.1076  0.0971 -0.2963
25383W        W42230   3.625   0.344  11.928  0.1204 -0.1253  0.0155
25384W        W42231  13.731  17.664   2.600  0.0660  0.2431  0.2054
25385W        W42232   8.465   8.965  11.426  0.2100 -0.3731 -0.2307
25386W        W42233  17.493  17.469  13.535 -0.0863 -0.0307 -0.0036
25387W        W42234   4.314  10.121   5.713  0.1733 -0.0078  0.0086
25388W        W42235  13.289   5.260   5.373 -0.0188  0.0492 -0.1791
25389W        W42236   5.322  17.658   2.188 -0.0643  0.1471 -0.1618
25390W        W42237  11.174  13.830   0.170  0.1034  0.0982 -0.1542
25391W        W42238   2.010   6.531   3.309 -0.0143  0.1683 -0.0032
25392W        W42239   1.582   2.062  12.810 -0.1067 -0.1733  0.3530
25393W        W42240   0.661  13.982   5.879  0.1111 -0.0707 -0.2544
25394W        W42241   2.335  12.370   1.062 -0.0496  0.1825  0.1066
25395W        W42242   1.618   0.177   1.603 -0.2783  0.3236  0.3059
25396W        W42243   9.003   9.241   4.189  0.1797 -0.0069 -0.1968
25397W        W42244   0.425   1.087  12.292  0.0587  0.4302  0.0974
25398W        W42245  13.387   1.023  14.247 -0.0428 -0.3139 -0.3796
25399W        W42246   1.659  10.799  14.638 -0.1046 -0.0961 -0.1119
25400W        W42247   8.707   6.362  16.576  0.1149 -0.1404  0.2023
25401W        W42248   0.581  17.509   2.480  0.1192  0.2650  0.1111
25402W        W42249  11.095   0.644  12.381  0.0828 -0.0406  0.3322
25403W        W42250  15.046   5.294  16.624  0.1116 -0.0144  0.0228
25404W        W42251  16.502   8.259   2.595  0.1882  0.4135 -0.0580
25405W        W42252  10.815   4.712   2.706 -0.2276 -0.0925  0.0074
25406W        W42253  15.192  10.847  12.623  0.1725  0.0107 -0.0675
25407W        W42254   4.297  10.540   0.068  0.1656  0.4056 -0.1236
25408W        W42255   6.534  11.512  14.639  0.0198 -0.2756  0.0497
25409W        W42256   8.703  11.314   4.420 -0.0146  0.0614  0.3884
25410W        W42257  15.349  12.472  16.030  0.1498  0.0124  0.0022
25411W        W42258   8.333  10.488   2.749 -0.3142 -0.1934 -0.0122
25412W        W42259   5.341  16.567   5.148  0.1352  0.0897  0.0453
25413W        W42260   1.478  17.621   1.504 -0.2471 -0.1710  0.1997
25414W        W42261   9.943   7.389   0.423 -0.3294 -0.1825 -0.1891
25415W        W42262  11.885  13.966   5.354 -0.0995  0.1061 -0.3751
25416W        W42263  14.562  10.225  13.819 -0.0649 -0.0969  0.1996
25417W        W42264  13.292   7.979   2.185  0.3507 -0.0582 -0.1239
25418W        W42265  17.638  16.606   4.738 -0.1610 -0.1356  0.0933
25419W        W42266  14.843   9.460   1.499 -0.1775 -0.0285 -0.2157
25420W        W42267   7.930   6.040   5.090  0.1347  0.1262 -0.0397
25421W        W42268   1.872  11.274  11.870 -0.0460 -0.5714 -0.1930
25422W        W42269   4.393   3.641  16.032 -0.0233  0.0261 -0.1167
25423W        W42270   6.166  13.902   4.430  0.1314 -0.3430  0.1902
25424W        W42271  13.148   9.014   3.615  0.0954  0.0322 -0.0355
25425W        W42272  12.728   8.582   0.754 -0.0646  0.0876  0.2339
25426W        W42273  11.586  12.078   4.822 -0.2164  0.2796 -0.0700
25427W        W42274  14.195   7.792   4.405 -0.2462 -0.1917  0.0329
25428W        W42275   0.146  14.455  11.569  0.0726  0.2281 -0.0562
25429W        W42276  11.313  13.238  16.695 -0.2286 -0.2546 -0.1587
25430W        W42277   0.214   8.987   5.811  0.0172  0.0962  0.2057
25431W        W42278   3.040   3.196   1.263 -0.1516  0.0777  0.1879
25432W        W42279   4.139  17.343  15.862 -0.0457  0.2027 -0.0739
25433W        W42280   9.407   7.891   1.602 -0.2059  0.0674  0.1364
25434W        W42281  12.209   7.613   3.196 -0.0589  0.0062 -0.1444
25435W        W42282   7.395  15.304   5.291  0.0919  0.1431 -0.0522
25436W        W42283  13.764  17.063   0.248 -0.1069 -0.1697 -0.1158
25437W        W42284  17.467  14.531  16.308 -0.0689  0.1829 -0.1235
25438W        W42285   8.257   6.729  14.493 -0.0249  0.3089 -0.2783
25439W        W42286   4.774   7.606   2.820  0.0100  0.0783 -0.2814
25440W        W42287   6.983   7.487   3.386 -0.1064 -0.0079 -0.0823
25441W        W42288  17.882   5.403  16.163  0.3527 -0.0671  0.1999
25442W        W42289   6.490   9.571  15.048  0.1493 -0.1430  0.1031
25443W        W42290  14.991  17.452   4.002  0.1586 -0.1678 -0.0781
25444W        W42291  13.676  12.475   4.189  0.0532  0.1327 -0.1338
25445W        W42292  13.345   2.443  16.498  0.0398  0.0956 -0.0779
25446W        W42293   7.767  15.205   2.396 -0.3230  0.2106  0.1750
25447W        W42294  16.164   9.560  13.286 -0.0488  0.0477  0.3344
25448W        W42295  13.803   8.990  12.854 -0.0343  0.0002  0.0642
25449W        W42296  17.839   0.847   5.422 -0.0202 -0.1105  0.2134
25450W        W42297  17.800   6.064   1.808  0.1951 -0.1104  0.1275
25451W        W42298   4.447   3.999  12.056  0.2222 -0.2147 -0.4397
25452W        W42299  11.622  11.676   3.798 -0.1863  0.0108 -0.2044
25453W        W42300  10.892  11.576   4.794 -0.1673 -0.0792  0.2567
25454W        W42301  11.435  11.141  10.810  0.0034  0.0881 -0.1064
25455W        W42302  16.350   8.569  15.465 -0.2880 -0.0287  0.0746
25456W        W42303   2.355  16.662   3.788  0.0171 -0.1341  0.1511
25457W        W42304  13.526  17.393   3.664  0.0505 -0.3179  0.0327
25458W        W42305  16.064   2.262  14.909  0.1282  0.0086  0.0884
25459W        W42306  16.263   1.366   2.062  0.1289  0.1412  0.0759
25460W        W42307  15.401  14.267  14.351  0.1961  0.1791  0.2401
25461W        W42308   8.378  15.073   3.629  0.1971 -0.2451  0.1152
25462W        W42309  14.482   9.580   3.356  0.2056  0.5324  0.0683
25463W        W42310  16.800   9.031   1.227 -0.1402 -0.1461  0.0130
25464W        W42311   8.942  13.115  15.967  0.1571  0.1723 -0.2118
25465W        W42312   5.779  14.443   3.173 -0.2842 -0.1667  0.0611
25466W        W42313  14.346  14.977   4.128  0.2349  0.0440 -0.1661
25467W        W42314   5.334   7.681   5.821 -0.0760 -0.1070  0.5430
25468W        W42315  17.928   7.737   4.615 -0.2861  0.0588 -0.0945
25469W        W42316   4.644   2.174  14.264 -0.1575  0.0385 -0.0521
25470W        W42317   5.990   7.783   4.759 -0.0054 -0.1891  0.0303
25471W        W42318  13.864   6.925  12.628 -0.1044  0.0085 -0.0557
25472W        W42319   4.566  17.025  12.658 -0.1085  0.1297  0.1391
25473W        W42320   7.337   0.280  16.542  0.0467  0.1464  0.0563
25474W        W42321  12.285   9.247   3.675 -0.4854 -0.0951 -0.0226
25475W        W42322   2.284  10.372   2.971  0.0681 -0.1899  0.1716
25476W        W42323  12.582   4.081   5.416 -0.1259  0.1622 -0.1493
25477W        W42324   0.151  13.375  14.460  0.3615  0.0046 -0.3895
25478W        W42325   1.234   5.950   4.983  0.3562 -0.1331  0.2416
25479W        W42326   2.705   1.201  11.900  0.0438 -0.0718  0.1315
25480W        W42327   5.257  10.641   5.097  0.0229 -0.0483 -0.4130
25481W        W42328   1.968   5.329   5.644 -0.0934 -0.3121 -0.0582
25482W        W42329  13.455   2.762  12.372 -0.0557 -0.1254  0.1120
25483W        W42330  10.050  17.497   1.667 -0.0156  0.0783 -0.0418
25484W        W42331  17.075  11.793  12.653  0.1356 -0.2059 -0.1624
25485W        W42332   1.998   5.553  14.048 -0.1319  0.3164 -0.1551
25486W        W42333  17.033  14.398  16.574 -0.1967  0.0297 -0.1075
25487W        W42334  14.961   7.571   2.268 -0.0148  0.2220  0.0394
25488W        W42335  12.628   8.342  14.713  0.2790 -0.0562  0.3129
25489W        W42336   0.902  16.130   0.381  0.1982 -0.1590  0.0937
25490W        W42337  15.703  13.014   5.182  0.2187  0.0584  0.0091
25491W        W42338  10.166   3.293  14.827 -0.1568  0.3684  0.1842
25492W        W42339   1.186   1.771   0.290  0.1123 -0.1182  0.2628
25493W        W42340   2.503   5.386  15.948  0.2887  0.0372  0.1942
25494W        W42341   3.608   8.512  14.548 -0.1033 -0.2183  0.1188
25495W        W42342   7.145  17.165  16.168  0.0397 -0.3667 -0.0470
25496W        W42343   8.650  11.401  15.546 -0.1831 -0.1187  0.1067
25497W        W42344  11.628   2.618   1.141  0.0193 -0.2916  0.1314
25498W        W42345  12.160   9.644  12.926  0.1247  0.0570  0.1884
25499W        W42346   7.687   1.003  15.488 -0.3524  0.1217 -0.3230
25500W        W42347  17.668  12.114   2.801  0.2145 -0.0457  0.0569
25501W        W42348   8.115  16.607  12.535 -0.3513  0.3849 -0.0784
25502W        W42349  17.486   0.107   3.924 -0.3793 -0.1981  0.2031
25503W        W42350  14.058  16.482   2.098 -0.1845  0.0413 -0.2723
25504W        W42351   9.968   1.244   0.798  0.3893 -0.2680  0.0340
25505W        W42352   4.867   5.851  14.057  0.3122  0.0214  0.0148
25506W        W42353   2.468   3.074   3.387  0.1426 -0.0018 -0.2588
25507W        W42354   6.826  17.836   0.856  0.0255  0.2997 -0.1215
25508W        W42355  12.226   2.939  14.822 -0.4302 -0.0492  0.0697
25509W        W42356   3.161   7.076  15.957 -0.1529  0.1920  0.1509
25510W        W42357  12.650   7.346  13.045  0.1553 -0.0804  0.0670
25511W        W42358  10.140  10.715  11.805  0.1242 -0.4558  0.1331
25512W        W42359  17.388   4.727   1.710 -0.2778  0.1814  0.1935
25513W        W42360   3.987  14.922  15.152 -0.2943 -0.0354  0.1149
25514W        W42361  14.798  16.977  11.443  0.1809 -0.0469 -0.1507
25515W        W42362  15.057  10.483  14.354  0.1722 -0.2619 -0.1204
25516W        W42363  13.783  11.175   6.327  0.0441  0.1489  0.0182
25517W        W42364   9.416  10.205   1.408 -0.2365 -0.2258 -0.3919
25518W        W42365   2.960   8.805   2.354 -0.1069 -0.2568 -0.0741
25519W        W42366   1.785   0.938  13.799  0.0383  0.0275  0.1650
25520W        W42367   7.270  17.251   0.022 -0.1538  0.0369  0.0229
25521W        W42368   9.902  16.408  14.719 -0.2745  0.2705 -0.3324
25522W        W42369  11.376   4.657  11.141  0.2141  0.0955  0.2721
25523W        W42370   3.130   8.216   5.516  0.0425 -0.2209  0.1338
25524W        W42371   5.602   4.742  16.645  0.3464  0.1277  0.3095
25525W        W42372  14.918  12.636  16.287  0.0915  0.0028 -0.1029
25526W        W42373   2.569   6.112   2.619  0.0620 -0.3133  0.1569
25527W        W42374  16.685   2.257   0.555  0.2089  0.1361  0.3098
25528W        W42375   1.330   7.359  14.788  0.1149  0.1506  0.1271
25529W        W42376  17.705   8.561   0.962 -0.1795  0.0592  0.0537
25530W        W42377   0.873   6.887   2.832 -0.1686 -0.0373 -0.4243
25531W        W42378   3.979  16.712  16.482 -0.0825  0.1555 -0.0020
25532W        W42379  11.768   8.588   3.811  0.1619  0.0072 -0.1628
25533W        W42380  16.760   9.346  16.273 -0.1590  0.1715  0.3604
25534W        W42381   7.783   3.030   5.254  0.1256 -0.0242 -0.0013
25535W        W42382   0.347   9.973  12.234  0.0559  0.1203  0.1898
25536W        W42383  13.723  14.787   5.400  0.0380 -0.0313 -0.1098
25537W        W42384  17.416  17.250  16.355 -0.0347 -0.2129  0.0785
25538W        W42385  11.557  10.582   4.202  0.3733 -0.2521  0.2172
25539W        W42386  11.714   1.745  16.529 -0.0730  0.3292  0.1444
25540W        W42387   1.606  11.599  13.301 -0.1076  0.0864 -0.1870
25541W        W42388  17.008  15.559   3.602 -0.2928  0.0390  0.1031
25542W        W42389   7.757  11.566  15.537  0.2193  0.0149 -0.0501
25543W        W42390  13.943  13.410   2.697  0.0694  0.0090 -0.0390
25544W        W42391   9.787  12.768  12.950  0.0437  0.1805 -0.0228
25545W        W42392  16.825  10.152   0.533  0.0149  0.0798 -0.0981
25546W        W42393   6.534  11.397  16.764  0.0679 -0.0001  0.1633
25547W        W42394  13.011  12.568  13.451  0.2601 -0.2039  0.1831
25548W        W42395  13.414  12.893   1.940 -0.1609  0.1726  0.2218
25549W        W42396   7.561   4.011   4.393  0.2504  0.0233  0.2697
25550W        W42397  11.219   6.734  13.776 -0.2022  0.2281 -0.2657
25551W        W42398  14.485  12.480   4.076  0.2064  0.1604  0.0412
25552W        W42399   0.050  11.339   3.951  0.2721 -0.0775 -0.2456
25553W        W42400  17.521   5.666   0.383 -0.1742 -0.1569 -0.0643
25554W        W42401   7.794  13.780  12.011  0.1365  0.1149  0.2565
25555W        W42402  15.797  15.240  11.848  0.2707 -0.1233  0.2392
25556W        W42403   1.142  16.568  15.302 -0.0705  0.1265  0.1581
25557W        W42404   8.253  14.892   5.421  0.3014 -0.1321 -0.1337
25558W        W42405   9.699   1.617   4.707 -0.4283  0.0545  0.1277
25559W        W42406  16.822   2.838  13.031 -0.1299 -0.0710  0.0475
25560W        W42407   8.855   8.660   2.730 -0.0296  0.0010 -0.2249
25561W        W42408   0.460   9.984   1.904 -0.1427 -0.1303  0.0613
25562W        W42409  15.148  12.981   1.832 -0.1880  0.1504 -0.1480
25563W        W42410   6.646   2.183  12.427 -0.2275 -0.1181 -0.2857
25564W        W42411  17.673   1.770   1.892  0.2999  0.0737  0.1767
25565W        W42412  11.146  16.474   2.281 -0.0722 -0.1818  0.0305
25566W        W42413   9.317   0.244  15.558  0.0810  0.1757 -0.4799
25567W        W42414   5.647   5.965   0.154  0.1973  0.0037 -0.2409
25568W        W42415  11.148   1.361   5.246  0.0781  0.0926  0.2109
25569W        W42416  17.474   2.831  11.142 -0.1539 -0.0855  0.1632
25570W        W42417   2.556   9.623   0.726  0.0473  0.0787  0.1100
25571W        W42418   8.176  11.367  14.293  0.1428 -0.1991 -0.3858
25572W        W42419  13.669   8.374   0.924 -0.0803  0.0374 -0.4567
25573W        W42420   6.102   0.105  16.772 -0.0943 -0.0341  0.2139
25574W        W42421  10.495   8.648  12.391  0.5635  0.0442 -0.2194
25575W        W42422  12.068  12.104   5.064 -0.0190 -0.2553  0.0900
25576W        W42423  11.440   1.151   4.835  0.0293 -0.0267 -0.0399
25577W        W42424   1.223  12.907  15.352 -0.0753 -0.0420  0.1004
25578W        W42425   7.024   5.409  14.519  0.0143  0.3777 -0.1524
25579W        W42426   8.861  12.766   1.214  0.0394  0.2756 -0.0852
25580W        W42427  16.835   0.284   1.684 -0.0676  0.0299  0.0728
25581W        W42428   8.723   9.538   0.695  0.1761  0.1193 -0.0070
25582W        W42429  13.380   5.862  14.917  0.2823 -0.2015 -0.2537
25583W        W42430   0.049   4.816  15.398 -0.0647 -0.3269 -0.0587
25584W        W42431   1.181   7.129   3.663 -0.2370  0.0051  0.2570
25585W        W42432  13.065  16.148   2.445 -0.1511  0.0686  0.1401
25586W        W42433   5.531   1.697  16.361  0.1929 -0.1860 -0.2938
25587W        W42434   2.289   0.546  13.570  0.2013  0.0130  0.0059
25588W        W42435  11.951  16.922   2.245  0.1236  0.0947  0.0667
25589W        W42436  15.258   3.516  11.280  0.2540 -0.0909 -0.0765
25590W        W42437  15.600   8.894  14.762 -0.1292 -0.0271 -0.0534
25591W        W42438   4.976   7.680   3.821  0.2994  0.0615  0.1648
25592W        W42439  15.889   2.243  14.445  0.0359  0.2044 -0.2571
25593W        W42440  13.933   4.996  15.774 -0.0885 -0.0637 -0.0227
25594W        W42441  10.912   6.204  14.820 -0.1019 -0.1335  0.3097
25595W        W42442   0.047   1.050   3.803  0.0297 -0.1656 -0.0023
25596W        W42443   5.474   8.672  14.574 -0.1575  0.0714  0.0892
25597W        W42444  12.149   3.405   0.707  0.1194 -0.0751  0.2683
25598W        W42445   1.327   9.455  15.921 -0.0055  0.0807  0.0767
25599W        W42446  14.595  14.135  12.629 -0.1770  0.1769  0.1388
25600W        W42447   8.642  16.269  12.556  0.0849 -0.0067 -0.1465
25601W        W42448  16.264   5.866  16.190 -0.1140  0.3142  0.0610
25602W        W42449  16.794   5.497  14.444 -0.0256 -0.1581  0.0947
25603W        W42450  15.570   5.828   0.486 -0.0478 -0.0125 -0.2658
25604W        W42451  10.766  11.537  14.068  0.1340  0.0592  0.3483
25605W        W42452   2.814  11.552  11.317  0.1286  0.0148 -0.1257
25606W        W42453   4.218   3.641  14.136 -0.1601  0.1620  0.1629
25607W        W42454   7.234  16.369  13.509  0.1355 -0.0515 -0.0274
25608W        W42455   6.266  10.236   5.477 -0.0135 -0.0201  0.2021
25609W        W42456  16.068  13.890   5.038 -0.4158  0.2310  0.0683
25610W        W42457   0.339  12.141  11.649  0.0365 -0.0579 -0.0197
25611W        W42458   3.784  12.472   0.192  0.2899  0.0077 -0.1636
25612W        W42459   2.953  11.771   2.087 -0.0077  0.1739 -0.0890
25613W        W42460  11.953   4.720   5.388  0.2769 -0.2286 -0.1072
25614W        W42461   9.546   6.647  13.410  0.0926 -0.0541  0.1625
25615W        W42462  16.396   3.531  12.362  0.2194 -0.0930 -0.2019
25616W        W42463   3.623  11.569  13.025  0.1010 -0.0716 -0.1845
25617W        W42464   2.149   6.064   3.498 -0.0245  0.0892  0.0960
25618W        W42465   9.122   9.363   3.609  0.0593  0.1674  0.0404
25619W        W42466   3.894  13.556  15.384  0.2349 -0.0534  0.1010
25620W        W42467   5.748   3.407   4.001  0.0170  0.1044 -0.2439
25621W        W42468   3.134  16.227   1.930 -0.0032  0.3738  0.1101
25622W        W42469  14.889   2.949   3.206 -0.2776  0.3381 -0.1284
25623W        W42470  12.177   9.591   4.487  0.1308 -0.0145  0.0146
25624W        W42471  11.580   8.228   3.495  0.2358  0.0919 -0.1323
25625W        W42472  13.540  15.107   5.716  0.1397  0.2811  0.1956
25626W        W42473   1.264   1.486  16.006  0.1282 -0.3279 -0.0648
25627W        W42474   6.477  16.036  15.764  0.4555 -0.1133 -0.0554
25628W        W42475  16.533   5.058  16.578  0.1603  0.0483  0.1224
25629W        W42476   9.297   2.798  14.073  0.0839 -0.0723 -0.1303
25630W        W42477   2.382   9.684   3.530 -0.1068 -0.5662  0.2027
25631W        W42478  12.082   5.405  11.775  0.1611 -0.1957 -0.0781
25632W        W42479   4.528  13.999  12.858 -0.1502 -0.0798  0.3557
25633W        W42480   1.039   4.295  12.216  0.1331  0.2177 -0.2037
25634W        W42481   2.404  17.627   3.775 -0.1450  0.0059  0.1275
25635W        W42482   4.561  13.927   3.226  0.0451 -0.1848 -0.1448
25636W        W42483   5.297  11.180   4.357 -0.0305  0.0687  0.1260
25637W        W42484   8.696  11.293   5.269  0.1239 -0.0556  0.1170
25638W        W42485  14.519   3.599   1.777 -0.0370 -0.1668  0.2227
25639W        W42486   6.409   0.866   0.081 -0.1486 -0.1329  0.0757
25640W        W42487  16.448  11.228  15.706  0.0947 -0.0153  0.0771
25641W        W42488  13.812   0.271   2.609 -0.0948 -0.0105 -0.1947
25642W        W42489   4.465  12.763   2.527 -0.0609 -0.2124 -0.0371
25643W        W42490   8.467   7.071   0.887  0.2937  0.1402  0.1608
25644W        W42491  17.395   1.438  16.566 -0.0606 -0.0972  0.1040
25645W        W42492  12.930  15.681   2.745  0.0558  0.1548 -0.1937
25646W        W42493   5.384   3.735   2.179  0.2416  0.1642 -0.0089
25647W        W42494   6.926  12.756   3.968 -0.0542 -0.0352 -0.1426
25648W        W42495  16.265  10.476  14.944 -0.2266  0.0185 -0.0985
25649W        W42496  15.445  12.559   1.942 -0.1200 -0.0864 -0.0550
25650W        W42497  12.685   1.872  13.795  0.1338  0.0131 -0.0944
25651W        W42498   8.683  13.260   1.325  0.0809  0.0234 -0.2778
25652W        W42499   8.644   5.075   4.371 -0.0936 -0.0600 -0.1130
25653W        W42500  16.433   9.165  14.144 -0.2173 -0.2068  0.2170
25654W        W42501   4.508   6.174  14.728 -0.0991 -0.0969 -0.3008
25655W        W42502   8.363  17.064   2.771 -0.3800 -0.0304 -0.0799
25656W        W42503   4.843   4.511   0.070  0.3576 -0.0502 -0.1307
25657W        W42504   6.342  14.863   4.756  0.1060 -0.2174 -0.1473
25658W        W42505  10.977   0.940   0.227 -0.0066  0.4997  0.1434
25659W        W42506  17.445   5.386   2.903 -0.1118  0.0335  0.2233
25660W        W42507  10.976  15.132  15.386  0.2125  0.1060  0.0029
25661W        W42508  10.689   9.181  15.036  0.0430  0.0226 -0.3124
25662W        W42509  10.290   0.341  12.411  0.2361  0.2457  0.1016
25663W        W42510  11.903  15.328   5.454  0.2115 -0.1261 -0.0033
25664W        W42511   8.472  10.562   2.258 -0.0131 -0.2215  0.1355
25665W        W42512   5.276  12.327  12.113  0.4285 -0.1309  0.0017
25666W        W42513  15.779   6.984  16.328  0.0300  0.2021 -0.0519
25667W        W42514   1.297  17.891   3.357 -0.1506  0.0608 -0.1941
25668W        W42515  14.166  13.990  14.537 -0.1887 -0.2271  0.1898
25669W        W42516  13.548  15.810  13.652  0.0011 -0.3995  0.0318
25670W        W42517  13.940   3.219  14.769 -0.1133  0.0993  0.0939
25671W        W42518  11.692   2.960   3.148 -0.0206 -0.0117  0.3468
25672W        W42519   0.550  10.360   1.547 -0.0835  0.2908 -0.1203
25673W        W42520   6.336   4.878   0.262 -0.1874  0.1814  0.0898
25674W        W42521  16.187   4.263   1.302 -0.0029  0.0644 -0.0834
25675W        W42522   1.573  11.190  12.768 -0.0147 -0.1524  0.0808
25676W        W42523   4.009   6.002  14.759  0.0747 -0.0402 -0.1418
25677W        W42524   8.552  10.393  12.784  0.2104  0.1275  0.0129
25678W        W42525  13.628  11.174  15.604  0.0650 -0.2123  0.0446
25679W        W42526  15.652   6.309   4.873 -0.2607  0.1515  0.0109
25680W        W42527  15.646  10.394  15.049 -0.0436  0.2867  0.0621
25681W        W42528   5.190   8.584  15.648  0.1016 -0.2001 -0.1037
25682W        W42529  14.479  15.551  14.471 -0.2876  0.0379 -0.0314
25683W        W42530  14.197   1.396   0.290  0.1152 -0.1902  0.1287
25684W        W42531   5.027  12.131  11.743  0.1004  0.3039 -0.0212
25685W        W42532   0.273  15.305   0.313  0.0657 -0.2922 -0.2559
25686W        W42533  14.213   1.942   1.690 -0.0711  0.0573  0.1948
25687W        W42534  12.133   5.850   1.333  0.0924 -0.3898 -0.0091
25688W        W42535   2.238   8.055   4.139  0.0710 -0.0093 -0.0143
25689W        W42536  14.301  10.709  13.051 -0.0428  0.3129 -0.2801
25690W        W42537   0.930   8.038   3.837 -0.1939  0.1029 -0.1108
25691W        W42538  15.086  15.170   5.716  0.0744 -0.2769 -0.0121
25692W        W42539   2.412   7.571  13.316  0.0589 -0.0841  0.1417
25693W        W42540  11.636  13.145   4.535 -0.0953 -0.2294 -0.2051
25694W        W42541  12.263   5.389   6.637 -0.1061 -0.0550  0.1770
25695W        W42542   9.362  16.976  11.664  0.0418  0.0866 -0.0909
25696W        W42543  11.824  12.208   2.878 -0.2143 -0.0303 -0.1215
25697W        W42544  10.693   2.519   0.624 -0.1407 -0.0266 -0.0203
25698W        W42545   8.719  14.743  13.846 -0.1922  0.1661  0.2970
25699W        W42546  16.540   9.872   4.379 -0.5741 -0.0540 -0.1863
25700W        W42547  14.705   7.328  14.499 -0.1822 -0.0485 -0.2757
25701W        W42548  10.721   2.790  16.062  0.0280  0.2219 -0.1591
25702W        W42549   1.222   0.811  14.399 -0.1613 -0.0271 -0.1086
25703W        W42550   0.927   3.883  14.848  0.0863  0.1763  0.1859
25704W        W42551  14.328   5.125  14.902 -0.2225  0.0648  0.3184
25705W        W42552  17.293  16.855   3.791  0.2790 -0.0102 -0.0840
25706W        W42553   5.052   4.242  16.114  0.2045 -0.2090  0.1262
25707W        W42554  10.494  16.271   1.484 -0.2361  0.1684 -0.2554
25708W        W42555   8.527   0.158   0.183 -0.2276  0.0269 -0.1101
25709W        W42556   3.121   1.424   5.424 -0.0382 -0.1084  0.1686
25710W        W42557   0.016   6.203  14.588 -0.2697 -0.2202  0.1164
25711W        W42558   2.367  17.063  13.616 -0.1218  0.1352  0.0934
25712W        W42559   1.362   6.372   4.801  0.1403  0.2533  0.0396
25713W        W42560   4.738  10.134   2.865 -0.0925 -0.1133 -0.1847
25714W        W42561   5.463  10.112  12.118 -0.0379 -0.0215 -0.0406
25715W        W42562   6.418   1.778   5.071  0.0177 -0.3851  0.3054
25716W        W42563   5.566  15.852  16.137 -0.1946 -0.2721 -0.3435
25717W        W42564   0.714   7.688   2.448 -0.2380 -0.1524  0.1563
25718W        W42565   4.478  10.280  13.467  0.1340 -0.0647 -0.1292
25719W        W42566  14.291   2.496  15.442 -0.3740 -0.1259  0.1369
25720W        W42567   1.662  17.799  12.638  0.1196  0.0643 -0.0444
25721W        W42568  15.237  14.054  16.694 -0.1136 -0.1553  0.3047
25722W        W42569  14.082  12.860   4.164 -0.0514 -0.0969  0.0630
25723W        W42570  12.487   4.556   6.076 -0.2559 -0.1477 -0.2838
25724W        W42571   4.219   5.884  16.245  0.2869 -0.1204  0.0445
25725W        W42572   1.275  17.563   2.414 -0.0363 -0.1375 -0.1531
25726W        W42573  16.661   1.038   2.106  0.0219 -0.0875  0.1490
25727W        W42574   2.365  11.131   4.299  0.0729  0.0404  0.2457
25728W        W42575   4.653  11.618   5.362  0.1398 -0.1418  0.1354
25729W        W42576  15.960   7.862   4.865  0.4329 -0.2032 -0.1678
25730W        W42577  11.874   6.392   4.468  0.0902  0.1978  0.1504
25731W        W42578   1.548   9.676   5.612 -0.3912  0.1200 -0.2199
25732W        W42579   4.364   9.883   1.829 -0.2382  0.2939  0.1691
25733W        W42580   5.920   8.540   3.944  0.4965  0.0591 -0.1608
25734W        W42581  17.122  16.258  12.104 -0.0629  0.0745  0.0887
25735W        W42582   8.192  11.460  12.076 -0.0223  0.0063  0.4602
25736W        W42583   6.200   6.558   1.437  0.1812 -0.1893 -0.0966
25737W        W42584   1.751   3.241   1.986 -0.0624  0.0645  0.1122
25738W        W42585  16.924  10.702  11.925  0.2586 -0.0367  0.1361
25739W        W42586   7.816  11.920  15.199  0.2229 -0.0126 -0.0355
25740W        W42587  12.304   5.732   4.524 -0.0991  0.0243 -0.1215
25741W        W42588  15.970   0.784   0.729  0.0785 -0.1252 -0.1588
25742W        W42589  12.883   4.524  15.138 -0.1487 -0.2091 -0.1836
25743W        W42590   6.378   3.025  15.432 -0.0233 -0.3939  0.2153
25744W        W42591  14.221   0.734  14.838  0.0306 -0.0096 -0.1877
25745W        W42592   8.014  11.143  15.684 -0.0390 -0.1545  0.0500
25746W        W42593   1.030   3.528  12.351  0.1221 -0.2473 -0.0163
25747W        W42594  11.646  16.254   5.074 -0.0440  0.3469  0.1877
25748W        W42595   8.017  10.664   5.395  0.0512 -0.3236 -0.0276
25749W        W42596  11.066  13.079   2.278  0.1785 -0.1388  0.4226
25750W        W42597   9.530  14.357  13.798 -0.2924 -0.0278  0.0036
25751W        W42598  14.659  14.596  16.271  0.3814  0.2292  0.2392
25752W        W42599   2.467   8.741  12.212  0.0713  0.0182 -0.1030
25753W        W42600   3.991   8.167  14.381 -0.2542  0.0837  0.3380
25754W        W42601  10.547   3.615  12.984 -0.1398  0.1212 -0.0042
25755W        W42602   3.739  14.852  14.400  0.0072  0.2343  0.0616
25756W        W42603  17.564  15.033  15.045  0.0186  0.1870 -0.0418
25757W        W42604  12.496   8.490  13.555  0.3810 -0.0168  0.0541
25758W        W42605   7.184  10.041   0.827 -0.2805 -0.0067 -0.0053
25759W        W42606   0.849  10.278  14.263  0.0047  0.1967  0.3285
25760W        W42607  16.221   5.984  12.629 -0.2062  0.3237 -0.0039
25761W        W42608  16.016   0.198   4.990  0.0140 -0.1130 -0.0631
25762W        W42609  16.271   9.378  16.456  0.0257  0.2752  0.2963
25763W        W42610  16.750   2.257   2.928  0.0840 -0.1189  0.0203
25764W        W42611   3.717  15.328  15.634 -0.1825  0.1119  0.0694
25765W        W42612  14.976  15.961   2.178 -0.3063  0.1105  0.2195
25766W        W42613   8.791   0.326  13.688 -0.0157  0.2211 -0.0454
25767W        W42614   2.136   2.931   2.100  0.0889 -0.0257  0.0556
25768W        W42615  11.946  16.346   0.926  0.1469 -0.1215 -0.1911
25769W        W42616   7.931   8.992   2.872 -0.1097 -0.2277 -0.0254
25770W        W42617  11.639   1.547   5.049 -0.0027 -0.0459  0.0221
25771W        W42618   0.543  16.710  13.674  0.1442 -0.1621 -0.1405
25772W        W42619   7.204  11.979   1.755  0.2880 -0.3080  0.1912
25773W        W42620   9.289   9.319   4.890  0.1513 -0.0053 -0.1201
25774W        W42621   6.482   7.562   2.140 -0.0768  0.1449  0.2919
25775W        W42622  16.186   2.960   0.536  0.0081 -0.1485 -0.0950
25776W        W42623  17.129   6.335  14.238  0.4128 -0.0992 -0.1925
25777W        W42624  12.788   7.569   1.992  0.0851  0.2581  0.0383
25778W        W42625   3.245   6.166   1.240  0.0375 -0.2016  0.2067
25779W        W42626   2.275   2.633   2.712 -0.0850 -0.1741  0.0721
25780W        W42627   8.022  13.010  16.126 -0.0885  0.1238 -0.0345
25781W        W42628   2.900   5.187   4.751  0.3319  0.2807 -0.0478
25782W        W42629   8.883   7.357   1.557 -0.0112 -0.0321 -0.0704
25783W        W42630   5.208  13.498   2.396 -0.0387 -0.1283  0.0546
25784W        W42631   6.870  14.782  13.940  0.0735  0.1751 -0.2009
25785W        W42632   5.553  13.364   0.238 -0.1124  0.2994  0.2409
25786W        W42633   6.210   3.021  13.689 -0.0362  0.0112 -0.0157
25787W        W42634  15.504   6.135  16.753 -0.0653  0.0969  0.1259
25788W        W42635   7.895  16.695  13.072  0.0796 -0.0386  0.1132
25789W        W42636  16.225   1.499   2.958 -0.1904 -0.0746  0.2753
25790W        W42637  10.049   9.829  15.754  0.1370 -0.1689 -0.1080
25791W        W42638  16.895   5.820   0.844 -0.0892 -0.1592  0.1588
25792W        W42639  17.026   4.295   3.609  0.1675  0.0467  0.0140
25793W        W42640   4.351   2.981   2.026  0.3192 -0.0192  0.1003
25794W        W42641   2.624  14.907   2.585 -0.0880 -0.0992  0.0012
25795W        W42642  17.008   3.768  11.102  0.0627 -0.3375 -0.0602
25796W        W42643  14.032  11.501  12.492  0.2004 -0.0033 -0.1685
25797W        W42644   6.886   3.070   3.648 -0.1292  0.0891 -0.0434
25798W        W42645   3.731  10.055   0.543  0.2734  0.0326  0.2483
25799W        W42646   9.226  17.177   3.887 -0.2534  0.2337 -0.0007
25800W        W42647  13.939  16.089   5.547 -0.0948  0.0040 -0.3666
25801W        W42648   4.670  11.114   1.896  0.2509  0.0438 -0.2471
25802W        W42649   7.038   4.241   1.897  0.2887 -0.2604 -0.0077
25803W        W42650  13.263   6.807   1.094  0.1074  0.2594  0.2478
25804W        W42651   4.542   8.197   5.849  0.1719 -0.1316 -0.0961
25805W        W42652   9.406   3.320  13.903 -0.1264  0.0021 -0.1637
25806W        W42653   2.799  15.093   1.184  0.2076  0.1495 -0.1100
25807W        W42654   1.368  15.333  14.846  0.1892 -0.0789 -0.0949
25808W        W42655   6.609  14.427   1.318 -0.1241  0.3160  0.0298
25809W        W42656   8.931  11.715   1.475  0.3853 -0.2863  0.1989
25810W        W42657   5.841   0.094  14.369 -0.3068 -0.1423  0.3057
25811W        W42658   9.321   3.115   3.476 -0.0566 -0.2148 -0.2259
25812W        W42659  10.674   1.728  10.976  0.0353 -0.1099 -0.2409
25813W        W42660   6.116   1.120  16.067  0.0422 -0.1341 -0.4155
25814W        W42661   6.902   6.867  16.746  0.0363 -0.1671  0.0662
25815W        W42662   9.103   8.458   4.206 -0.0118  0.1269 -0.1442
25816W        W42663   2.464   9.375   1.146 -0.2141  0.0820  0.0366
25817W        W42664   6.600   1.151   4.105  0.1710 -0.0945 -0.1717
25818W        W42665   3.454  16.353   2.437  0.2418 -0.0501  0.0485
25819W        W42666   4.913   1.180   1.471  0.0092 -0.0178 -0.2891
25820W        W42667  10.800  17.140   3.351 -0.1896  0.1422 -0.0583
25821W        W42668   3.322   2.216   4.691  0.1831  0.4197 -0.1032
25822W        W42669  11.453   9.879   4.967 -0.1514 -0.0294  0.0930
25823W        W42670  10.320   5.256  16.267 -0.0994 -0.1632  0.0455
25824W        W42671   2.048   3.884   3.172  0.0963  0.0267  0.1083
25825W        W42672   5.475  11.924   5.009  0.0606 -0.1647  0.3053
25826W        W42673  17.064   1.363   2.675 -0.2931  0.1331 -0.0272
25827W        W42674  12.635   0.160   2.963  0.0403 -0.2015 -0.1152
25828W        W42675  10.714  11.877   1.824 -0.1023 -0.2696 -0.2035
25829W        W42676   0.229  14.512   6.395  0.0193 -0.1126  0.0015
25830W        W42677   0.814   7.205  14.933  0.2265 -0.0774 -0.0005
25831W        W42678   2.844  12.975  14.566  0.1389  0.1723  0.2419
25832W        W42679  11.892   6.022   0.067  0.2739 -0.1506 -0.2133
25833W        W42680  17.429   1.733   2.712 -0.2582  0.2090 -0.2200
25834W        W42681  10.931  12.172  12.223  0.2595 -0.1019  0.0240
25835W        W42682  13.857  11.445  15.952  0.1576  0.0977  0.0412
25836W        W42683  17.167  12.459  11.793  0.2442  0.0366 -0.2862
25837W        W42684   2.636  17.833  14.903  0.1489  0.3060  0.2525
25838W        W42685   8.045   6.236   0.085 -0.1859 -0.1088 -0.2101
25839W        W42686  17.409  13.436  16.368  0.0332  0.2161  0.1299
25840W        W42687  10.151  16.948  15.602  0.2953  0.0095  0.0507
25841W        W42688   3.054   4.914  16.033 -0.3872  0.1193  0.0662
25842W        W42689   8.951   6.690  13.221 -0.4752 -0.0742 -0.0520
25843W        W42690  10.500  13.923  14.916  0.0814 -0.2628  0.0786
25844W        W42691  12.763  12.884  16.112 -0.0609  0.0309 -0.0655
25845W        W42692   2.135  15.725   4.309  0.1244 -0.0882  0.1292
25846W        W42693   9.257   4.183  13.596  0.0992 -0.2037 -0.1942
25847W        W42694   1.144  16.571   3.008 -0.1359  0.0795 -0.1524
25848W        W42695   8.097   9.958   1.799  0.0846  0.0282  0.1745
25849W        W42696   5.658  17.111  16.795  0.0383 -0.4097  0.1916
25850W        W42697   5.453  15.307   2.376 -0.2408  0.1145 -0.0380
25851W        W42698  14.061   3.567   3.193 -0.1076 -0.0687  0.0014
25852W        W42699  10.615   3.311   0.821  0.1741  0.0670 -0.1536
25853W        W42700  14.662  11.022   2.052 -0.0983 -0.0375 -0.1367
25854W        W42701   4.121  10.138  16.135 -0.1844  0.0386  0.1671
25855W        W42702   5.240   1.920   2.685 -0.3592 -0.1311  0.0426
25856W        W42703  14.379   3.357  14.405 -0.0234 -0.2032 -0.0720
25857W        W42704  13.440  12.734  13.364  0.1993  0.0780  0.0388
25858W        W42705  13.709   3.055  12.033  0.0622  0.2091 -0.3550
25859W        W42706  15.247   1.014  15.253 -0.1219 -0.0168 -0.0158
25860W        W42707   2.316  12.439   0.490  0.0701  0.0937  0.2249
25861W        W42708  15.506  10.933   4.785  0.0903  0.1645  0.0952
25862W        W42709  13.217  16.164   4.944 -0.1181 -0.1119 -0.0686
25863W        W42710  11.548  17.241   2.920  0.3211 -0.2413 -0.1823
25864W        W42711   6.418  11.452   3.769 -0.1496 -0.0759  0.1841
25865W        W42712   1.293   5.853  14.661  0.3914  0.0447  0.0233
25866W        W42713   6.324  13.085  15.309 -0.0575  0.3155 -0.0312
25867W        W42714  13.260  15.298   2.847  0.1008 -0.1450 -0.0860
25868W        W42715  16.004  15.620  16.194  0.1051  0.1518 -0.2210
25869W        W42716  16.256  15.455  14.739 -0.4754  0.0286 -0.0404
25870W        W42717  15.855   8.189   3.926  0.0921  0.1107  0.2092
25871W        W42718   4.485   6.807   2.389 -0.3002 -0.2506 -0.1927
25872W        W42719  13.832  17.923  11.558 -0.3058  0.1357  0.3932
25873W        W42720   5.139  10.101   2.598 -0.0490 -0.1096  0.2770
25874W        W42721  15.800   1.322   2.854  0.1050 -0.0327 -0.2779
25875W        W42722  15.087  14.004   0.932 -0.1382  0.0828  0.1467
25876W        W42723  11.757  17.616   5.058  0.2263  0.1643  0.1578
25877W        W42724   7.450   6.836  14.287 -0.1278  0.1354  0.1581
25878W        W42725  16.302   7.069   1.502  0.2890  0.2740 -0.1651
25879W        W42726  12.844   7.718   5.344 -0.0370  0.0369  0.0929
25880W        W42727  11.946   0.371  14.547 -0.2080  0.3784 -0.0830
25881W        W42728   2.052   0.184   4.625  0.1392 -0.1797  0.0248
25882W        W42729   5.156   5.611  16.570 -0.1403  0.1936  0.2985
25883W        W42730  13.802   2.284   1.555 -0.2607  0.1514 -0.0194
25884W        W42731  10.402   7.608  15.075 -0.1598 -0.2677 -0.0346
25885W        W42732   1.035  15.766   2.462  0.3247  0.1553 -0.0129
25886W        W42733   8.048  14.291   3.485 -0.0418 -0.2800  0.2590
25887W        W42734   3.193  14.082  13.149  0.1520  0.0974 -0.2091
25888W        W42735   5.294   3.866  16.588 -0.0034 -0.0085  0.1812
25889W        W42736   9.025   2.622  13.697  0.1316  0.0380  0.1132
25890W        W42737   9.024  16.534   2.723 -0.3556  0.1015 -0.1175
25891W        W42738   9.992  12.577   2.982 -0.2276  0.1935  0.1493
25892W        W42739   3.077   8.297   2.320 -0.1554 -0.1691 -0.1067
25893W        W42740  14.582   3.320   4.341 -0.0360 -0.0206  0.2049
25894W        W42741   9.427   6.064  13.241 -0.0111  0.0871  0.1994
25895W        W42742  17.347   8.755  16.149 -0.4070 -0.1209  0.4951
25896W        W42743  14.897  13.545   1.210  0.2426 -0.0564  0.1717
25897W        W42744   1.137  10.616  11.937 -0.1137 -0.1834 -0.2471
25898W        W42745  15.150  17.532   0.340 -0.0482 -0.0022  0.0565
25899W        W42746  17.201   8.416  12.220  0.2797  0.2839 -0.0818
25900W        W42747   9.540  17.049  13.433 -0.1524  0.1159  0.1670
25901W        W42748  11.602   3.944   1.815 -0.1427 -0.1839 -0.1965
25902W        W42749  10.796  14.374   1.740  0.1109 -0.0531  0.3780
25903W        W42750  17.902   8.288  13.601  0.1818 -0.3629  0.1559
25904W        W42751   6.414  10.584   4.201 -0.1519  0.1085  0.2279
25905W        W42752   7.354  11.521   4.178 -0.0606  0.2530  0.1415
25906W        W42753   6.461   6.110   4.658 -0.1226  0.0862 -0.1312
25907W        W42754   2.889  13.992  14.065 -0.1693  0.1519  0.1738
25908W        W42755   5.096  10.889  14.147  0.1733  0.0390 -0.1848
25909W        W42756   8.430  17.755   0.584 -0.0697 -0.1627  0.1898
25910W        W42757   4.002  12.803   1.986  0.0781 -0.1224  0.1001
25911W        W42758   6.345   9.605   2.318  0.3651  0.1632  0.3387
25912W        W42759  10.499  11.254   5.592 -0.0515 -0.0648 -0.1094
25913W        W42760   3.037   3.760   3.280  0.0918  0.1320 -0.0988
25914W        W42761   2.578  14.569   4.085 -0.2323 -0.3474  0.1639
25915W        W42762   0.186   8.719   1.907 -0.0409  0.0483  0.1534
25916W        W42763  14.746  15.323  14.093  0.0241 -0.0741  0.2826
25917W        W42764   0.518   0.890   5.495 -0.2502 -0.0577 -0.0086
25918W        W42765  16.218   0.920   5.976  0.1723 -0.1648 -0.0570
25919W        W42766   3.123  14.808  15.197  0.1615  0.2321 -0.3917
25920W        W42767   8.806  15.813   1.371 -0.3231 -0.0889  0.0537
25921W        W42768   2.976  15.470   4.245  0.2182  0.0613 -0.4166
25922W        W42769   6.112  15.470   4.902 -0.0475 -0.0532  0.2607
25923W        W42770   4.720  10.624   1.969 -0.2826 -0.1805 -0.0715
25924W        W42771  15.556  13.764  12.426  0.3231  0.0747  0.1060
25925W        W42772   0.411  11.642  11.696  0.2708  0.2633  0.3729
25926W        W42773  12.089   2.628  12.806 -0.0760 -0.1565 -0.0960
25927W        W42774  17.310  10.419  12.725  0.1721  0.0268  0.2067
25928W        W42775  11.901  10.572  15.657 -0.1368 -0.4409  0.4067
25929W        W42776  14.922  15.262   1.331 -0.0149  0.0312 -0.1979
25930W        W42777   2.024  14.366   4.843 -0.0684  0.2929 -0.0193
25931W        W42778  16.320   3.152   3.166  0.3538  0.2368 -0.0706
25932W        W42779  12.112  15.026  12.150 -0.0439  0.2949 -0.0009
25933W        W42780  16.262   3.989   3.038 -0.0205 -0.1996  0.1454
25934W        W42781   3.277   9.798   1.451  0.0203 -0.2091  0.0686
25935W        W42782  15.764  10.899  15.650  0.2014 -0.1465  0.1126
25936W        W42783   4.658   4.000   0.192  0.1864  0.4159  0.0760
25937W        W42784   8.861   0.424   4.921 -0.1692  0.1306  0.0985
25938W        W42785   7.985   6.533   5.049 -0.3559  0.1344 -0.1928
25939W        W42786  15.433   6.075  14.478 -0.0324 -0.0455  0.1140
25940W        W42787  12.797   6.747  13.097  0.1154  0.1359  0.1143
25941W        W42788   9.794   5.107   4.432 -0.2690 -0.2331 -0.0949
25942W        W42789   4.434  16.010   0.405 -0.0160 -0.0536 -0.0918
25943W        W42790  10.221   0.732  16.111 -0.3076 -0.0319 -0.2191
25944W        W42791   7.607   9.413   3.400  0.2154  0.0947  0.0568
25945W        W42792  12.584  16.618  16.377 -0.1574 -0.2403  0.1015
25946W        W42793  14.009   7.362   1.516 -0.2894 -0.0987  0.0771
25947W        W42794   0.728  16.307  16.740  0.3338  0.0753 -0.3036
25948W        W42795   7.710  17.440   0.054  0.2693 -0.2175  0.0187
25949W        W42796   1.300  16.882  11.727 -0.1034  0.1214 -0.1251
25950W        W42797   3.127   5.080   0.308 -0.0998 -0.1468  0.3242
25951W        W42798  17.108   6.433   0.252  0.1958  0.0323  0.1688
25952W        W42799   8.478   7.413   2.308 -0.2931 -0.0346 -0.0204
25953W        W42800  14.729  12.334  13.527 -0.0861  0.3291  0.3358
25954W        W42801   1.473  12.323   0.590 -0.1187 -0.1012 -0.0857
25955W        W42802   4.209  11.047   0.062 -0.0962 -0.1019  0.1246
25956W        W42803   1.147   3.171  13.882  0.2419  0.0526  0.0379
25957W        W42804  13.746   3.561  12.173 -0.0890  0.1644 -0.3206
25958W        W42805   4.572  12.810  13.821  0.0616 -0.5352  0.0458
25959W        W42806  12.973  16.341  14.608 -0.0579  0.0781 -0.1031
25960W        W42807  11.594  10.011   3.288 -0.0636 -0.0830 -0.0051
25961W        W42808  11.714  12.543  13.531  0.3278 -0.0913  0.1143
25962W        W42809   2.660   8.338  13.023  0.0805  0.1202 -0.1598
25963W        W42810  12.428   7.919   4.079  0.0679  0.1979 -0.0015
25964W        W42811  13.088   9.188   5.215  0.4679  0.3554  0.0825
25965W        W42812   8.139   0.654  16.091 -0.1365 -0.4370  0.0173
25966W        W42813   6.341  12.769  16.580  0.0341  0.1490  0.1063
25967W        W42814  12.481  10.377  12.818  0.2062  0.0797 -0.0826
25968W        W42815  14.531   1.117  14.910  0.3664 -0.2811  0.0231
25969W        W42816   3.198   0.954  13.854 -0.0675  0.0396  0.1389
25970W        W42817   4.309   5.890  12.273 -0.0694 -0.1263 -0.0693
25971W        W42818   7.914   4.627   2.287  0.3345 -0.4625 -0.0194
25972W        W42819  14.457  15.464   5.132  0.0180  0.4118 -0.1145
25973W        W42820  10.010   1.548   1.946  0.0215  0.0008  0.1009
25974W        W42821  17.260  11.745  15.344 -0.1802  0.0530 -0.0665
25975W        W42822   6.178   6.069   2.250 -0.3160  0.2996 -0.1800
25976W        W42823  17.279   4.208  10.913 -0.2750 -0.1395 -0.4753
25977W        W42824   5.379   1.208   3.351  0.1114  0.0438 -0.1871
25978W        W42825   9.926   4.285  12.789 -0.3512  0.1677 -0.0578
25979W        W42826   5.152   3.400  13.991 -0.0314  0.0181  0.1138
25980W        W42827  12.067  13.469  14.212 -0.2207  0.2661  0.0348
25981W        W42828   7.345   0.615  15.192 -0.2096  0.1757 -0.2867
25982W        W42829  11.966   2.801  16.059 -0.1565 -0.1538 -0.1432
25983W        W42830  15.462  17.664   4.700  0.0357  0.1529  0.0561
25984W        W42831  15.877   5.057   5.180 -0.0725  0.3337  0.0850
25985W        W42832  15.253   4.092  11.156  0.1754  0.0952  0.2730
25986W        W42833   6.825  13.256   0.702 -0.0293  0.0750  0.0943
25987W        W42834   0.868  16.969   1.663  0.1550 -0.3006  0.0114
25988W        W42835   1.442  14.568   2.540  0.0924 -0.0040  0.2453
25989W        W42836  14.755  12.801   3.430  0.2134  0.0389 -0.1129
25990W        W42837   5.737   3.496  16.665 -0.2515 -0.2057  0.1825
25991W        W42838   6.361  15.212   6.429  0.0047  0.1520  0.0874
25992W        W42839  17.942  15.961  16.649 -0.1984  0.2811  0.1053
25993W        W42840   7.180  17.304  15.556  0.2204  0.0645 -0.0593
25994W        W42841   4.605   5.829   2.036 -0.0520 -0.0730 -0.1970
25995W        W42842  11.216  16.890   1.632  0.1513  0.0108 -0.2836
25996W        W42843  10.423   6.234  14.844 -0.0810 -0.1016  0.0186
25997W        W42844   5.951  13.324  14.232  0.1919  0.0128  0.2842
25998W        W42845   3.049  15.157   6.086  0.0320 -0.1934 -0.1105
25999W        W42846  14.896  12.566   4.764  0.0510  0.1148 -0.4370
26000W        W42847  15.258   7.007   0.111 -0.2451 -0.0082  0.3485
26001W        W42848   9.223  15.890   3.052 -0.3918  0.1212 -0.1053
26002W        W42849   5.906  11.893   4.305  0.2177  0.4792 -0.0740
26003W        W42850  16.678  16.425   2.194  0.3020  0.1122 -0.0268
26004W        W42851   2.666   4.989  15.589 -0.0526  0.2841 -0.0487
26005W        W42852  14.029  12.713   0.090  0.1544 -0.3444 -0.3065
26006W        W42853  14.504  15.886   2.437 -0.2845  0.1825 -0.0929
26007W        W42854   9.890  10.502  13.489 -0.0507  0.2146  0.1639
26008W        W42855  13.413  12.000   1.761  0.0481 -0.0004 -0.0694
26009W        W42856   8.761   0.713  11.343 -0.0766  0.2962  0.1800
26010W        W42857  11.841   4.175   2.893  0.0144 -0.3206  0.2995
26011W        W42858   4.880   5.827   5.268 -0.0796  0.0058  0.0961
26012W        W42859  11.118  13.359   2.680 -0.0224 -0.0541 -0.1253
26013W        W42860   8.139  11.997  12.381 -0.0619  0.0672 -0.1577
26014W        W42861  16.763  17.323   4.086  0.1272 -0.2565  0.1052
26015W        W42862  16.378   6.479  12.576  0.3366 -0.0916 -0.1326
26016W        W42863  14.042  14.824  14.909 -0.0077  0.0412 -0.0541
26017W        W42864   6.549   0.402  15.513 -0.1219 -0.0341  0.0009
26018W        W42865  16.236   7.931   5.726 -0.3207  0.1081 -0.3409
26019W        W42866  13.953  10.007  16.741 -0.2487 -0.1250 -0.0163
26020W        W42867   8.281   6.956   2.754  0.0360  0.0770  0.0739
26021W        W42868   1.881  13.528  15.225  0.2029 -0.0961 -0.2311
26022W        W42869   4.675   1.833  16.537 -0.2895 -0.1252 -0.0837
26023W        W42870   3.003   1.444  12.317 -0.1358 -0.1264  0.1082
26024W        W42871  10.949  14.218  16.183 -0.0498  0.0942 -0.2484
26025W        W42872  10.413  16.680   5.492 -0.0500 -0.0014 -0.1846
26026W        W42873  10.446  10.178   1.465 -0.0633  0.1020 -0.1161
26027W        W42874   1.747   5.230   3.348 -0.1604 -0.2848  0.2726
26028W        W42875  16.073   5.812   3.166  0.3299 -0.0800  0.2181
26029W        W42876   6.049   4.725  12.460  0.0154  0.1347  0.0737
26030W        W42877  10.900  17.150  13.070  0.0017 -0.0930  0.0216
26031W        W42878   4.394   1.675   4.283  0.0154  0.2987  0.0505
26032W        W42879  13.294  12.182   4.059 -0.1787  0.0831  0.1506
26033W        W42880  13.423   1.030   5.238 -0.1207 -0.0251 -0.3561
26034W        W42881  16.867   5.863  16.275  0.0707 -0.0156 -0.1301
26035W        W42882  11.601   2.150   0.571  0.0048  0.0567  0.0093
26036W        W42883  15.822  15.917   0.460  0.1227 -0.1522  0.0629
26037W        W42884   8.620   0.886   3.472 -0.1667  0.4213  0.0680
26038W        W42885  11.252  15.615   4.951 -0.0010  0.4315  0.0476
26039W        W42886  17.276  13.897  12.357 -0.0885 -0.0203  0.1160
26040W        W42887   2.762   5.992  14.611 -0.0158 -0.1659  0.1537
26041W        W42888  15.625   4.657  13.988  0.2351 -0.0437  0.0702
26042W        W42889   1.763   0.934   0.331 -0.0074 -0.0972  0.1355
26043W        W42890   9.816  12.845   2.002  0.0639  0.0198 -0.1441
26044W        W42891  15.716   1.453  12.736  0.0448  0.1827  0.0505
26045W        W42892  15.347   1.569  11.875  0.0466  0.0811 -0.2616
26046W        W42893  12.463   2.599  14.599  0.0403  0.1864  0.0820
26047W        W42894  11.257   8.224   0.346  0.0769  0.1032  0.1295
26048W        W42895  11.458  11.685  11.913  0.2839  0.2342 -0.3008
26049W        W42896   3.955   0.613   2.598  0.3531 -0.2550 -0.1969
26050W        W42897  17.733   5.316   1.114  0.0564 -0.0540 -0.0954
26051W        W42898  13.634  15.479  14.429 -0.0490 -0.1424  0.0056
26052W        W42899   1.409   9.198   0.114  0.1202 -0.0499 -0.2389
26053W        W42900  10.875   9.939   1.318 -0.2763  0.4376 -0.2148
26054W        W42901  15.223  12.633   1.481 -0.1326  0.1359 -0.0522
26055W        W42902   2.419   8.618   0.316 -0.2005 -0.1689  0.0036
26056W        W42903  11.849   8.957   5.065 -0.2535  0.0935 -0.3647
26057W        W42904   6.076   6.870   5.044 -0.2675  0.0084 -0.1096
26058W        W42905  12.406   9.836   0.412  0.1477  0.0772  0.0448
26059W        W42906   3.693  16.165   0.977  0.2129  0.0054 -0.1656
26060W        W42907  17.651  16.989  14.197  0.0794  0.2007  0.0475
26061W        W42908   0.653   6.801   4.473  0.0892 -0.0216 -0.0524
26062W        W42909   7.551  14.670  13.194 -0.0401 -0.1545  0.0596
26063W        W42910  11.980  12.339  15.110 -0.0662 -0.2212 -0.3910
26064W        W42911  15.263   4.828  15.022 -0.1503 -0.1034  0.1090
26065W        W42912  14.750  14.554  12.204 -0.0290  0.2117 -0.0268
26066W        W42913  13.202   8.629   3.889 -0.0554  0.1424  0.1275
26067W        W42914  15.563   6.201   2.275 -0.0196 -0.0512 -0.0588
26068W        W42915  12.300  11.845  12.432 -0.0167 -0.1105 -0.1696
26069W        W42916   0.490   1.741   1.955  0.1766 -0.0709 -0.0291
26070W        W42917  14.497  14.526   1.652  0.2035 -0.0198  0.0790
26071W        W42918  15.213   2.391  15.486 -0.2208  0.0263  0.1332
26072W        W42919  12.642   7.565   5.760  0.0509  0.1674 -0.0491
26073W        W42920   4.054   0.299  12.647 -0.1430 -0.1753 -0.0351
26074W        W42921  14.740  15.542  16.412  0.3041  0.2681 -0.0984
26075W        W42922   9.955   2.418  15.725 -0.0970  0.1035 -0.0308
26076W        W42923  13.432   6.268   0.923 -0.0319  0.0578 -0.0620
26077W        W42924  12.136  14.904  14.824 -0.2079  0.0005  0.2570
26078W        W42925  13.563   1.044   4.390  0.1242 -0.1025 -0.1790
26079W        W42926  15.654  10.054  15.457  0.1791 -0.0056 -0.0640
26080W        W42927  14.193   2.145  12.370 -0.1015 -0.2295 -0.3242
26081W        W42928   4.579   5.538   2.734 -0.0293  0.4085  0.0579
26082W        W42929   6.339  11.136   1.957  0.2394 -0.1123  0.1059
26083W        W42930  16.218  14.219   0.562 -0.2271 -0.2468  0.1046
26084W        W42931   8.577  17.603   2.697  0.3433  0.0741 -0.0683
26085W        W42932  14.072  12.478   2.247  0.0142 -0.2530 -0.1907
26086W        W42933  13.187   6.601   3.991  0.0932 -0.2411  0.0564
26087W        W42934   8.369   4.215   4.521 -0.0614  0.1055 -0.0783
26088W        W42935  10.472  11.885   4.745  0.0563  0.1877  0.2740
26089W        W42936  15.445  16.657   3.158  0.0986 -0.1737 -0.1683
26090W        W42937  12.764  10.121   2.327  0.1707  0.2411 -0.0131
26091W        W42938   6.494   9.124   5.144  0.3218  0.0968 -0.0275
26092W        W42939  17.214   2.697  14.903 -0.1851  0.3628 -0.0320
26093W        W42940  11.458   8.641   2.244  0.1394  0.0675 -0.2347
26094W        W42941  12.753   4.626   4.807 -0.1458 -0.0385 -0.0938
26095W        W42942   0.913   4.958   4.845 -0.2132  0.1983  0.4045
26096W        W42943  16.524   3.339   4.483  0.0400 -0.1303 -0.1781
26097W        W42944  12.181   2.244  14.780  0.0206  0.2997 -0.1990
26098W        W42945  11.794  15.060  16.297 -0.1771 -0.1164 -0.1634
26099W        W42946   5.829  13.134   0.643 -0.1934 -0.0128 -0.1084
26100W        W42947   1.306   2.156  16.780 -0.3194 -0.2327 -0.0278
26101W        W42948   5.852   9.229   1.824  0.1361  0.0166 -0.4717
26102W        W42949  12.533   5.742   6.299 -0.1104  0.4135 -0.1027
26103W        W42950   0.608   7.405  13.886 -0.2146 -0.0703  0.3755
26104W        W42951  14.732   6.095  12.486 -0.1421 -0.0408  0.1341
26105W        W42952   9.074   7.182   3.335 -0.2101  0.1675 -0.0631
26106W        W42953  15.861  16.860  15.672  0.0854 -0.2171  0.1079
26107W        W42954  10.021  11.281  11.792  0.0283  0.2003 -0.1242
26108W        W42955   6.312  12.719  14.399 -0.0072  0.1360  0.1984
26109W        W42956   5.998   2.724  15.619 -0.0752  0.0714  0.0907
26110W        W42957  13.613  13.365  13.780  0.2484  0.4271  0.0458
26111W        W42958  15.865  16.837   6.341  0.0185 -0.2218 -0.2083
26112W        W42959   3.763  17.641   5.317 -0.0062 -0.1386  0.0816
26113W        W42960   6.713   0.690  12.657  0.0993 -0.2933 -0.0198
26114W        W42961   9.413   7.954   2.609 -0.1634 -0.0009  0.1220
26115W        W42962   7.800   6.641   0.862  0.1235 -0.0148 -0.2446
26116W        W42963   6.912  15.622   5.403 -0.0716 -0.0587 -0.1357
26117W        W42964   4.476   9.719  12.959  0.3405 -0.2672  0.2101
26118W        W42965  12.703   4.532  13.651  0.0043  0.0762 -0.0163
26119W        W42966  17.553   5.048  15.005 -0.0375  0.1042  0.3975
26120W        W42967   5.945   1.730   0.662 -0.1946 -0.0748  0.1505
26121W        W42968   6.628   2.672   0.133  0.2898  0.1408 -0.0112
26122W        W42969  17.566   8.338   1.757 -0.1710  0.0070  0.0041
26123W        W42970  12.979   5.514  14.185  0.0384 -0.0856 -0.0419
26124W        W42971   8.579   4.108   0.308 -0.0567 -0.1619 -0.2184
26125W        W42972   4.637  13.105  11.984  0.1509  0.1201  0.2124
26126W        W42973   3.843   2.772  13.909 -0.2073 -0.0701 -0.1353
26127W        W42974   3.189  17.031   5.951 -0.0302  0.0823 -0.2213
26128W        W42975  14.159  13.136  14.319  0.0909 -0.0509 -0.2136
26129W        W42976   3.579   3.271  15.176  0.1648  0.2554  0.2222
26130W        W42977   3.855   7.952   1.490  0.0460  0.0690  0.2222
26131W        W42978  11.090  16.985  14.505  0.0727  0.0240  0.0220
26132W        W42979   3.447   2.720   1.986  0.1290 -0.4838 -0.1894
26133W        W42980  12.028   2.027   5.584  0.0363 -0.0350 -0.1367
26134W        W42981  15.919   9.085  16.089 -0.3765 -0.3341 -0.1581
26135W        W42982  14.029   6.748   0.060  0.0349 -0.2206  0.1019
26136W        W42983   1.346  15.988   4.252 -0.1335 -0.0869 -0.1509
26137W        W42984   1.529  11.346   3.332  0.1794  0.0030 -0.1963
26138W        W42985  16.348   8.786   2.547  0.2149 -0.1879  0.2546
26139W        W42986   5.465   6.327   5.798  0.4060  0.2691 -0.3745
26140W        W42987  10.898  11.885  11.852  0.0169  0.2171  0.1414
26141W        W42988   4.783   9.085  14.042  0.2672  0.0906  0.0262
26142W        W42989  10.516   5.500   2.905 -0.0601 -0.0489 -0.3238
26143W        W42990   7.781   2.276  13.536  0.0841 -0.0526 -0.2570
26144W        W42991   7.299   2.233  15.173 -0.0201 -0.1403  0.2590
26145W        W42992   0.632  13.975  16.739 -0.3688  0.1061  0.0714
26146W        W42993   3.089   6.113  14.973  0.3008 -0.1583 -0.0947
26147W        W42994   7.231  12.562  14.351 -0.0236  0.0831 -0.0677
26148W        W42995   6.361  16.765   2.141  0.1517  0.0815  0.0953
26149W        W42996  14.883   4.392  11.861  0.1763  0.4382 -0.1363
26150W        W42997   2.896  17.482   3.434 -0.0624  0.0720 -0.3578
26151W        W42998   3.477   4.787  15.245  0.1996 -0.0448  0.0574
26152W        W42999  11.031  10.449   5.525 -0.2005  0.3811  0.0023
26153W        W43000  17.063   1.031   5.383  0.0515 -0.0160  0.0323
26154W        W43001   3.276  16.326  12.898 -0.0605  0.0053  0.0195
26155W        W43002  11.829  10.393   1.499 -0.0928  0.0075 -0.2462
26156W        W43003  11.362   7.059   3.035  0.1503  0.0857  0.1711
26157W        W43004  14.721  13.614  12.796 -0.0800 -0.0227  0.3627
26158W        W43005  12.830  17.915  12.570  0.1390  0.1442  0.0469
26159W        W43006   4.955   9.203   4.059 -0.2354 -0.1793 -0.1932
26160W        W43007  13.278  15.885  14.580 -0.1553 -0.0811 -0.2453
26161W        W43008  17.270   3.962  12.691  0.4056 -0.0924 -0.0183
26162W        W43009  12.155  11.076   3.667 -0.0323 -0.1745  0.0000
26163W        W43010   0.164   3.849   2.457 -0.3060  0.3786 -0.1374
26164W        W43011  14.980  11.979   2.396 -0.0012  0.0840 -0.0258
26165W        W43012   6.776   9.137   2.478  0.0844 -0.3728  0.0895
26166W        W43013   1.183   7.934  15.927  0.0828 -0.0438 -0.0932
26167W        W43014  12.545  11.773   0.897  0.2396  0.1112 -0.0081
26168W        W43015  14.618  15.067   1.858 -0.1648 -0.0461  0.0187
26169W        W43016  14.897  11.660   4.030 -0.0294 -0.4416 -0.0027
26170W        W43017  13.905  17.636   4.862 -0.3967 -0.1868 -0.0211
26171W        W43018  15.934   7.166  15.372  0.1787  0.2900  0.3496
26172W        W43019  11.823   8.377   0.999 -0.1235  0.0499  0.0199
26173W        W43020   2.699  12.865   4.500  0.1626  0.0182 -0.1364
26174W        W43021   3.196  17.545  12.113  0.1041  0.2016 -0.0485
26175W        W43022   9.362  15.507   1.095  0.2102  0.2777  0.0985
26176W        W43023  12.115   2.782   1.314  0.1768  0.3418 -0.0760
26177W        W43024   6.178   7.532  16.648 -0.0775 -0.2406 -0.1113
26178W        W43025   4.054   6.887   2.580 -0.1300 -0.0982 -0.2652
26179W        W43026  15.522  15.825  16.091  0.2446  0.0485  0.0227
26180W        W43027   2.987  14.507  13.101  0.0783  0.0955  0.0214
26181W        W43028   0.866   0.492  14.622 -0.0684 -0.1015 -0.0805
26182W        W43029  15.695   5.308   1.718  0.0527 -0.2005 -0.1109
26183W        W43030   3.949   7.856  12.975 -0.2807 -0.0299  0.1383
26184W        W43031  16.671  15.350  13.081 -0.1758  0.0579  0.1268
26185W        W43032   8.828   1.951   4.972  0.2636 -0.1994 -0.0810
26186W        W43033  15.445   2.553   2.568 -0.1405 -0.0462 -0.3452
26187W        W43034  17.708   5.912  15.864  0.3294 -0.0960  0.0446
26188W        W43035  11.990   4.913   3.036 -0.0197 -0.0409 -0.0207
26189W        W43036   2.571   4.617   4.340  0.0075  0.1039  0.1070
26190W        W43037  17.128   7.987  15.152 -0.1105 -0.0754  0.1267
26191W        W43038   1.886  12.668  12.108 -0.3309  0.0635  0.1966
26192W        W43039  15.252   3.577  16.102 -0.2064  0.0777 -0.2603
26193W        W43040   1.435   4.567   2.958  0.0260  0.0764  0.3151
26194W        W43041   0.823   1.846  16.599  0.1333  0.0976 -0.2289
26195W        W43042   8.154  17.356   4.605 -0.0297  0.1834  0.1569
26196W        W43043  12.691   1.380  13.587  0.0543  0.1630 -0.0323
26197W        W43044   8.186  11.676  13.472 -0.2876  0.0495  0.1953
26198W        W43045   2.740   1.102  16.176  0.1222  0.2071 -0.1236
26199W        W43046  12.097   4.298   1.527 -0.1611 -0.2846 -0.1968
26200W        W43047  11.024  16.762  16.636  0.2224 -0.3474  0.0679
26201W        W43048   8.190   1.337   0.062 -0.0660  0.1622  0.1090
26202W        W43049  15.214  10.044  15.748  0.1930 -0.2823  0.2932
26203W        W43050  12.640   8.100  15.128  0.3054 -0.0207 -0.3467
26204W        W43051  13.407   5.111   1.247 -0.0676 -0.2824  0.1092
26205W        W43052  12.247  16.529   5.700 -0.0484  0.1345  0.1714
26206W        W43053  11.933  14.919   1.249 -0.0486 -0.0380  0.0121
26207W        W43054  12.882  12.764   5.140  0.2376 -0.0224 -0.1429
26208W        W43055  16.977  17.615  12.796  0.2208  0.0678 -0.2081
26209W        W43056   0.242   0.769  12.707  0.1591 -0.0777  0.2546
26210W        W43057  10.012  10.250  16.391 -0.1988  0.0081 -0.1044
26211W        W43058   0.016  16.164  16.040 -0.0163 -0.0355 -0.0974
26212W        W43059  12.744   2.681   5.111  0.0005  0.1733 -0.2237
26213W        W43060   1.928  17.344  12.548  0.1526  0.1954 -0.1261
26214W        W43061  12.884  14.593   1.318  0.2421 -0.0810  0.0120
26215W        W43062  15.940  15.071   1.837 -0.0470  0.0535  0.1089
26216W        W43063  11.260   1.045  15.990 -0.1316 -0.1507 -0.2830
26217W        W43064   7.955   9.757   2.361  0.1226  0.0633  0.2426
26218W        W43065  11.507  14.081   4.298 -0.4751 -0.1656 -0.0898
26219W        W43066  14.526   5.826  14.120 -0.2208  0.1983  0.1266
26220W        W43067   4.310   7.777   1.295  0.4950 -0.1648 -0.0040
26221W        W43068  10.878   5.313  14.863 -0.1604 -0.1476  0.0929
26222W        W43069  14.617   9.047   6.301 -0.2975 -0.3094 -0.3517
26223W        W43070  16.602   7.016   0.565 -0.1154 -0.1907 -0.0001
26224W        W43071  10.517  15.015  16.022  0.1472 -0.2997 -0.2550
26225W        W43072   6.529   4.912   4.708  0.3217 -0.1771 -0.3821
26226W        W43073  16.128   9.665   4.638  0.0512 -0.0757 -0.2626
26227W        W43074  17.871  14.898  12.093 -0.1149 -0.1014 -0.0774
26228W        W43075  15.408   8.420  15.041  0.0249 -0.3432 -0.0632
26229W        W43076   3.419   4.635  12.155  0.3245  0.0458  0.1883
26230W        W43077  11.645  17.601  12.426 -0.1160  0.0051  0.1428
26231W        W43078  12.586   8.483  15.789 -0.3440  0.1095  0.0347
26232W        W43079  13.317  16.363  16.747  0.0635 -0.1057 -0.1333
26233W        W43080  12.052   7.663   4.744  0.0020  0.1438 -0.3470
26234W        W43081  12.253  11.396  13.340 -0.2674 -0.1567 -0.0123
26235W        W43082   9.879   4.588   3.738  0.1491  0.0622  0.1370
26236W        W43083  14.761   4.677   3.446  0.0471  0.1340 -0.0921
26237W        W43084   5.923  17.083  15.596  0.1038 -0.1432  0.0963
26238W        W43085   6.410  13.424  13.354  0.0827 -0.4378 -0.1134
26239W        W43086  13.090   6.957   0.174 -0.2457 -0.1480 -0.0075
26240W        W43087  13.209   1.400   1.882 -0.1016  0.1092  0.0445
26241W        W43088  10.060  13.758   2.129  0.0625 -0.3190  0.0050
26242W        W43089  14.860   6.982  16.069 -0.1396 -0.2052  0.1897
26243W        W43090  13.527  13.934  11.840  0.0139  0.1652 -0.2456
26244W        W43091  12.039   7.883   2.816  0.2624 -0.1739 -0.3212
26245W        W43092   6.442   4.306  16.364  0.1465  0.0873 -0.1630
26246W        W43093  11.993  14.609   0.734 -0.1840  0.2450  0.0346
26247W        W43094  10.723   2.717   2.939  0.0832  0.1574  0.0481
26248W        W43095   1.399  11.135   3.779 -0.3354  0.2112  0.1583
26249W        W43096   2.398  17.837   2.275  0.0994  0.4209 -0.1471
26250W        W43097  14.533  14.480  13.677  0.1406 -0.0934 -0.0216
26251W        W43098   0.500   2.778   1.148 -0.1880 -0.1155  0.1010
26252W        W43099   7.611  17.342  15.882  0.0300 -0.0073 -0.1127
26253W        W43100   2.151  10.609   1.919  0.1352  0.2269 -0.0808
26254W        W43101  16.340  14.986  15.458 -0.1192 -0.1787  0.2916
26255W        W43102   8.644   7.035  16.671 -0.1407 -0.0417 -0.1022
26256W        W43103   7.466   1.293   4.276  0.0216  0.0700  0.1209
26257W        W43104  14.157  14.627  16.403 -0.0620 -0.0429  0.1751
26258W        W43105  17.809  10.513   3.068  0.0440  0.1066 -0.0696
26259W        W43106  12.646   0.952  13.890  0.3078  0.1474 -0.2438
26260W        W43107   3.755  10.949   1.612 -0.1836 -0.0327 -0.0830
26261W        W43108   2.309  13.724   1.335 -0.1449 -0.0961  0.0437
26262W        W43109   2.182  17.480  13.994  0.1231 -0.0995 -0.1204
26263W        W43110   9.859   4.694  14.059 -0.1474 -0.2418 -0.0905
26264W        W43111   0.925  17.192   4.438 -0.0869 -0.1057  0.0120
26265W        W43112   1.493   6.411   3.173 -0.1429  0.0052  0.2950
26266W        W43113   6.117   4.029  15.413 -0.0620 -0.1536  0.1849
26267W        W43114  13.033  11.676   1.713 -0.0501 -0.3003 -0.0410
26268W        W43115   1.195   5.640  16.604 -0.1355  0.2502  0.1053
26269W        W43116  15.408   2.260  14.232 -0.3688  0.0328 -0.2848
26270W        W43117   3.644  13.833  13.363 -0.2086 -0.1579 -0.1074
26271W        W43118   6.342   1.772  14.009 -0.1641  0.1536  0.0515
26272W        W43119  11.681   3.011  11.362 -0.4375 -0.0503 -0.2283
26273W        W43120   9.625   4.127   2.905  0.1498  0.2774 -0.1645
26274W        W43121   6.806   7.738  12.512 -0.0069 -0.2239  0.0453
26275W        W43122   5.113  15.466   5.161 -0.1334  0.1111  0.0389
26276W        W43123   3.496  11.389  12.470 -0.1351  0.1699  0.0284
26277W        W43124  14.594  14.879   5.004 -0.1980  0.0887  0.2517
26278W        W43125   1.387  17.106  15.968 -0.2200 -0.3291 -0.1659
26279W        W43126   7.473   1.071  11.595 -0.0127 -0.2487  0.1244
26280W        W43127   1.022  14.479  15.740 -0.1407 -0.1380  0.0203
26281W        W43128  17.937   1.374   5.523 -0.1556 -0.0726  0.0695
26282W        W43129   0.135  13.634   4.514 -0.1746 -0.0451 -0.0281
26283W        W43130  14.960   0.695   1.533  0.3104  0.1100 -0.1817
26284W        W43131   8.414   2.834  12.905 -0.1247  0.1411  0.0692
26285W        W43132   7.619   1.826   4.659 -0.0786 -0.1689 -0.3015
26286W        W43133  15.577  16.153   3.263 -0.2605 -0.1515  0.3787
26287W        W43134   8.021   4.644   0.808 -0.3601 -0.0788  0.0202
26288W        W43135   4.088   4.563  13.604 -0.0342  0.0345 -0.1123
26289W        W43136   4.525  17.295   1.093  0.1632 -0.0629  0.0333
26290W        W43137   3.992   0.090   1.521  0.0790 -0.2135 -0.3870
26291W        W43138   2.982  12.068   1.687  0.1129 -0.0001  0.0206
26292W        W43139  12.915   1.664  12.808 -0.2964 -0.0308  0.1941
26293W        W43140   3.755  16.421   0.460  0.0220  0.1219  0.1479
26294W        W43141   1.261   8.692  13.465 -0.0909  0.0048 -0.1389
26295W        W43142   5.585  11.869   2.690  0.0801  0.0035 -0.1536
26296W        W43143   4.269   5.775   4.524  0.0114 -0.0408  0.0190
26297W        W43144  13.785  15.025  16.616 -0.1624  0.2992  0.0645
26298W        W43145  12.987  17.747  12.149  0.0786  0.0958  0.4311
26299W        W43146  10.761  11.116   4.941  0.0744 -0.0543 -0.1290
26300W        W43147  13.157   8.635   1.011 -0.0536 -0.1334 -0.2450
26301W        W43148   8.910   3.807   1.182 -0.0118 -0.2525 -0.0778
26302W        W43149  15.952  16.923   5.778 -0.1689 -0.3025 -0.0091
26303W        W43150   2.391  15.685   3.300 -0.0527 -0.0839 -0.0065
26304W        W43151   0.397  16.349   0.514 -0.1790  0.0762 -0.2070
26305W        W43152  12.700   9.540  13.775 -0.1092 -0.2184  0.1114
26306W        W43153   9.354  15.150   3.045  0.1385 -0.1452 -0.1389
26307W        W43154   6.539   0.973   0.630 -0.1931 -0.5932  0.1802
26308W        W43155  10.601   1.313   0.079 -0.0876 -0.0903 -0.1399
26309W        W43156   5.279  15.097   4.893  0.0614 -0.1998 -0.2480
26310W        W43157  16.177  16.820   2.177 -0.0989  0.0188 -0.4709
26311W        W43158   7.528  11.170   1.804 -0.1373  0.2004  0.0670
26312W        W43159  11.041   0.427   2.552  0.0034  0.2122  0.2235
26313W        W43160   8.970   5.526   3.454 -0.0186  0.0987  0.2146
26314W        W43161  16.292  13.999  14.380  0.0443  0.1353  0.2565
26315W        W43162   5.269   1.040   4.304 -0.0275 -0.1127  0.0316
26316W        W43163  17.309  14.282   0.707  0.0320  0.0744  0.1552
26317W        W43164  15.029   4.181   4.570 -0.1797  0.1890 -0.1910
26318W        W43165  14.119  13.392  12.148  0.4156 -0.0487 -0.1108
26319W        W43166   0.430   2.102  13.760  0.1154  0.1364 -0.0434
26320W        W43167   5.924  11.985   2.339 -0.1952  0.0569 -0.0251
26321W        W43168  16.299   3.927  13.766  0.0264  0.2464 -0.4466
26322W        W43169  17.423   1.696   0.908 -0.0570 -0.3321  0.1607
26323W        W43170  10.959  12.672   0.658 -0.0385 -0.0946  0.0070
26324W        W43171   9.968   7.922  13.336  0.0161 -0.1751 -0.2050
26325W        W43172   6.505  10.496   4.677  0.1102  0.2029  0.4171
26326W        W43173  14.252  16.257  14.064  0.1282  0.0827 -0.0762
26327W        W43174  17.473   4.174  12.306 -0.1824  0.1156  0.1954
26328W        W43175  10.362  12.849  15.670  0.0213  0.0797  0.0073
26329W        W43176  11.366   7.168  13.009  0.0743 -0.0096  0.0842
26330W        W43177   9.481   6.753  16.078  0.0270 -0.1838  0.0232
26331W        W43178   2.513  11.716   3.431 -0.1492  0.0435 -0.3222
26332W        W43179  13.238  16.912   1.868  0.4841  0.0347  0.0860
26333W        W43180   2.661   5.711  16.752  0.2924  0.1963 -0.1917
26334W        W43181   6.127  11.065  16.006  0.3454  0.2019 -0.1583
26335W        W43182   5.033  14.132  14.588  0.1608 -0.2873  0.0601
26336W        W43183   0.322   5.864   2.591 -0.1238  0.0831  0.0291
26337W        W43184   3.002  12.436   4.583 -0.0464 -0.2354  0.1972
26338W        W43185   9.214   4.904  12.522 -0.0676  0.0068  0.2382
26339W        W43186   8.018  12.984   4.660 -0.2432  0.1796  0.2111
26340W        W43187  17.057   7.180   1.036  0.3290  0.0923  0.1507
26341W        W43188  16.107   0.394   2.288 -0.0539  0.2641 -0.3263
26342W        W43189   8.100  13.360  15.030  0.1165  0.2762 -0.1608
26343W        W43190   1.033   3.703   6.162  0.0750 -0.0118  0.1043
26344W        W43191  16.168   0.139  15.774  0.0122 -0.1881 -0.2707
26345W        W43192   3.881   4.637   0.082  0.1127 -0.1936 -0.0680
26346W        W43193   4.234  11.490   2.860  0.0441 -0.1959 -0.0006
26347W        W43194  17.592  14.202  12.845  0.3972  0.3651 -0.2302
26348W        W43195   3.782   7.201  16.782  0.1432 -0.3475 -0.2894
26349W        W43196  13.262  15.630   0.232 -0.1132  0.0276 -0.0512
26350W        W43197  14.980   0.756  11.507 -0.0704  0.2073 -0.3340
26351W        W43198   1.387   7.729   1.845  0.0255  0.0571 -0.0606
26352W        W43199  12.315   5.982   5.481  0.4228  0.1028  0.2978
26353W        W43200   1.858  16.941   4.999  0.1903  0.0247  0.5148
26354W        W43201   1.859   6.751  13.548  0.0721 -0.0402 -0.1192
26355W        W43202   8.103   1.668  15.791 -0.0769 -0.2445  0.2406
26356W        W43203   6.527   4.686  13.748 -0.0047 -0.0531  0.0519
26357W        W43204  12.621  14.150   5.457 -0.2551 -0.0192  0.1780
26358W        W43205  16.851   0.498  14.421  0.0241  0.0367  0.0714
26359W        W43206   8.378   1.073   2.209 -0.2301  0.0917 -0.1000
26360W        W43207   2.026  10.650   1.411  0.1679 -0.0097  0.0630
26361W        W43208  12.205   2.875   0.674  0.2118 -0.1855  0.0489
26362W        W43209  17.705   0.906  14.455  0.0786  0.2000 -0.0034
26363W        W43210   4.070  10.035  13.685 -0.1148  0.1403 -0.0841
26364W        W43211  12.005   0.359  11.386  0.0000  0.0690 -0.2660
26365W        W43212  10.931   5.093  13.938  0.1780 -0.0707 -0.0138
26366W        W43213  15.322  10.647  14.774  0.3304 -0.0252  0.1258
26367W        W43214   7.431   9.335  16.153  0.3319  0.0072  0.1091
26368W        W43215   2.400  15.207   4.942  0.1879 -0.1238  0.1296
26369W        W43216  10.193   3.806  14.209 -0.3098  0.1219 -0.0513
26370W        W43217   5.834  12.743   1.504 -0.3023 -0.1799  0.1893
26371W        W43218   6.713   8.565   0.906 -0.1748 -0.1756  0.3514
26372W        W43219   5.294   8.809  12.160 -0.0424  0.1623  0.1268
26373W        W43220  13.930  12.865  12.600 -0.2964 -0.1702 -0.3525
26374W        W43221  15.518   5.946  16.300 -0.0599 -0.0176  0.2733
26375W        W43222  10.678  12.952   0.995 -0.1997  0.2121 -0.3399
26376W        W43223  10.911  16.780   5.664  0.1246 -0.0295  0.0250
26377W        W43224   1.900   3.940  14.711 -0.0044 -0.0647  0.0106
26378W        W43225  14.464   6.333   3.547 -0.0138  0.5639  0.4781
26379W        W43226  10.134   5.071   0.361  0.1269 -0.1069 -0.2211
26380W        W43227  13.070   9.047   3.009 -0.0738  0.2118  0.2371
26381W        W43228  11.635  15.529   3.802 -0.0501 -0.2626  0.0179
26382W        W43229  15.713  16.276   1.822  0.1506 -0.0419  0.2573
26383W        W43230   5.422  12.497  15.603  0.1645  0.0602  0.0809
26384W        W43231  17.172   7.342   4.155  0.0294  0.2109  0.3486
26385W        W43232  17.160  16.481   6.067 -0.1115 -0.0980  0.1158
26386W        W43233   6.887  16.587   4.283 -0.1310 -0.0981 -0.2157
26387W        W43234   3.566  16.291  15.725 -0.0572 -0.2308 -0.0835
26388W        W43235  15.813  11.666  14.630  0.0258 -0.2217 -0.0051
26389W        W43236  17.293   0.567   4.162  0.0173 -0.3307 -0.0122
26390W        W43237  15.165   5.458   3.010 -0.3234  0.2166 -0.2740
26391W        W43238   1.535  11.865  16.237 -0.4423 -0.0667  0.0646
26392W        W43239  13.561  13.207  14.295  0.3448 -0.2068 -0.0105
26393W        W43240   3.144   8.989  12.804  0.0547  0.2299  0.0885
26394W        W43241   0.862   7.503   3.826 -0.3355  0.0778 -0.3229
26395W        W43242   5.797   1.021   4.887 -0.1639  0.0000 -0.1832
26396W        W43243   0.217  15.083   3.207 -0.0324  0.1298 -0.1148
26397W        W43244   1.593  14.291  14.916 -0.0105 -0.0204 -0.0353
26398W        W43245  15.448   2.718  15.141 -0.1149 -0.2900 -0.1204
26399W        W43246  12.941   3.408  14.149 -0.1202  0.0094  0.1335
26400W        W43247   1.033  15.241  13.981  0.0352  0.2574  0.0742
26401W        W43248   6.030   3.821  14.290  0.0379 -0.3379  0.0202
26402W        W43249  14.439   8.245  14.731 -0.0682  0.0182 -0.0104
26403W        W43250   7.244  15.904  13.352  0.0995  0.1230 -0.0581
26404W        W43251  16.630   4.810   0.365  0.1022  0.4474 -0.2715
26405W        W43252  15.470  13.650   0.028  0.1460  0.0096  0.3736
26406W        W43253   1.088   2.707   5.369  0.0963 -0.1146  0.1546
26407W        W43254   0.323   3.894  15.153 -0.2417  0.1136  0.2272
26408W        W43255  16.503   0.944   4.060  0.1816  0.2899 -0.0340
26409W        W43256   0.627   2.935  13.112 -0.0357 -0.0471 -0.0408
26410W        W43257   8.502   7.052  14.096 -0.1097 -0.2666 -0.4133
26411W        W43258   5.317  13.253  15.100  0.1413 -0.2716 -0.1063
26412W        W43259  15.562   5.341  13.846  0.0401 -0.0266 -0.1373
26413W        W43260  17.842  15.341  15.991  0.0693  0.0527  0.1327
26414W        W43261  13.747   3.831  13.036 -0.0920  0.1441 -0.2524
26415W        W43262   6.611   4.810   2.606  0.0810 -0.0723 -0.0573
26416W        W43263  12.546   0.367  15.719  0.0893  0.3339  0.1088
26417W        W43264  15.384  11.576   1.934  0.1268  0.0780  0.0479
26418W        W43265  16.062   0.843   4.336  0.0900  0.1242  0.2650
26419W        W43266  14.134  15.866  14.324 -0.1304 -0.1996  0.1724
26420W        W43267   4.081   5.420  14.761  0.1516 -0.0033 -0.3242
26421W        W43268   4.154  13.302   4.339 -0.0582 -0.3896 -0.0306
26422W        W43269   9.826   2.596  12.413  0.0189 -0.0929  0.5175
26423W        W43270  17.883  11.323  13.981  0.2287  0.3537 -0.2054
26424W        W43271  14.649  14.471   4.618 -0.0815 -0.1243 -0.0970
26425W        W43272  12.961  10.297  14.631  0.2357 -0.1723  0.0674
26426W        W43273  17.861  17.275  13.234 -0.0859  0.0080 -0.0590
26427W        W43274   8.092  16.823  13.588  0.2798  0.1777  0.0549
26428W        W43275  13.943   3.117   1.434  0.0100  0.2039  0.1082
26429W        W43276  11.362  10.782  14.370  0.3539 -0.1200  0.0162
26430W        W43277   9.163   1.868  12.369  0.0305 -0.3040 -0.2500
26431W        W43278  12.897  15.103  12.866  0.2734 -0.0152 -0.0649
26432W        W43279  10.092   3.500  11.161 -0.2848 -0.0633  0.1828
26433W        W43280   0.690  13.809   4.829  0.2442 -0.1571  0.0989
26434W        W43281  17.879  12.703   5.936 -0.0139  0.0665  0.2060
26435W        W43282  11.186   8.801  11.895 -0.2983  0.1947 -0.0909
26436W        W43283  11.173   1.767  14.582  0.1865  0.0506 -0.0045
26437W        W43284  17.105  14.240  14.685  0.2253  0.0428  0.1628
26438W        W43285   7.141   4.821   1.766  0.0091  0.0841 -0.3460
26439W        W43286   3.966  13.211  15.753 -0.1774 -0.1429 -0.1503
26440W        W43287   4.318   3.474  13.670 -0.0110 -0.3098  0.3050
26441W        W43288  11.787  15.224   3.364 -0.0801 -0.1503 -0.0898
26442W        W43289   9.087  15.869   2.169 -0.3608  0.2154  0.1886
26443W        W43290  15.656  10.333  14.555  0.1506 -0.1829  0.0778
26444W        W43291  11.255  12.065   3.806 -0.0816  0.0625  0.1207
26445W        W43292  13.053  17.050   5.308 -0.0978 -0.5834 -0.2613
26446W        W43293  12.282  16.612  12.686 -0.0651  0.1151  0.0419
26447W        W43294  15.737  13.707   2.769 -0.0260  0.1002 -0.0161
26448W        W43295  15.058  14.033  15.124  0.2153 -0.2741 -0.1694
26449W        W43296  17.823  11.021  13.205 -0.0127 -0.0572  0.1849
26450W        W43297   0.931  10.435   4.444  0.0276  0.2259  0.0882
26451W        W43298   7.564   3.434  11.608  0.1478 -0.1001  0.1717
26452W        W43299   4.528   7.871  15.945  0.0426 -0.0308 -0.2652
26453W        W43300   4.494   5.511   4.946  0.0287  0.1860 -0.1051
26454W        W43301   3.154   3.650  14.324 -0.1308 -0.0311  0.1036
26455W        W43302   2.530   7.212  15.074  0.1270 -0.0238  0.2001
26456W        W43303   5.857  16.017   0.703  0.2722 -0.0356  0.0757
26457W        W43304   6.215   7.391   4.412 -0.1069 -0.0256  0.2875
26458W        W43305  10.445  10.156   3.978 -0.1536 -0.2020 -0.0397
26459W        W43306   6.485  14.430  14.830  0.0216  0.2000  0.0878
26460W        W43307   9.485  15.270  13.235 -0.1387  0.1249 -0.0587
26461W        W43308  16.382   2.834   3.580  0.0571 -0.0324 -0.2576
26462W        W43309   3.045   6.722  11.867  0.0653 -0.0741  0.3150
26463W        W43310  11.520   7.364   1.761  0.3927  0.0428 -0.2644
26464W        W43311  12.874   7.673  13.930 -0.0570 -0.0627  0.1605
26465W        W43312  14.504   9.335  16.725  0.1078  0.2051 -0.0914
26466W        W43313   3.334  14.988  15.807  0.0593 -0.0014 -0.1537
26467W        W43314   8.551  15.492  15.648 -0.1129  0.0457 -0.0133
26468W        W43315  14.130   8.129   3.075 -0.5489  0.3274 -0.0747
26469W        W43316  14.053   6.420  16.435  0.1157 -0.0794 -0.1495
26470W        W43317   3.693  16.428   1.967  0.0412  0.0310 -0.1704
26471W        W43318   2.401   6.338   4.144  0.3667  0.2156  0.1066
26472W        W43319  11.822  14.266   1.147 -0.2156 -0.1368 -0.2692
26473W        W43320  17.797  12.237  13.702 -0.1090 -0.1892 -0.3403
26474W        W43321  13.400  10.665   4.466  0.1965  0.0493  0.0792
26475W        W43322   8.060   3.436   3.783 -0.1163  0.2708 -0.1493
26476W        W43323  10.556   9.659   0.671  0.0966  0.1928 -0.0090
26477W        W43324  10.148  17.723  13.988  0.0568  0.0087 -0.0636
26478W        W43325  13.970   3.310   2.799 -0.3380 -0.0048  0.0304
26479W        W43326   6.979   7.610  16.304 -0.0287  0.3056  0.1358
26480W        W43327   1.043  13.914   4.445  0.0583  0.1647 -0.1994
26481W        W43328  14.010   6.639  14.293  0.0172  0.2132  0.1512
26482W        W43329   1.014  14.629  13.943  0.2894 -0.0056 -0.2135
26483W        W43330   1.078   5.027   5.813 -0.0824 -0.2321  0.1199
26484W        W43331  10.869   4.959  15.217  0.1374 -0.0025 -0.3407
26485W        W43332  17.654   1.597   4.043  0.0372  0.0084 -0.1277
26486W        W43333  11.100   3.050   2.422  0.1181  0.0563 -0.1115
26487W        W43334  13.048   3.366   0.556  0.0639  0.1084  0.0498
26488W        W43335   6.069   6.700  11.073 -0.0875  0.1280  0.1526
26489W        W43336   9.303  13.977  12.737 -0.1920 -0.0515  0.0996
26490W        W43337  10.820   9.147   1.316 -0.0434 -0.1421  0.0469
26491W        W43338  17.097  13.145  14.216 -0.2584  0.3871  0.2648
26492W        W43339  16.678   5.536  15.455  0.0203  0.1610  0.1211
26493W        W43340   3.623  11.878   1.816 -0.0101 -0.0852 -0.3657
26494W        W43341  15.133   9.494   4.496  0.1824  0.0775 -0.1568
26495W        W43342  10.733   9.797   3.594 -0.1031 -0.0715 -0.4652
26496W        W43343   9.880   9.440  12.882  0.1363  0.0937  0.1137
26497W        W43344   7.678   7.591   5.016  0.0464 -0.0603  0.0294
26498W        W43345   9.711   0.059   2.627 -0.2417  0.0147  0.1004
26499W        W43346   1.782  10.030  12.217 -0.0025 -0.0924  0.0457
26500W        W43347  15.790   4.196  12.602 -0.0915 -0.1475 -0.0791
26501W        W43348   0.861  17.168  10.876 -0.1695 -0.0502 -0.2847
26502W        W43349   1.797   3.056  15.156  0.0387 -0.1638 -0.1705
26503W        W43350   2.202   8.920   1.100  0.0646 -0.2455 -0.0218
26504W        W43351  13.114  12.609  15.367 -0.0569 -0.0234 -0.0863
26505W        W43352   6.610   8.219   2.788 -0.0742 -0.0994 -0.0230
26506W        W43353   7.236   9.039  14.333 -0.0900  0.0261 -0.1302
26507W        W43354   9.720  16.388   3.572  0.0057  0.1150  0.0718
26508W        W43355   5.391   2.410   3.015  0.1763  0.0254 -0.2760
26509W        W43356  14.792  11.241   4.248 -0.3599 -0.1052  0.2012
26510W        W43357   4.753  11.411   4.081  0.3231 -0.1053  0.0609
26511W        W43358   8.287   9.783  12.658 -0.3477 -0.0543 -0.3536
26512W        W43359   4.679   2.616   2.246 -0.0010  0.0501 -0.4652
26513W        W43360  16.981   2.527  11.305  0.1140  0.0531  0.1184
26514W        W43361   1.040   4.955   5.338 -0.5275  0.2493 -0.1188
26515W        W43362  11.510   0.496  13.784 -0.1132  0.0463 -0.1643
26516W        W43363   8.447  11.354   5.780 -0.1881 -0.2146 -0.0745
26517W        W43364  12.478  16.831  14.013  0.1921  0.0577  0.3794
26518W        W43365   5.732  16.706  15.858 -0.0773  0.0656 -0.0623
26519W        W43366  17.059   6.165  13.729  0.1351 -0.1358 -0.0487
26520W        W43367   1.603   6.893   4.908  0.0560  0.0636  0.0153
26521W        W43368   8.056   8.864  12.181  0.2847 -0.0307 -0.0205
26522W        W43369   2.940   3.814   3.840 -0.1066 -0.2052  0.2942
26523W        W43370  16.226  13.965  16.426  0.1109 -0.1101 -0.2500
26524W        W43371  12.079  17.112  14.812  0.2206  0.0023 -0.0362
26525W        W43372  12.198  10.142  14.987 -0.0932 -0.0502  0.2112
26526W        W43373   2.762   8.691  16.136  0.1084 -0.0249  0.0150
26527W        W43374  16.881  10.736  16.798 -0.2522 -0.0516 -0.0513
26528W        W43375   3.558   2.001   3.907 -0.0631  0.2209  0.3138
26529W        W43376  17.221   2.637  14.401 -0.2016  0.0678 -0.0327
26530W        W43377   4.086  11.902   0.845 -0.1129  0.3070 -0.0652
26531W        W43378   3.494  16.621   2.937 -0.1362  0.3832 -0.2303
26532W        W43379  11.782  12.688   1.659 -0.1181 -0.2911 -0.3356
26533W        W43380  13.383   8.620   5.223 -0.1221  0.1864 -0.3470
26534W        W43381   7.254  14.998  16.472  0.1269 -0.0185  0.1171
26535W        W43382   6.019   9.021  15.739 -0.0841  0.1883 -0.0051
26536W        W43383   7.600  12.826   1.667 -0.1421 -0.5099  0.2443
26537W        W43384   0.876  11.841  16.743 -0.1680 -0.0748  0.0132
26538W        W43385  15.349   7.883  15.873 -0.0740  0.0449 -0.0239
26539W        W43386  17.029  15.522   6.028  0.0681  0.0669  0.0670
26540W        W43387  15.822   4.366   0.495  0.0712  0.1730  0.2435
26541W        W43388  13.714   0.243   4.926  0.1262  0.0785 -0.0912
26542W        W43389   2.579   4.806   5.592  0.1041 -0.0174 -0.1724
26543W        W43390   5.297  10.604  12.089  0.1991  0.0465  0.1467
26544W        W43391  10.903   1.788   5.459 -0.1187 -0.1631 -0.0661
26545W        W43392   3.578   9.499   4.142  0.0366  0.0508 -0.2561
26546W        W43393   9.862   9.511   2.310  0.3218  0.1513  0.0389
26547W        W43394  17.077  16.389  16.406  0.3310 -0.0972  0.3212
26548W        W43395  12.320  17.949  14.643  0.0236  0.4019 -0.0063
26549W        W43396   8.252   7.540  14.157 -0.0388  0.0853 -0.0590
26550W        W43397   9.867  14.437  16.383 -0.0044  0.0954  0.0211
26551W        W43398  13.942  17.761  14.728  0.1025  0.0522  0.0494
26552W        W43399  17.909  12.928   1.167 -0.0558  0.1082  0.1533
26553W        W43400   8.891  16.624   1.849 -0.0555  0.1934  0.2625
26554W        W43401   9.023  12.206   4.324 -0.0964  0.0547 -0.0408
26555W        W43402   7.372   8.294  16.164  0.0909  0.0089  0.2919
26556W        W43403  17.067  15.630  14.313 -0.4275  0.0361  0.1218
26557W        W43404   7.452  10.451   2.460  0.1155  0.1253  0.1183
26558W        W43405  15.607  14.698  11.911 -0.0767  0.4335 -0.3850
26559W        W43406  12.457   4.085  13.561 -0.0763  0.0180  0.0324
26560W        W43407  14.725   3.622   3.855  0.4370 -0.3103  0.0346
26561W        W43408   4.692  14.339   0.393  0.0135  0.3913  0.3253
26562W        W43409   3.334   3.354   4.803 -0.2587 -0.4531 -0.0385
26563W        W43410   8.165  16.590   2.845 -0.4481  0.0165 -0.1642
26564W        W43411   4.631   8.205   3.669  0.1225  0.1212 -0.3252
26565W        W43412   7.192   6.371  12.715  0.2672 -0.0233  0.0121
26566W        W43413   1.239   6.930  15.772 -0.1473 -0.2051  0.2690
26567W        W43414   5.888  11.352  12.129 -0.0291  0.1813  0.2435
26568W        W43415  12.667  16.348  15.992 -0.0141  0.1722 -0.0246
26569W        W43416   1.622  13.224   3.413  0.1105  0.0473 -0.2270
26570W        W43417  10.959   0.580  13.771 -0.2398 -0.1485 -0.1618
26571W        W43418   5.805  13.734  12.597  0.3884 -0.0067  0.0211
26572W        W43419   2.020  12.690   2.827 -0.0723  0.0256  0.2175
26573W        W43420  17.339  10.461   2.911  0.1729 -0.1512  0.0347
26574W        W43421   6.495   4.299  15.827 -0.0627  0.1908  0.0155
26575W        W43422   0.799  13.014   5.780  0.0213 -0.0498 -0.1611
26576W        W43423  17.762  13.382   3.388  0.1878  0.2056  0.0281
26577W        W43424  14.634   1.380   2.168  0.0637 -0.0719 -0.0565
26578W        W43425   2.764  10.507  13.459  0.2651 -0.0900 -0.1543
26579W        W43426  11.071  14.257   5.286 -0.4276  0.2300 -0.1643
26580W        W43427  12.162   6.399   3.088 -0.2532  0.0449 -0.0550
26581W        W43428  16.781   9.680   5.369  0.1582 -0.1138  0.4048
26582W        W43429  10.895   6.893  15.794 -0.3077  0.1713  0.3492
26583W        W43430   3.905  12.443   4.802 -0.0361 -0.1063 -0.1623
26584W        W43431  10.943   1.884  15.040  0.1839 -0.1298 -0.0343
26585W        W43432  11.549  16.004  15.164  0.0111 -0.5257  0.0431
26586W        W43433  12.236   6.002   4.091 -0.2723  0.1502  0.0298
26587W        W43434   3.220   4.194  16.717  0.2585 -0.0525  0.3332
26588W        W43435   3.243  16.714   2.102 -0.1864 -0.0628 -0.2356
26589W        W43436  12.030  17.316   0.820  0.1017  0.0653  0.1463
26590W        W43437   0.710  16.462   3.233  0.1052 -0.2178  0.0220
26591W        W43438   2.740   3.310   4.793 -0.0426  0.1562  0.1781
26592W        W43439   3.541   0.182  11.361 -0.1154 -0.0258 -0.1901
26593W        W43440  12.732   1.784  15.705 -0.4027 -0.0256 -0.1955
26594W        W43441   8.136   0.319  12.593  0.0115 -0.2409 -0.0853
26595W        W43442  15.021   0.856   0.777 -0.0176 -0.0028 -0.0821
26596W        W43443  15.426   2.168  11.869 -0.0432 -0.1185  0.1974
26597W        W43444   0.058  14.615   5.641  0.0726 -0.2795  0.0313
26598W        W43445   3.504  17.668  14.709  0.2083  0.3279  0.2045
26599W        W43446   9.829   1.845   2.729 -0.2579 -0.5037  0.0672
26600W        W43447  14.587  10.848  14.266 -0.1044  0.4526  0.2263
26601W        W43448  12.158  14.514  13.411  0.1096  0.2137 -0.0902
26602W        W43449   2.540  14.296  13.899  0.0869  0.0309  0.1863
26603W        W43450   4.490   8.737   5.748 -0.3211  0.0829  0.0342
26604W        W43451   6.182   5.874  14.419  0.0669  0.1120 -0.2981
26605W        W43452   7.568   9.846   1.596  0.3078  0.0802  0.5399
26606W        W43453   9.567   7.201   4.889  0.0986 -0.1773 -0.1016
26607W        W43454   0.268  14.751   2.287 -0.0613  0.2755  0.1212
26608W        W43455  17.474  15.528   3.818  0.2599 -0.1881 -0.0031
26609W        W43456   7.091   8.984  13.032 -0.2228  0.5385 -0.0702
26610W        W43457  17.204   2.749   4.204 -0.1763 -0.1472  0.0872
26611W        W43458   0.054  11.557  12.410  0.0310 -0.0228 -0.1911
26612W        W43459   2.499   1.344   3.955  0.3597 -0.0931 -0.1299
26613W        W43460  17.289   4.356  15.410  0.0333  0.1452 -0.2354
26614W        W43461   9.856   8.197  15.366  0.4777  0.1910 -0.1854
26615W        W43462   6.280  15.392   4.020  0.2469 -0.3013 -0.2377
26616W        W43463  14.202  14.886  12.938  0.0231 -0.0386  0.0840
26617W        W43464  15.393   8.687   2.690  0.0511  0.0290 -0.0047
26618W        W43465   7.334   2.227  13.091 -0.1659 -0.0445 -0.0327
26619W        W43466  15.529  15.995   2.271 -0.1269 -0.1852  0.1886
26620W        W43467  14.970   6.828  11.761 -0.0267 -0.1126 -0.1211
26621W        W43468   8.040  12.932  12.271  0.0125 -0.1864  0.1302
26622W        W43469   2.982  13.679  12.149 -0.0435 -0.2064  0.1283
26623W        W43470  16.573  12.007   1.705 -0.2198  0.0993 -0.0256
26624W        W43471  12.633  11.375   3.729  0.3576 -0.2717  0.2939
26625W        W43472   7.772   5.418  14.892  0.0615 -0.0657  0.0491
26626W        W43473   8.060  10.523   4.092  0.0647 -0.0661 -0.3184
26627W        W43474  17.831  14.542   5.178  0.3482  0.1915 -0.1820
26628W        W43475   2.861   2.440  15.380 -0.0622  0.1587  0.0166
26629W        W43476  15.452   9.094   4.396  0.0641 -0.1414 -0.1986
26630W        W43477  16.945  15.060  13.458 -0.2091 -0.1184 -0.2534
26631W        W43478  15.302   4.895  13.677  0.0373  0.0820  0.0115
26632W        W43479  17.240  10.073   4.908  0.0962 -0.1029  0.0463
26633W        W43480   8.296   2.349  11.396 -0.0678  0.2559 -0.0251
26634W        W43481  16.844   6.112   2.103  0.3002 -0.0844  0.0846
26635W        W43482   1.736   2.245  16.311 -0.1190 -0.3446 -0.2424
26636W        W43483   1.019  12.164   0.789 -0.3482  0.1930 -0.0450
26637W        W43484  17.749   1.218   4.969 -0.1797 -0.0520 -0.0210
26638W        W43485  17.415  10.166   4.005 -0.0576 -0.3951  0.0186
26639W        W43486   2.691   8.727   0.961  0.0999 -0.4263  0.0324
26640W        W43487  11.626  13.840  13.493 -0.4218 -0.3152  0.3890
26641W        W43488   5.748   9.121  16.253 -0.1310 -0.2345  0.0455
26642W        W43489   9.533  12.859   0.641 -0.0963 -0.0642  0.0221
26643W        W43490  15.519   2.460   0.267  0.0975  0.1425 -0.0093
26644W        W43491  16.593  15.257  16.695 -0.0970  0.0607  0.1389
26645W        W43492   6.256   6.986   0.251 -0.1422 -0.1651  0.2312
26646W        W43493   9.793  10.489  12.152 -0.1209  0.3682  0.1039
26647W        W43494  16.602   8.513  16.165  0.2434  0.1755  0.1028
26648W        W43495   3.939  17.760  12.604  0.0714 -0.1408  0.2681
26649W        W43496  14.117  15.072   1.097 -0.1641 -0.0746  0.0170
26650W        W43497   0.170  13.675  14.053  0.1802 -0.1075  0.3891
26651W        W43498   5.651   0.407   0.358 -0.0736 -0.0562  0.0396
26652W        W43499  11.444  17.175  16.538  0.0377  0.1817 -0.0067
26653W        W43500   0.072   2.052   2.213  0.0481  0.0442 -0.1155
26654W        W43501   8.964   8.263  14.852  0.2854  0.1444  0.0580
26655W        W43502  14.166   4.423  16.187 -0.3807  0.0918 -0.2412
26656W        W43503  11.215  15.952   3.735  0.1405  0.0295 -0.1166
26657W        W43504   6.046   0.145   3.285  0.1280  0.2605  0.0314
26658W        W43505   5.531   8.437  11.850 -0.2872 -0.0959 -0.3549
26659W        W43506   2.392   6.383   3.015  0.1374 -0.2373 -0.1580
26660W        W43507  14.529  11.965   2.771  0.0799 -0.1616  0.0694
26661W        W43508   5.279  11.498   2.790  0.1211  0.0521 -0.0100
26662W        W43509   2.682  12.682   1.159  0.0735  0.0614  0.1537
26663W        W43510   3.498   5.683   3.205  0.1079  0.3239 -0.0332
26664W        W43511  12.768   3.524   0.974  0.2061  0.0065 -0.0620
26665W        W43512   3.155   9.850   4.126 -0.0576  0.1998 -0.2928
26666W        W43513  13.644   8.219  12.074 -0.2038  0.0346  0.1367
26667W        W43514  10.598  11.042   2.454 -0.0600  0.2349  0.0632
26668W        W43515   2.258  12.205   4.231  0.1695 -0.4293 -0.0997
26669W        W43516  12.195  14.645   4.654  0.0311  0.2205  0.0978
26670W        W43517  11.271   1.493  14.077 -0.5776 -0.2190 -0.1798
26671W        W43518  12.719   5.146  13.881  0.1846  0.0775  0.2626
26672W        W43519   9.245   9.653   3.188 -0.0939 -0.1039  0.1026
26673W        W43520   1.044   2.199   1.504  0.0781 -0.1066  0.1811
26674W        W43521   0.045  10.842   4.412 -0.1002  0.1042  0.0185
26675W        W43522  14.468  15.837   4.652 -0.3619 -0.2569  0.0673
26676W        W43523  14.088   1.068   1.611  0.0136 -0.1804 -0.1284
26677W        W43524  16.491  17.337   0.323  0.4180 -0.2074 -0.2680
26678W        W43525  10.827  16.883   0.985 -0.2263 -0.0399 -0.4358
26679W        W43526  16.906   5.015   1.413 -0.0781  0.0680  0.0000
26680W        W43527  17.269   0.067   4.417 -0.0825 -0.3798  0.1959
26681W        W43528   1.019  14.237   5.525  0.1366  0.0239  0.1308
26682W        W43529  11.584  10.480   5.583 -0.0409 -0.0716 -0.0903
26683W        W43530  10.577   3.626   5.694 -0.0984 -0.0519  0.1121
26684W        W43531   4.507   1.654   1.845 -0.2988  0.1141 -0.3241
26685W        W43532   3.596   3.238   4.356  0.0378 -0.0257  0.1092
26686W        W43533   3.505  14.768   3.658 -0.0446  0.3841  0.0524
26687W        W43534   9.476   9.075  13.394 -0.2755  0.1018 -0.2151
26688W        W43535   5.240  10.656   4.143 -0.2392  0.4019 -0.0152
26689W        W43536   5.229  10.095  16.566  0.0551  0.3988  0.0099
26690W        W43537   7.141  13.939  13.922 -0.2679  0.0877 -0.1348
26691W        W43538   1.140  14.997  13.169  0.1347 -0.0386 -0.0550
26692W        W43539   9.937   6.678  14.311 -0.0596 -0.0399 -0.1077
26693W        W43540   1.312  13.854  14.057  0.0681  0.0180  0.2595
26694W        W43541   6.910  17.753   3.643  0.0645 -0.2080 -0.2320
26695W        W43542   2.243   0.834  11.964  0.0466 -0.0064 -0.0282
26696W        W43543  11.784   9.740  12.071 -0.1383  0.2202 -0.0882
26697W        W43544  11.340  11.220   3.983  0.1055  0.2057  0.1677
26698W        W43545  13.277  17.691  12.661 -0.0749 -0.0727  0.2287
26699W        W43546   8.144   5.095   0.970 -0.0860  0.1218  0.1743
26700W        W43547   5.643  13.711   4.758 -0.0116 -0.2408 -0.0849
26701W        W43548  10.507   9.313  11.692 -0.0450  0.2147  0.1853
26702W        W43549   0.525  13.681  12.238  0.0570 -0.0139  0.1671
26703W        W43550   3.396   2.457  13.779  0.3836  0.1238 -0.2610
26704W        W43551  12.327   8.532   5.401 -0.2527 -0.1621 -0.2472
26705W        W43552   4.483  17.687   3.769  0.1024  0.1636  0.0589
26706W        W43553  11.256   5.827  15.027 -0.0363  0.1707  0.1337
26707W        W43554  12.633  10.199  15.474  0.0311  0.3328 -0.0197
26708W        W43555   4.709   6.204  15.560 -0.0437 -0.1345 -0.4158
26709W        W43556   8.671   9.543  14.381 -0.2019 -0.1813 -0.2085
26710W        W43557   2.085   6.571  10.673  0.3206 -0.0260  0.0232
26711W        W43558   3.448   5.139  13.839 -0.0713 -0.2262  0.0233
26712W        W43559  12.833   4.564   2.248 -0.0126 -0.3684  0.0291
26713W        W43560  14.248   6.449   5.019  0.0353 -0.3013 -0.1910
26714W        W43561  17.615   4.102  15.118  0.1991  0.1465 -0.2230
26715W        W43562   7.395   3.508  14.207 -0.0713 -0.1451  0.1299
26716W        W43563   4.857  14.275   3.626 -0.0327  0.1940 -0.0907
26717W        W43564   7.573  12.245   4.302 -0.4688 -0.0938 -0.0883
26718W        W43565   2.430  12.749  14.674  0.0463 -0.1601 -0.0298
26719W        W43566   9.447  16.436  12.340 -0.0458  0.2829 -0.0209
26720W        W43567   3.120   6.762  12.400 -0.0680  0.0153 -0.1184
26721W        W43568   6.848  13.273  13.740 -0.2157 -0.0883 -0.1681
26722W        W43569   9.768  13.587  12.855  0.1772 -0.0167  0.2578
26723W        W43570  17.217  12.408   2.096  0.2066  0.0964 -0.2234
26724W        W43571   3.260   8.293   1.680  0.2837  0.1123  0.3004
26725W        W43572   8.971  10.433   2.110 -0.0457  0.1349 -0.1905
26726W        W43573   6.873  13.430  12.301 -0.2186  0.0263 -0.1283
26727W        W43574  15.670   0.979  12.997  0.0652 -0.1822 -0.2016
26728W        W43575  12.882   8.926  15.735  0.0450  0.1075 -0.1679
26729W        W43576   0.581  17.561   5.442  0.2622  0.0386 -0.0675
26730W        W43577   7.369   0.866  16.679 -0.3204  0.0329  0.3349
26731W        W43578   3.687   5.635   0.797 -0.1289 -0.0790  0.2533
26732W        W43579   9.427   2.598   3.438 -0.1697  0.2077 -0.0807
26733W        W43580   8.096  15.270   3.276 -0.0258 -0.2163  0.1984
26734W        W43581  17.729  15.076   5.178 -0.0149 -0.1183 -0.0277
26735W        W43582  17.704  16.840  14.918 -0.0531 -0.3006  0.0217
26736W        W43583  15.077  13.669  16.402  0.3735 -0.2330 -0.0208
26737W        W43584  13.732   2.956   3.027 -0.2426 -0.0778 -0.0776
26738W        W43585   2.453  10.319  16.557 -0.1127 -0.0158  0.0082
26739W        W43586   0.617   4.895  13.528 -0.0556 -0.2986  0.0571
26740W        W43587   4.237  17.792   2.986 -0.1765  0.0429  0.2049
26741W        W43588   9.847  11.162  12.692 -0.0833  0.1801  0.0077
26742W        W43589   3.720  14.252  12.170 -0.2450 -0.1542  0.1164
26743W        W43590  11.388   6.711  11.725 -0.3707 -0.0872 -0.0237
26744W        W43591   3.925  10.906  14.773 -0.2007 -0.0178  0.0560
26745W        W43592   6.004   6.967   3.284 -0.0340 -0.0449 -0.1609
26746W        W43593  14.928  14.083   5.874 -0.0661 -0.0189  0.2051
26747W        W43594  12.524   2.123   0.664  0.0433  0.2360  0.0946
26748W        W43595   5.154   9.661   4.120 -0.3751  0.0419  0.3906
26749W        W43596  17.713  17.855  13.805 -0.0315  0.1736 -0.0117
26750W        W43597   3.520  12.986  15.614 -0.1900 -0.1115 -0.1542
26751W        W43598   7.449   8.732  12.134 -0.0556  0.1009 -0.0348
26752W        W43599   2.613   5.298   3.091 -0.2007 -0.1718 -0.0161
26753W        W43600  15.637   1.984   1.828 -0.2156 -0.1100  0.3749
26754W        W43601   9.000   9.674   4.427 -0.1376 -0.3159 -0.1592
26755W        W43602   3.493   4.108   6.179 -0.1474 -0.3609 -0.3006
26756W        W43603   2.237   4.676   3.932  0.3141  0.2185 -0.0143
26757W        W43604  17.797   7.487   1.260 -0.1361  0.1522  0.0036
26758W        W43605  13.221  15.822  12.182  0.1735  0.3263 -0.1460
26759W        W43606  10.771   5.097  12.913 -0.3131 -0.1157 -0.1269
26760W        W43607  12.437   1.303   2.932 -0.1688 -0.0136 -0.1150
26761W        W43608   8.490   0.210  11.341  0.1096 -0.0490  0.2201
26762W        W43609  11.763   7.012   4.592 -0.0519 -0.1578  0.1094
26763W        W43610  11.672  13.836  12.386  0.0356 -0.0241  0.1832
26764W        W43611   7.662  15.355  15.558  0.1397 -0.1571  0.3180
26765W        W43612  17.847  14.491   4.608  0.0729  0.2219 -0.1748
26766W        W43613   1.812  13.024   6.502 -0.2862 -0.0738 -0.2036
26767W        W43614  10.561  14.837   1.265  0.0445 -0.1016  0.1135
26768W        W43615   7.064   0.578  12.140 -0.0811 -0.0228 -0.2516
26769W        W43616  16.431  17.511   4.399  0.0008 -0.1793 -0.1288
26770W        W43617   1.172   1.550   4.427  0.1478 -0.1533  0.2080
26771W        W43618   9.591   3.882   4.557  0.2403  0.0772 -0.0985
26772W        W43619  14.618  17.747  14.036  0.0063  0.1395  0.0785
26773W        W43620  16.512   5.587  14.949  0.0440 -0.0097  0.2007
26774W        W43621  11.348  14.318  14.999 -0.0884  0.0401  0.1050
26775W        W43622   8.850  15.678   0.255 -0.0268 -0.0254 -0.0102
26776W        W43623   8.313   8.839  13.846 -0.3947 -0.2162 -0.1220
26777W        W43624   4.255   2.894   3.104 -0.0318  0.1076  0.1074
26778W        W43625  10.688   3.000   0.395 -0.0247 -0.1389 -0.1483
26779W        W43626  11.268   2.765  16.486 -0.1210 -0.1002 -0.0491
26780W        W43627   9.819   6.736   4.649  0.2722 -0.1039 -0.0672
26781W        W43628   2.391  12.452  12.502 -0.2265  0.2050 -0.0433
26782W        W43629  13.589   0.927   0.929  0.0633 -0.4843  0.0448
26783W        W43630   5.869   4.263  13.471 -0.1949  0.4511  0.0993
26784W        W43631   8.850  11.007   1.683 -0.1163  0.1161 -0.2777
26785W        W43632   3.971  16.436   4.935 -0.2569  0.0864  0.3096
26786W        W43633   6.722  16.399   4.832  0.0445  0.1832 -0.4528
26787W        W43634  10.325   8.000  15.503  0.0790  0.2683  0.2948
26788W        W43635   9.257   1.651  15.356  0.1945  0.0189 -0.0103
26789W        W43636  16.400   5.692  11.824 -0.0108 -0.3471 -0.1462
26790W        W43637   7.170  14.654  13.525 -0.3816  0.0276 -0.1472
26791W        W43638   5.453   7.576   1.076 -0.0272 -0.0643  0.2594
26792W        W43639   9.764  12.326  16.647 -0.1616  0.4639 -0.1510
26793W        W43640  10.097   2.766   4.883 -0.0057  0.0599 -0.0468
26794W        W43641   2.027   6.384  13.991 -0.0785 -0.1898  0.1495
26795W        W43642   6.689  12.259   0.787  0.0019  0.3465  0.2066
26796W        W43643   2.911   6.275   3.036  0.0196 -0.1866 -0.0758
26797W        W43644   8.002   7.556   3.831  0.2110 -0.2543  0.1006
26798W        W43645   7.165  17.276  14.032  0.0064 -0.0066 -0.1904
26799W        W43646  13.928   1.118  14.999  0.2653  0.1536  0.1042
26800W        W43647   5.704   5.759   2.576 -0.0144  0.1817  0.0278
26801W        W43648  13.608   1.530  14.138  0.0206  0.4642  0.0158
26802W        W43649   8.744  13.985  15.473 -0.0079 -0.4524 -0.0645
26803W        W43650   7.458   1.279   2.606  0.0934 -0.2784 -0.0175
26804W        W43651   3.640   4.537  13.389  0.3818  0.3403 -0.0130
26805W        W43652  10.010   8.169  12.421  0.5726 -0.0923 -0.0646
26806W        W43653   0.962  13.540  12.400 -0.1040  0.1712 -0.0166
26807W        W43654  10.009  13.992   2.804  0.1482  0.0921  0.2180
26808W        W43655  13.026   7.054   2.388  0.1289 -0.1744  0.2117
26809W        W43656   9.113  11.022   0.980 -0.0566 -0.0126  0.0708
26810W        W43657  17.476   3.882   2.892  0.0833  0.0292  0.0076
26811W        W43658  12.936   3.990  13.470  0.0720 -0.0284  0.1232
26812W        W43659  15.432  14.460   6.029 -0.0517  0.1459  0.3727
26813W        W43660   8.779  10.852   3.595 -0.2190  0.1678 -0.1475
26814W        W43661  12.980  13.900   3.847 -0.0965  0.2132 -0.0513
26815W        W43662   9.122   3.696   4.768  0.0673  0.2359 -0.0454
26816W        W43663   8.530  13.812  16.308  0.1221 -0.2858 -0.2089
26817W        W43664  10.615   2.869   1.613 -0.0741 -0.2599 -0.0101
26818W        W43665  17.026  15.526  13.390  0.0854 -0.2565 -0.1627
26819W        W43666   8.942   1.158   4.419 -0.1051 -0.1851  0.2522
26820W        W43667  14.081  11.863  15.816 -0.1510 -0.0499 -0.2353
26821W        W43668   6.121   5.826   5.440  0.0542 -0.0186  0.0552
26822W        W43669  10.630   5.913   4.295 -0.1359 -0.0644 -0.1078
26823W        W43670   5.702   4.820  12.796  0.2437  0.0131  0.0987
26824W        W43671  10.207   7.534  16.771 -0.3161  0.1106  0.1871
26825W        W43672  17.309   0.961  16.277 -0.0320  0.0619  0.1315
26826W        W43673   2.446   9.340   2.098 -0.0883 -0.0353  0.0938
26827W        W43674   5.225  10.755  15.053 -0.0755  0.5559  0.1816
26828W        W43675  15.019   3.590  16.636  0.0743 -0.0864 -0.2111
26829W        W43676   4.410   6.934  14.912 -0.1214 -0.0974 -0.0574
26830W        W43677  15.905  12.623  16.660 -0.3698 -0.1039 -0.0890
26831W        W43678  13.013   9.537   1.073 -0.1356 -0.1064  0.4580
26832W        W43679  17.160   8.746  12.760 -0.2716  0.2310  0.1016
26833W        W43680   7.062   9.173   5.828  0.1476  0.0797  0.0250
26834W        W43681   1.742   1.871  14.061  0.0874  0.1371  0.0239
26835W        W43682  17.604   2.903   3.241  0.1841 -0.1978  0.1294
26836W        W43683  16.443  15.470   5.259 -0.0511 -0.1882  0.1344
26837W        W43684   1.352   8.021  15.283  0.1845  0.1168  0.0832
26838W        W43685   5.266   6.426  13.950 -0.0772  0.0627 -0.1961
26839W        W43686  11.525  11.789   1.718  0.1634  0.1798  0.0984
26840W        W43687   8.404   9.827  13.955 -0.0605 -0.2221 -0.0052
26841W        W43688   1.617  10.764  12.143  0.0893  0.0405 -0.1251
26842W        W43689  14.466  11.665   0.537 -0.2168  0.0557 -0.0959
26843W        W43690  16.641  13.572  15.218  0.1339 -0.3392  0.1537
26844W        W43691   3.022   3.199  15.771  0.1211 -0.3173  0.1357
26845W        W43692  11.803  12.239  14.404 -0.2875 -0.0971 -0.0951
26846W        W43693  17.021  15.478   6.488 -0.1032  0.0081 -0.2310
26847W        W43694   2.964   4.531   0.184  0.1902  0.0073 -0.0380
26848W        W43695   2.381   6.206  15.824  0.0542 -0.0710  0.3356
26849W        W43696   8.003   6.973   4.005  0.0079 -0.0309  0.0511
26850W        W43697   9.437  12.162   0.195 -0.1692 -0.0645  0.0608
26851W        W43698   3.587   6.198   1.591  0.1979  0.2286 -0.2026
26852W        W43699   0.882   5.801   0.816 -0.0761  0.1687 -0.0235
26853W        W43700  13.473  10.878  12.971 -0.1235  0.1659  0.0318
26854W        W43701  12.525  16.373   3.796  0.1481 -0.0903  0.1149
26855W        W43702   0.561  12.643  15.802  0.0665  0.1451  0.1179
26856W        W43703   6.881  16.210  14.459  0.0941 -0.0157  0.2579
26857W        W43704   3.415  12.163  11.827 -0.1699  0.1086  0.1215
26858W        W43705  12.746  16.818  14.469 -0.1542  0.0235 -0.1758
26859W        W43706  16.059  17.547   5.639  0.1022 -0.1992 -0.1146
26860W        W43707  10.356   8.921   2.657 -0.2456  0.0593  0.0602
26861W        W43708  15.672   8.275  16.694 -0.3271 -0.5436 -0.0955
26862W        W43709   3.050   0.368   0.047 -0.0078  0.0535 -0.0829
26863W        W43710   2.254  11.987   4.655  0.0630  0.0976 -0.1718
26864W        W43711  16.841  10.100   4.034  0.0512  0.1863 -0.1306
26865W        W43712   2.468  16.907   2.426  0.1432  0.0409 -0.0167
26866W        W43713   6.120  17.333  16.468 -0.1284  0.0121 -0.2371
26867W        W43714   9.302   2.758  14.640  0.2089 -0.1180  0.1191
26868W        W43715  16.026   7.526  15.006 -0.2222 -0.0119 -0.1218
26869W        W43716  16.861   3.441  14.553 -0.0179  0.0698 -0.0216
26870W        W43717  14.244  17.000   2.899 -0.1019 -0.1029  0.0004
26871W        W43718  15.193  15.281   4.370  0.0627  0.2965  0.2198
26872W        W43719   2.471   8.529   4.037 -0.1349  0.1304 -0.0767
26873W        W43720   3.733   1.130   2.909 -0.0449 -0.0084  0.0996
26874W        W43721   7.904   0.403   2.874  0.2745 -0.0772  0.0077
26875W        W43722  15.134   6.115  14.900  0.0247 -0.2183  0.0326
26876W        W43723   5.323  15.183   2.905 -0.0639  0.1345 -0.2258
26877W        W43724  17.751  16.111  14.190 -0.0680 -0.1303 -0.0074
26878W        W43725  17.036   3.440   5.867  0.1436 -0.0346 -0.1394
26879W        W43726  15.475   2.083   2.296 -0.0269  0.1698  0.0139
26880W        W43727   9.273   5.037  15.105  0.0938  0.0038  0.2839
26881W        W43728   9.318  12.139  13.490  0.4666 -0.1239  0.0473
26882W        W43729   7.695  14.836   2.954  0.1033 -0.1120  0.0028
26883W        W43730   6.568   6.410  13.417 -0.1878 -0.1574 -0.1489
26884W        W43731   9.610   8.949  16.526 -0.2804 -0.0467  0.0791
26885W        W43732   6.149   6.396   0.771 -0.1257 -0.0061  0.0862
26886W        W43733  17.435   2.739   2.637  0.1988 -0.1216 -0.1932
26887W        W43734  14.068  12.180  11.923 -0.1047  0.0568 -0.0521
26888W        W43735  17.589  12.759  13.641 -0.1385  0.1703 -0.0400
26889W        W43736  13.051  11.800   2.613  0.1852 -0.0556 -0.2600
26890W        W43737  11.965  13.894  14.536  0.0272 -0.1826 -0.0883
26891W        W43738  17.236   4.813  14.740 -0.0864  0.1619 -0.2492
26892W        W43739  13.796   0.947   3.963 -0.0513 -0.1576  0.4513
26893W        W43740  17.554  17.367   2.911 -0.4297 -0.0962  0.1943
26894W        W43741  11.844  11.734  15.625  0.5434  0.0040 -0.1696
26895W        W43742   8.266   9.918   2.803 -0.1321  0.2039  0.0266
26896W        W43743  11.520   4.393  16.458 -0.0131  0.0035 -0.0933
26897W        W43744  10.055   2.998   2.408 -0.1545 -0.1004 -0.1720
26898W        W43745   6.615   4.702   3.147 -0.1856  0.2544  0.1027
26899W        W43746   6.995   9.947   2.795  0.0474  0.2808  0.1014
26900W        W43747  14.407  13.522  14.518  0.2042 -0.1466  0.2476
26901W        W43748  16.082   2.198  11.704 -0.1664 -0.1664 -0.0851
26902W        W43749   4.078   8.743   0.096 -0.1309 -0.0196  0.1264
26903W        W43750  12.281   2.801   4.055 -0.2424  0.0655  0.3268
26904W        W43751   7.201  16.278  16.390 -0.1400 -0.0876 -0.3301
26905W        W43752   9.889  13.550   0.026  0.2804 -0.0056  0.2205
26906W        W43753   4.536   3.026   0.918  0.4288  0.1041 -0.1657
26907W        W43754  15.437   7.943   1.876 -0.2724 -0.1311  0.0020
26908W        W43755  17.802  10.585  12.934 -0.0805 -0.0914 -0.0549
26909W        W43756   6.553  10.748  16.127 -0.2689  0.0006  0.0770
26910W        W43757   5.442  10.412  14.724  0.0394  0.0435  0.3068
26911W        W43758  17.734  17.787   4.658 -0.1323 -0.2246 -0.0120
26912W        W43759  16.788  11.962  16.070 -0.3070  0.0533 -0.4473
26913W        W43760   4.914  13.680  13.620 -0.0737 -0.1851 -0.1932
26914W        W43761   4.662   2.165   2.876 -0.1095 -0.2473 -0.1066
26915W        W43762  16.968  11.845   3.433 -0.1990  0.3186 -0.0872
26916W        W43763   1.988   8.321  12.882 -0.0492 -0.1158 -0.2547
26917W        W43764  10.490  14.287   4.408 -0.0668  0.0281 -0.1865
26918W        W43765  16.982  15.763  11.989 -0.0283 -0.2432 -0.1934
26919W        W43766  15.572   9.812   2.446  0.0217 -0.1636 -0.2796
26920W        W43767   7.475   0.965  12.782  0.1377  0.0957  0.1613
26921W        W43768  10.710   4.666   0.836 -0.1624 -0.4005 -0.4417
26922W        W43769  16.211   2.656   4.010 -0.2348  0.0954 -0.1512
26923W        W43770   8.571  11.153  12.319  0.2822 -0.3415  0.2782
26924W        W43771   3.929  11.828   3.691  0.1263 -0.1781 -0.3427
26925W        W43772   2.474  10.488   4.941  0.0484  0.1062 -0.2680
26926W        W43773   7.178   8.113  12.487 -0.0742 -0.1733 -0.4020
26927W        W43774  14.645   2.990   3.932  0.0247 -0.0060  0.2973
26928W        W43775   1.499   2.160  12.146  0.0474 -0.0610 -0.2229
26929W        W43776  10.359   8.528   4.666  0.0175 -0.0092 -0.0028
26930W        W43777  13.538   1.280   2.604  0.0635 -0.1429  0.1648
26931W        W43778   5.032  14.285  16.341 -0.0816 -0.0985  0.2794
26932W        W43779   1.844   8.095  16.671 -0.2654 -0.0958 -0.2174
26933W        W43780  10.374  11.384   4.673  0.2233 -0.1255 -0.3172
26934W        W43781  16.974   7.513  15.357 -0.0166  0.2943 -0.1388
26935W        W43782  12.759   4.572   5.582  0.0614 -0.2732 -0.1436
26936W        W43783   9.732   3.787   4.096  0.1040 -0.3856  0.0324
26937W        W43784  11.481  15.982  12.999 -0.3529  0.0995 -0.0644
26938W        W43785   2.851   8.905  11.488 -0.1740  0.1713  0.0960
26939W        W43786   6.171   5.992  13.918 -0.1988 -0.3188  0.2476
26940W        W43787   7.049   7.181  14.412 -0.1567 -0.3077 -0.0412
26941W        W43788   8.261   1.876   5.467  0.1371 -0.2498  0.1938
26942W        W43789  17.204  13.002   0.421 -0.0404  0.1682 -0.0464
26943W        W43790  17.071  16.246  15.339 -0.2323  0.1536  0.5207
26944W        W43791   4.841  12.710   0.740 -0.3258 -0.0461 -0.4317
26945W        W43792  14.438   7.256   1.215  0.2033  0.1909  0.1257
26946W        W43793  12.478  10.554   4.431 -0.0559  0.1461  0.3265
26947W        W43794   5.200  14.107   4.670  0.0975 -0.1128 -0.0550
26948W        W43795   3.075  16.201   0.083 -0.2636 -0.1732  0.1289
26949W        W43796   2.174   1.376  13.973  0.0456 -0.2011  0.1319
26950W        W43797   0.654  14.228  12.807 -0.0069  0.2415  0.1915
26951W        W43798  14.278   0.070   1.912  0.2585 -0.1492  0.0143
26952W        W43799  13.028   9.688  11.770 -0.2029 -0.0002 -0.2269
26953W        W43800  15.229   1.661  12.522 -0.0767 -0.1984 -0.0136
26954W        W43801   6.115   0.784  13.970  0.1548  0.2655  0.1723
26955W        W43802  12.061  13.131  13.442 -0.0136 -0.0473 -0.4088
26956W        W43803   5.818  13.788  14.206  0.0935 -0.1531 -0.1611
26957W        W43804   8.421   1.207   1.576  0.2899  0.3226 -0.2886
26958W        W43805   6.260   3.439   1.117  0.3277 -0.2716  0.0743
26959W        W43806   0.052   0.758   4.621  0.0561 -0.2280  0.1386
26960W        W43807   0.648   3.459  15.918  0.0848 -0.0719  0.0253
26961W        W43808   4.638  17.837   3.326 -0.1297  0.2360  0.1365
26962W        W43809   2.663   6.921  12.680 -0.0308  0.0695 -0.0812
26963W        W43810   6.764  11.920   3.717 -0.0994  0.0090 -0.1167
26964W        W43811   6.376  13.119  15.821  0.0821  0.1721 -0.2059
26965W        W43812   3.639   7.669  15.158  0.1870  0.1112 -0.1465
26966W        W43813  10.175   6.469   5.387 -0.1528 -0.1359  0.2980
26967W        W43814  14.895   9.002  12.080 -0.2401  0.2142  0.0389
26968W        W43815   8.274  14.163  11.969 -0.1133 -0.3238 -0.3030
26969W        W43816  11.046   8.552  12.934  0.1955  0.2413  0.0395
26970W        W43817  13.115   0.634  13.215 -0.0425  0.0110 -0.2901
26971W        W43818   4.965  12.825   1.595 -0.0417 -0.3736  0.1557
26972W        W43819   3.771  13.509   5.820 -0.0255 -0.0147 -0.1288
26973W        W43820   6.580   7.621  12.094 -0.0208 -0.0585 -0.3395
26974W        W43821   7.883   2.487  11.675 -0.0272 -0.0114  0.3786
26975W        W43822  12.800  17.575  13.435 -0.1428  0.1034  0.1306
26976W        W43823  14.438   4.979  12.607  0.0994 -0.1296  0.1430
26977W        W43824  14.247   0.884  16.245  0.2013  0.2684  0.0718
26978W        W43825   1.904   0.800   2.863 -0.1548 -0.0168  0.0083
26979W        W43826   3.750  15.726   2.510  0.0862 -0.1428  0.1227
26980W        W43827   1.299  16.771   5.032 -0.1280 -0.1455  0.0094
26981W        W43828   0.087  12.128  14.120 -0.1332 -0.1873 -0.3445
26982W        W43829   2.677   3.314  16.701 -0.1476 -0.0175 -0.0621
26983W        W43830  15.753  14.301  12.308  0.1805  0.3505 -0.0709
26984W        W43831  10.789  13.830  12.205 -0.2587 -0.1641  0.1114
26985W        W43832   4.317  10.318   2.096 -0.2585 -0.3564  0.2896
26986W        W43833   2.002   8.419  14.210  0.0427 -0.0102 -0.0641
26987W        W43834   5.083   7.771  14.196  0.0395 -0.2058 -0.0186
26988W        W43835   7.614  15.463   3.728  0.2757  0.1076  0.1805
26989W        W43836   2.471   8.318  12.573 -0.1187 -0.0167  0.1130
26990W        W43837   7.085   0.194  16.117 -0.0359 -0.1943 -0.0514
26991W        W43838   1.471   0.886  13.299 -0.0320 -0.2070 -0.0285
26992W        W43839   2.032  17.597   5.891  0.0694 -0.2500 -0.0167
26993W        W43840   3.945   8.027   1.003 -0.1465  0.2211  0.0094
26994W        W43841  17.318   7.237   1.440  0.1395 -0.1048  0.0414
26995W        W43842   4.843   4.255   2.678  0.2491  0.0261 -0.1849
26996W        W43843   0.732   4.275  15.173  0.1366 -0.1400  0.0019
26997W        W43844   9.351  12.033  16.495  0.1617  0.2240 -0.1933
26998W        W43845  14.325   3.013  16.319 -0.2537 -0.2939 -0.0067
26999W        W43846   7.953   6.063  16.365  0.0784 -0.2396 -0.2336
27000W        W43847   0.064   2.064   4.973 -0.1053 -0.1450 -0.0625
27001W        W43848  15.883   0.431  14.740  0.1027  0.0665  0.1351
27002W        W43849  14.376  11.436  15.901 -0.0318 -0.1514 -0.1134
27003W        W43850   7.715   4.109   0.040  0.0746 -0.0998  0.0806
27004W        W43851   9.648  12.494   2.395 -0.1874 -0.2761 -0.0428
27005W        W43852   0.455  17.574  13.429 -0.1428 -0.0143  0.1669
27006W        W43853   4.951   0.184  12.747 -0.3450  0.3602  0.3001
27007W        W43854   2.963   5.393  16.274  0.1194  0.1037 -0.0197
27008W        W43855   2.232   7.345   3.891 -0.0272  0.0933  0.2423
27009W        W43856   8.195  12.697  14.648  0.1312  0.1294 -0.3285
27010W        W43857   3.921  12.738   2.579 -0.0369  0.2859 -0.3503
27011W        W43858  15.696   4.741  12.933  0.0305 -0.3006 -0.3217
27012W        W43859   8.995   2.654  15.651 -0.0973 -0.0758 -0.0435
27013W        W43860  12.250   4.156   0.206  0.1150 -0.0842  0.1932
27014W        W43861   6.966  11.826  12.611 -0.5083 -0.0665  0.2307
27015W        W43862   8.095  14.363  16.373 -0.2045  0.1560  0.0956
27016W        W43863  13.005  13.990  11.760  0.1659  0.2527  0.0837
27017W        W43864  14.857  11.568  15.073 -0.0257  0.0456 -0.0267
27018W        W43865  14.278   9.217  12.931  0.2690 -0.0550  0.2590
27019W        W43866  11.770   5.109  14.181 -0.1069  0.1074 -0.0328
27020W        W43867  16.035  14.003   4.507  0.0614  0.1158  0.4532
27021W        W43868   1.316   5.577   3.227 -0.1312 -0.0796  0.1188
27022W        W43869   0.514   0.630  13.357 -0.0794 -0.0110  0.2028
27023W        W43870   3.736   8.428  16.545 -0.0551  0.0568  0.1743
27024W        W43871  10.118   0.785   6.202 -0.1453 -0.1128  0.0226
27025W        W43872  13.761   5.038   0.008  0.1291 -0.1146  0.1409
27026W        W43873  13.005  16.552   2.813 -0.0955 -0.2365  0.1167
27027W        W43874  17.085   9.506   1.305  0.0595 -0.0407 -0.1554
27028W        W43875  11.851  17.482  15.114 -0.0855  0.2062 -0.0021
27029W        W43876   0.903   4.529   2.714 -0.0004 -0.3123 -0.0236
27030W        W43877  16.585   7.061  14.936  0.2461 -0.0620 -0.1338
27031W        W43878   7.937   4.195   2.058 -0.0830  0.0354 -0.1897
27032W        W43879   5.796  14.214   4.605 -0.0417 -0.1770  0.1284
27033W        W43880  13.176   6.150   3.795 -0.0904  0.0986 -0.0838
27034W        W43881  11.745   3.179   5.064 -0.1512  0.0199 -0.2598
27035W        W43882  14.325  13.922  12.955  0.0390  0.1574  0.0901
27036W        W43883   3.739  14.327  13.975 -0.1178  0.0481 -0.0399
27037W        W43884  10.617  14.069   0.389  0.0911 -0.0365 -0.5014
27038W        W43885  16.077   3.765   1.216 -0.1243 -0.1294  0.1001
27039W        W43886  17.479   3.298   0.943  0.0146 -0.2597 -0.1253
27040W        W43887   9.385  10.538   5.369  0.1351 -0.0908 -0.1077
27041W        W43888  11.681  14.745  14.948  0.2133  0.0217 -0.2620
27042W        W43889   9.836   9.570   4.131 -0.4477 -0.1864  0.0328
27043W        W43890   8.161  17.747  14.734  0.0148 -0.2290 -0.1281
27044W        W43891  12.850   5.777   1.922  0.0254 -0.2345 -0.0787
27045W        W43892   0.006   4.163  12.069 -0.1020 -0.3064  0.0375
27046W        W43893   5.604  17.449   1.804  0.3394 -0.0044 -0.3121
27047W        W43894   7.958   8.203  14.735  0.1753  0.2909  0.0653
27048W        W43895   9.527  16.863   2.064 -0.0160  0.0595 -0.0161
27049W        W43896  17.348  16.727  12.376  0.0685  0.0348  0.1462
27050W        W43897  10.450   5.976   5.659 -0.0092 -0.3182  0.1706
27051W        W43898  17.887  15.107  13.236  0.1254 -0.1883  0.0329
27052W        W43899   4.496  16.846  16.524  0.0723  0.0074  0.1272
27053W        W43900  14.803   2.957  13.408 -0.1097  0.1822 -0.0174
27054W        W43901   7.373  14.447  15.199 -0.0648  0.1193 -0.1279
27055W        W43902  10.158  11.946   6.062 -0.0228 -0.0800 -0.2774
27056W        W43903   0.722  15.947  14.118 -0.1615  0.0137  0.1268
27057W        W43904   6.279  16.826  14.178  0.0188 -0.2120  0.0067
27058W        W43905  12.735   3.130   3.343  0.0611  0.2029  0.0735
27059W        W43906  11.227   0.941   5.520 -0.1987 -0.3264  0.1138
27060W        W43907   0.512  12.367   1.662 -0.0687  0.2770 -0.0096
27061W        W43908  12.526  16.495   6.081  0.1960 -0.1462 -0.3570
27062W        W43909   9.127  16.603   5.274  0.0443 -0.0594 -0.3067
27063W        W43910  17.946   4.631  12.962 -0.2638 -0.0135  0.0928
27064W        W43911  13.041   9.546  15.075  0.1489 -0.1706  0.0998
27065W        W43912  14.729  14.833  11.611  0.1220  0.1937  0.2371
27066W        W43913   6.686  11.057   4.208  0.0612 -0.1928 -0.1944
27067W        W43914   0.342   7.648   1.290  0.1596  0.0637 -0.0245
27068W        W43915   1.928   3.569  12.366 -0.0152  0.2993  0.0763
27069W        W43916   2.323  12.606  13.648  0.1361  0.0805 -0.1617
27070W        W43917   3.241   4.580   1.066  0.0582 -0.0054  0.1124
27071W        W43918  14.206  14.000   0.487 -0.0653 -0.1720 -0.0883
27072W        W43919  13.520   9.333  14.939  0.0243 -0.3246  0.2482
27073W        W43920  12.571   1.423  14.101  0.2256  0.1241  0.2349
27074W        W43921   1.866   5.039   3.794 -0.0119  0.2117  0.1142
27075W        W43922  17.450   6.979  13.176  0.0914  0.0213 -0.2029
27076W        W43923   1.000  13.387  15.352 -0.0698  0.0797 -0.3496
27077W        W43924   1.462   0.538   0.786  0.2272 -0.0394  0.1835
27078W        W43925  16.297  16.796  15.204 -0.1828 -0.2110 -0.0510
27079W        W43926   4.084   4.822   3.401  0.0265  0.0327 -0.2117
27080W        W43927   8.772   1.074   4.929  0.2470 -0.3196  0.1778
27081W        W43928  10.199   0.970   3.506 -0.1331  0.2135  0.0954
27082W        W43929  11.306   1.128   1.293 -0.3213  0.2799  0.2775
27083W        W43930   8.370   9.426  15.911  0.0817 -0.2369  0.2074
27084W        W43931  16.195  11.165   1.486  0.0548 -0.1826 -0.1316
27085W        W43932   4.909   4.097  13.288  0.1561 -0.1961 -0.3513
27086W        W43933   0.111  16.810  11.146 -0.1685 -0.0744 -0.0394
27087W        W43934  16.708  16.122  12.789 -0.1684 -0.0343  0.3310
27088W        W43935   2.377  14.454  11.805 -0.3228  0.1964 -0.1276
27089W        W43936  11.084  17.030   2.944  0.0810  0.1296 -0.3655
27090W        W43937  14.596   0.289  13.605  0.0848 -0.1562  0.1138
27091W        W43938  10.197  10.759  12.623  0.2262 -0.0471 -0.0357
27092W        W43939  12.799  11.968  11.923 -0.0684  0.1400 -0.7024
27093W        W43940  14.085   7.956   1.941 -0.0215 -0.2194  0.2008
27094W        W43941   3.213   4.510   1.897 -0.1408  0.1038 -0.3114
27095W        W43942   6.219  15.734  15.487 -0.0673  0.3630  0.0310
27096W        W43943  11.558  11.015  15.551 -0.0262 -0.3965 -0.1443
27097W        W43944   8.098  10.685   4.581  0.1244  0.1458  0.0185
27098W        W43945  17.218   5.668  12.730  0.2282 -0.1627 -0.0444
27099W        W43946  15.943   4.921   1.456 -0.0234 -0.0051  0.1021
27100W        W43947   2.469   4.570   1.385 -0.2087  0.1109 -0.2785
27101W        W43948  10.671  13.595  12.615 -0.0310 -0.3504 -0.1622
27102W        W43949  16.258  17.279  15.620 -0.2392 -0.0838 -0.1928
27103W        W43950  14.014   8.772   3.137  0.0222  0.1164  0.1078
27104W        W43951   3.000   5.537   5.102 -0.4705 -0.1772 -0.1662
27105W        W43952   3.189  10.623   4.422  0.0417 -0.1949 -0.1458
27106W        W43953  14.409   9.163   4.690 -0.0272  0.0125 -0.0125
27107W        W43954   7.734  17.727  15.679 -0.1247  0.0593  0.2827
27108W        W43955   3.779   8.689   1.073  0.1681 -0.1076  0.1178
27109W        W43956   6.895   9.933   2.253 -0.1439  0.1074 -0.2718
27110W        W43957  17.194   1.621  15.709 -0.0261  0.1893 -0.1857
27111W        W43958  17.299   0.627  12.883  0.1237 -0.2319  0.1785
27112W        W43959  13.504   4.218  14.977  0.1511 -0.0962  0.2545
27113W        W43960   0.046  10.488  16.364  0.0513 -0.1584  0.1351
27114W        W43961  16.553   3.107   2.306 -0.3265 -0.2105  0.0685
27115W        W43962   9.489   1.307  13.602  0.3373  0.0367  0.1987
27116W        W43963   0.252  13.105  15.670 -0.1523 -0.0221 -0.3343
27117W        W43964   1.269  16.914  14.965 -0.3606 -0.3567  0.1411
27118W        W43965   5.273  14.810  16.165 -0.1422 -0.0800  0.0019
27119W        W43966  12.947  13.880  14.684 -0.0479  0.3718  0.1741
27120W        W43967  16.057  16.658   3.906  0.0935  0.1293  0.0303
27121W        W43968  14.649   0.440  14.603  0.0666 -0.0634 -0.0826
27122W        W43969   1.306  17.195   2.853 -0.0740  0.0900  0.0395
27123W        W43970   8.075  13.645  14.289 -0.1680  0.2119  0.1178
27124W        W43971   8.868  17.952  13.330  0.2599  0.1266 -0.2659
27125W        W43972   3.367   3.089  12.638 -0.0966 -0.0942  0.0662
27126W        W43973  13.695   8.341   3.183 -0.1561 -0.0857  0.0342
27127W        W43974  14.870   2.230  16.600  0.2771  0.0702 -0.1121
27128W        W43975   6.413   0.769  16.352  0.2555  0.1188 -0.2888
27129W        W43976   9.499  13.028   5.886  0.2564 -0.0244  0.0010
27130W        W43977  15.435  16.490   3.631 -0.2385 -0.0647  0.1057
27131W        W43978  12.044   7.843  16.016  0.0162  0.3113  0.0371
27132W        W43979  11.051  11.726   0.309 -0.0339  0.0813  0.0193
27133W        W43980   8.274   4.918   0.298  0.0296  0.0644 -0.0002
27134W        W43981   2.871   7.956  13.256 -0.3266  0.4048  0.3033
27135W        W43982   8.697  10.251   3.540  0.0229 -0.0980 -0.2703
27136W        W43983   5.838  14.169   0.720 -0.0827  0.0674 -0.0123
27137W        W43984  10.505  15.251   2.318  0.1001 -0.0528 -0.2656
27138W        W43985   3.127   4.693   3.492 -0.0573 -0.1225 -0.0378
27139W        W43986   4.169  12.140  15.043 -0.0304 -0.2019  0.0144
27140W        W43987   3.121  15.551   3.719 -0.0190  0.0945  0.0865
27141W        W43988   8.372  16.628   4.009 -0.1300 -0.1953  0.1664
27142W        W43989   2.189   0.940   3.941  0.1532  0.0934 -0.1006
27143W        W43990   9.470  10.635   2.123 -0.0696  0.2896 -0.0159
27144W        W43991  10.940  16.171  12.180 -0.1783  0.0876  0.0151
27145W        W43992   4.037   2.451   4.574 -0.2627  0.0922 -0.1554
27146W        W43993  17.226  15.874   0.844 -0.0979  0.0149 -0.1845
27147W        W43994   4.510  11.614   4.837 -0.2397 -0.1320 -0.2696
27148W        W43995   0.352   6.978  13.830 -0.0558 -0.1394 -0.1053
27149W        W43996   8.363   0.079  14.382  0.0093  0.1722  0.2038
27150W        W43997  15.525  10.892  14.374 -0.2603 -0.0765  0.1772
27151W        W43998  10.407   4.687  15.128  0.0553  0.2868  0.0669
27152W        W43999  14.949   1.879  11.723 -0.0644 -0.1363 -0.2488
27153W        W44000   3.952  13.560  12.433  0.1680  0.0549  0.0584
27154W        W44001   7.501   4.979   2.948  0.2507 -0.1559  0.1923
27155W        W44002  15.925   8.836   1.376  0.0521 -0.0141 -0.3003
27156W        W44003   7.590   9.778   4.474 -0.4316  0.0235 -0.0223
27157W        W44004   2.592   0.063   2.734  0.1735 -0.0717 -0.0121
27158W        W44005  13.632   1.625  16.621  0.0466 -0.1627 -0.3568
27159W        W44006  11.662   1.537   0.816  0.0056  0.3049 -0.4895
27160W        W44007  11.174   5.646  11.819  0.0396  0.0385 -0.3166
27161W        W44008  13.693   3.731  11.699  0.1375  0.3296  0.2222
27162W        W44009   3.662   1.948  12.202 -0.0035  0.0698 -0.1890
27163W        W44010   1.884   9.299  16.261 -0.1382  0.0676  0.1821
27164W        W44011  10.822   9.890   2.348  0.2153 -0.2091  0.2045
27165W        W44012   1.601   7.753  16.136  0.1135  0.1312 -0.0782
27166W        W44013  11.121  16.090   2.582 -0.0545 -0.0408  0.2638
27167W        W44014   0.691   7.345   2.855  0.0169  0.0705 -0.2137
27168W        W44015   6.989  12.345   3.660 -0.0852 -0.0640 -0.0518
27169W        W44016   0.741   8.247  12.317  0.1219 -0.1116 -0.1979
27170W        W44017   8.614  12.135  12.589 -0.0624  0.0312  0.3289
27171W        W44018   9.247   9.501   2.478  0.0721  0.3167  0.0547
27172W        W44019   2.934   8.522  15.065 -0.2011  0.1512 -0.2529
27173W        W44020   2.882   1.189  14.251 -0.0006 -0.2178  0.2042
27174W        W44021  15.641   8.575   3.121 -0.0554  0.1237  0.2454
27175W        W44022   9.870   5.190  13.981  0.2046 -0.0678  0.0946
27176W        W44023   5.617   9.565   0.407  0.1513  0.1632 -0.4514
27177W        W44024   3.932  16.237   2.548  0.1791 -0.1364 -0.1860
27178W        W44025   6.076  12.731  15.670 -0.1230 -0.1969 -0.0181
27179W        W44026  13.279  14.595  14.297  0.1833  0.0373  0.1913
27180W        W44027  12.608  15.504  13.551 -0.2913  0.2079 -0.0805
27181W        W44028   4.165   0.394   3.610  0.3101  0.0908  0.1099
27182W        W44029   8.059   8.006  14.290  0.1526  0.2103  0.0294
27183W        W44030   4.860   3.241  11.449  0.3480  0.1598 -0.0515
27184W        W44031  16.491  11.208   3.886  0.1864 -0.1160  0.0154
27185W        W44032   1.929  14.928   3.611 -0.0130  0.1531 -0.0911
27186W        W44033   2.877   3.305   3.860  0.2428 -0.1288 -0.3475
27187W        W44034   8.343   7.323  13.626  0.2125 -0.1164 -0.0585
27188W        W44035   9.752  14.252  12.976 -0.0931  0.2446  0.3529
27189W        W44036  13.732   5.573  13.208  0.2723 -0.0578  0.0593
27190W        W44037  14.869   0.166  13.207  0.0644  0.0697  0.1718
27191W        W44038   2.462   8.101   1.114 -0.0025  0.0546  0.1595
27192W        W44039   6.844  14.112  16.687  0.1547  0.1362 -0.0464
27193W        W44040   7.924   2.400   4.265 -0.1789  0.0459 -0.1389
27194W        W44041  10.622   0.004  15.447 -0.0268  0.1879 -0.0906
27195W        W44042   6.679   5.014   4.178 -0.0281 -0.1680 -0.1263
27196W        W44043  12.135   5.470   6.176 -0.0182  0.1868 -0.3297
27197W        W44044   8.350   8.098   5.581 -0.0896 -0.3792  0.0430
27198W        W44045   8.399  12.608  11.906  0.0735  0.1927  0.0186
27199W        W44046  12.475  13.001  15.376  0.0145 -0.2007 -0.0111
27200W        W44047  15.881   5.316  14.879 -0.1275 -0.0365  0.0406
27201W        W44048  14.787   3.750   5.152  0.0665  0.1209  0.1260
27202W        W44049  15.336   2.132   4.315 -0.2007 -0.0782 -0.0785
27203W        W44050   5.485   9.470  14.928 -0.1031  0.2291 -0.1398
27204W        W44051   3.398  10.936  15.659  0.0346 -0.0548 -0.0548
27205W        W44052   8.410  12.046  14.509 -0.1155 -0.1527 -0.0609
27206W        W44053   9.667  16.790  14.476  0.2588  0.0543 -0.1424
27207W        W44054   2.226   6.205   0.202  0.2453 -0.3875 -0.1306
27208W        W44055   2.957  11.912  16.343 -0.1914 -0.0236  0.1146
27209W        W44056  12.399  10.576  15.751  0.2268 -0.0031 -0.0732
27210W        W44057   7.138  10.047  15.918 -0.2186  0.0434  0.1093
27211W        W44058   2.982   2.696   5.575  0.1290 -0.1896  0.0182
27212W        W44059   1.431  10.488   4.481  0.0344  0.1599  0.0673
27213W        W44060   3.298  15.523  15.932 -0.2274 -0.3434  0.0226
27214W        W44061  10.052   5.816   3.598  0.1258  0.0560 -0.0797
27215W        W44062  13.224  12.616   1.114 -0.0562  0.1594 -0.2050
27216W        W44063  16.065  16.084  16.251  0.0014  0.1658  0.0774
27217W        W44064  13.507   5.198   3.875 -0.2690 -0.2769  0.1526
27218W        W44065  11.274  11.781  16.691  0.1009 -0.0536  0.1688
27219W        W44066   2.342  14.198  16.342 -0.0540  0.0546 -0.0053
27220W        W44067   4.793   8.404   5.393  0.0908  0.0670  0.4068
27221W        W44068  15.835  13.605   3.262  0.1561  0.0110 -0.3288
27222W        W44069  10.585  12.055   4.276  0.0670  0.1943  0.0361
27223W        W44070   2.514   1.925  12.776  0.0690  0.0895 -0.0550
27224W        W44071   0.783   0.135  12.432 -0.1815 -0.3481  0.1602
27225W        W44072  11.589   8.635   5.504  0.4612 -0.2218  0.0463
27226W        W44073   7.655  14.654   3.819  0.1672  0.0552  0.2170
27227W        W44074   4.234  14.386  12.198 -0.1053  0.1210 -0.0843
27228W        W44075  11.394   0.097   2.108  0.4966  0.0341  0.0020
27229W        W44076   3.378   2.973  13.740  0.0349 -0.3424 -0.3631
27230W        W44077   7.706  10.842   4.328 -0.0921  0.2848 -0.0730
27231W        W44078   4.070  13.414  16.222  0.2494  0.0922  0.0829
27232W        W44079  10.802   1.411  15.056  0.0578  0.2127  0.2029
27233W        W44080   7.198   8.479  13.283  0.2631 -0.2725  0.0608
27234W        W44081  14.165  16.282   0.716 -0.0379 -0.1067 -0.1533
27235W        W44082   2.949  13.761   2.963  0.0936  0.0779 -0.1727
27236W        W44083  11.147   3.702  12.257  0.0237 -0.1113  0.2109
27237W        W44084   9.532   5.451   2.012  0.1104  0.0952 -0.0842
27238W        W44085   0.932   2.007   1.970 -0.0071 -0.0760 -0.1601
27239W        W44086   5.126  12.010   0.020 -0.0201 -0.1178 -0.0676
27240W        W44087   5.593   4.479   1.760  0.1562 -0.1463 -0.0796
27241W        W44088   0.406   5.242   0.227  0.1514 -0.1105  0.2950
27242W        W44089  10.142  16.108   3.014  0.0611  0.1936  0.1830
27243W        W44090  13.524   6.511  15.800  0.0994 -0.3412 -0.2149
27244W        W44091  16.053  14.966  15.872  0.1253 -0.0382  0.1265
27245W        W44092  16.477   7.325   2.550 -0.3587  0.2601 -0.0952
27246W        W44093   3.738  15.048   1.594 -0.0070  0.0132  0.0338
27247W        W44094  11.484   1.059   3.180 -0.0493 -0.0342 -0.3656
27248W        W44095  14.565   7.549   2.796  0.0654 -0.1426  0.0482
27249W        W44096   7.121   9.309   3.458  0.0913  0.1243 -0.2848
27250W        W44097   4.281  16.063  12.082 -0.1593 -0.2553 -0.0975
27251W        W44098   1.481  14.236  16.389  0.0304 -0.3214  0.2010
27252W        W44099  16.075   9.176   2.350 -0.1427 -0.1163 -0.0380
27253W        W44100  14.446  11.614   4.199 -0.0016 -0.3382 -0.0688
27254W        W44101  10.423   9.426   4.442  0.1900  0.0337 -0.0237
27255W        W44102   3.610   5.476  13.477  0.0706  0.1268 -0.0607
27256W        W44103   0.261  11.728  13.857  0.4768 -0.0657  0.3230
27257W        W44104   0.167   2.654  14.553  0.2315  0.0153  0.1119
27258W        W44105  16.838   6.903  13.738 -0.2017 -0.0399  0.0380
27259W        W44106   8.345  17.883   1.558 -0.2068  0.3292 -0.5653
27260W        W44107   4.939   5.192   2.931 -0.3356 -0.1568 -0.1108
27261W        W44108  17.234  14.533  15.572  0.1113  0.1185 -0.4136
27262W        W44109  11.236  10.689   0.909 -0.1960 -0.0934  0.0486
27263W        W44110  13.000   2.942   0.316  0.0381 -0.0753 -0.0879
27264W        W44111   5.897   3.882   3.955 -0.2505  0.0826 -0.0301
27265W        W44112  17.936  13.389   0.710 -0.1876 -0.3647  0.0300
27266W        W44113   0.251   7.462  13.081  0.4650 -0.4551 -0.1184
27267W        W44114   6.654   5.176  13.175  0.2301 -0.1326 -0.1738
27268W        W44115  11.814   1.721   1.930 -0.0827  0.1074  0.1462
27269W        W44116   2.957  16.490   0.529  0.1743 -0.2111 -0.0081
27270W        W44117  10.725   5.451  13.632  0.0439 -0.1008  0.1098
27271W        W44118  11.345   6.748  12.712 -0.1344 -0.0864  0.3104
27272W        W44119  11.928   7.742  14.738  0.0059  0.0276 -0.1278
27273W        W44120   7.529   8.553  12.576 -0.0588 -0.0396  0.2091
27274W        W44121  11.269   8.468   1.185  0.0624  0.0172  0.1156
27275W        W44122   5.770  16.933  16.344 -0.1448  0.2777 -0.2389
27276W        W44123   9.696   7.244  15.257 -0.1428 -0.0728  0.0934
27277W        W44124   5.977  13.854  15.459 -0.0012 -0.0363  0.1056
27278W        W44125   9.483  12.659  14.261 -0.3306 -0.0986  0.3304
27279W        W44126   6.603  14.154   4.230 -0.1470  0.2375 -0.2279
27280W        W44127  12.372   9.103  13.558  0.0046 -0.1622 -0.0306
27281W        W44128   3.406  11.424   0.494 -0.4002  0.1210 -0.4813
27282W        W44129   6.248  11.977   0.617  0.1736 -0.0048  0.2787
27283W        W44130   4.459  13.080   2.006  0.1482  0.3193  0.4051
27284W        W44131   5.791  14.558   1.702  0.1689  0.1718  0.2319
27285W        W44132  12.635   6.708  15.598 -0.1007  0.0436 -0.1042
27286W        W44133  13.791   7.912  15.628 -0.1580  0.0677  0.0531
27287W        W44134   3.274   4.878  13.324 -0.3643 -0.2028  0.0707
27288W        W44135   4.220  11.096  15.138  0.0286 -0.0994  0.2373
27289W        W44136   5.568  11.709  14.542  0.2239  0.2811  0.2411
27290W        W44137   6.857   2.262   5.361  0.0877 -0.0446 -0.0166
27291W        W44138   6.744   8.661  13.138 -0.0767  0.2133  0.1128
27292W        W44139   7.745   9.116   3.843  0.0334  0.0264  0.0342
27293W        W44140  15.167  16.689   4.672 -0.0679 -0.0110 -0.0130
27294W        W44141  17.297   7.109  13.648  0.0909 -0.2327  0.2844
27295W        W44142   6.732   7.995  15.745  0.1513  0.1412  0.0610
27296W        W44143  17.676   2.383   3.544 -0.1507  0.1924 -0.1309
27297W        W44144   8.260   4.530  12.629  0.1026 -0.1562  0.0189
27298W        W44145   8.614   9.713   2.502 -0.1797  0.1482 -0.1966
27299W        W44146   8.729  16.772   0.998  0.0654 -0.1268 -0.1448
27300W        W44147   9.820   1.026   4.862 -0.0301  0.0688 -0.0108
27301W        W44148  17.767  14.094  15.477 -0.0737 -0.0033  0.1104
27302W        W44149   7.206  14.644   3.557  0.1690  0.0841 -0.1998
27303W        W44150   4.289  15.063   1.801  0.0063 -0.1583  0.2707
27304W        W44151   7.739   0.008  12.446  0.4470  0.1684  0.2007
27305W        W44152  10.784   5.331  14.367 -0.1593 -0.0989 -0.1752
27306W        W44153  12.164  12.601  12.764  0.0423 -0.0839  0.1110
27307W        W44154   2.884  11.981   4.804  0.3383  0.0602 -0.2871
27308W        W44155  10.479  16.940  13.241 -0.0009  0.0896  0.0244
27309W        W44156   7.118   5.893   4.002 -0.1994 -0.1896 -0.1561
27310W        W44157   5.873   9.632  16.361  0.2186 -0.2972 -0.0465
27311W        W44158  16.649   3.187   1.752 -0.3376  0.1159 -0.0379
27312W        W44159  17.339   9.745   1.675 -0.2986 -0.0295 -0.3654
27313W        W44160  12.474  10.956  13.377 -0.2136  0.2932  0.2347
27314W        W44161  10.630  12.901  11.914  0.4327 -0.1937 -0.0817
27315W        W44162  16.031   9.807  12.876  0.1798 -0.2109 -0.1532
27316W        W44163   9.279   2.675   1.044  0.0501  0.2965  0.3211
27317W        W44164   7.950   3.126  11.449  0.0405 -0.1325 -0.0938
27318W        W44165  16.580   9.411   1.458  0.1771 -0.0790  0.2937
27319W        W44166  14.633   7.687   5.064  0.0414  0.1273 -0.0711
27320W        W44167   8.405  13.294  16.222 -0.1468  0.4792  0.2757
27321W        W44168   9.185   1.371  16.271  0.2493  0.1421  0.1643
27322W        W44169  12.782   9.082   0.843  0.2182 -0.0571 -0.1895
27323W        W44170   7.912   3.275   1.615  0.1564  0.1210 -0.1599
27324W        W44171  11.723   2.299  13.033  0.1621  0.0885 -0.0135
27325W        W44172   4.152  12.819  16.745 -0.3046  0.0760 -0.0309
27326W        W44173   6.563  12.334  13.676  0.0381 -0.0812 -0.1279
27327W        W44174  11.622   8.089   4.524  0.1794 -0.0321  0.0448
27328W        W44175   9.320   6.125   4.300 -0.0874  0.2019 -0.0867
27329W        W44176  12.762   1.253  15.604 -0.3234  0.0246  0.0847
27330W        W44177   4.952  17.528  16.144 -0.0871  0.1160  0.1033
27331W        W44178   2.228   7.373   1.571  0.2076  0.0405  0.3475
27332W        W44179   9.695  15.638  15.826  0.0586  0.0605 -0.1603
27333W        W44180   2.974   0.907  15.315  0.0377 -0.1087 -0.3476
27334W        W44181  14.306   0.609  13.795 -0.1423 -0.3347  0.1534
27335W        W44182   7.638   5.815  15.233  0.0632 -0.3632 -0.1236
27336W        W44183   6.108   2.866   3.177  0.2295  0.0778 -0.0605
27337W        W44184  15.112  15.199   0.553 -0.0814  0.4868  0.1826
27338W        W44185   3.871   6.238  14.340  0.1992 -0.1911 -0.0217
27339W        W44186   7.507   6.290  14.406  0.2168  0.3067  0.3154
27340W        W44187   3.908  10.918   3.955  0.1751 -0.1509  0.2028
27341W        W44188  11.386  16.686  14.750 -0.2107 -0.1813 -0.1413
27342W        W44189  11.336  12.849  16.216  0.0625 -0.0823  0.0254
27343W        W44190   4.259   0.781  15.365  0.3050 -0.0019 -0.2315
27344W        W44191   6.319  14.367   4.622  0.2189 -0.0130  0.0564
27345W        W44192   9.212  16.681  15.724  0.1034  0.1689 -0.3407
27346W        W44193   2.031   5.563   4.229  0.1762  0.1237 -0.1083
27347W        W44194  17.242   9.220   4.061  0.3005  0.0529  0.0123
27348W        W44195  17.906   3.857   3.155 -0.3190 -0.1705  0.1244
27349W        W44196   4.400   0.120  11.331 -0.2766  0.0503  0.0706
27350W        W44197  10.673  10.861  12.708  0.0360  0.0393 -0.0247
27351W        W44198   4.784   8.422  15.433  0.3121 -0.0433  0.1432
27352W        W44199  10.245  17.478   2.107  0.0587 -0.0070  0.2551
27353W        W44200  12.157   7.844  15.186 -0.1057 -0.0854  0.3073
27354W        W44201  10.377  15.390   5.470 -0.0751 -0.0123  0.0812
27355W        W44202  16.902  16.367  13.910 -0.1458 -0.0700  0.0419
27356W        W44203  12.675   0.743   1.760 -0.1365  0.1258 -0.0552
27357W        W44204  12.586  13.337  16.078  0.2375 -0.0223  0.2084
27358W        W44205   8.271   8.813   5.832 -0.1616  0.1505 -0.0084
27359W        W44206  15.737   5.460   3.007 -0.1717 -0.1830 -0.2896
27360W        W44207   3.373   6.378   2.013 -0.3599  0.1119  0.0528
27361W        W44208  13.972   3.854   2.539  0.1224 -0.0024  0.0609
27362W        W44209   9.920  10.973  14.788  0.3111 -0.0036 -0.3205
27363W        W44210  13.060   3.751   2.251 -0.0163  0.0400 -0.0774
27364W        W44211   6.292   8.927  13.165  0.0740  0.3175 -0.0878
27365W        W44212   3.530  12.552  15.377  0.0513 -0.2165 -0.1763
27366W        W44213   5.183   3.319   4.200 -0.0261  0.0674  0.0513
27367W        W44214  12.991  14.293  13.993 -0.0412  0.0360 -0.0158
27368W        W44215   1.477  13.548   0.150 -0.0643  0.1354 -0.0901
27369W        W44216   7.687  15.562  13.397  0.1798  0.1416 -0.0320
27370W        W44217  13.839  16.538  14.054 -0.0031 -0.1530 -0.0222
27371W        W44218   1.924   2.305  12.006  0.2303  0.3477 -0.0961
27372W        W44219  12.821   1.101  12.129 -0.4656 -0.0236  0.0961
27373W        W44220  10.955  16.229   6.583  0.2218 -0.0546  0.0138
27374W        W44221  11.746  14.813   4.224  0.0150  0.3403  0.1816
27375W        W44222   6.371  11.928   4.620 -0.0836 -0.0221  0.2371
27376W        W44223   9.692   9.621  13.328 -0.1532  0.1427 -0.0308
27377W        W44224   8.426   8.907  13.380 -0.0796 -0.2987  0.0684
27378W        W44225  14.234   5.464  16.046  0.1531  0.1840  0.3814
27379W        W44226   6.102   5.405  15.230 -0.1578  0.0287 -0.1413
27380W        W44227   0.557  11.359   3.764 -0.1218  0.2023  0.1310
27381W        W44228   5.873  14.053  13.177  0.1657 -0.0473 -0.0988
27382W        W44229  13.468   0.634  13.897  0.1310 -0.0790 -0.3293
27383W        W44230  14.452  11.813   5.194  0.2687 -0.1357  0.4003
27384W        W44231   6.742   7.476   5.398  0.0003 -0.0177 -0.0235
27385W        W44232   6.042  14.611  14.875 -0.2666 -0.3757 -0.0567
27386W        W44233   5.269   5.564   5.127 -0.2410  0.0447  0.2473
27387W        W44234  17.171  13.270   2.356  0.0522 -0.0479 -0.0905
27388W        W44235  16.064  15.062   2.838  0.4115 -0.1371  0.2120
27389W        W44236  14.889   9.834  16.075 -0.0521  0.0803 -0.2430
27390W        W44237   5.210   4.938   4.124  0.1372 -0.0969  0.1340
27391W        W44238  17.071   9.745   0.750  0.1416  0.1741  0.5572
27392W        W44239   7.249  12.289   4.926  0.1807  0.2405 -0.1065
27393W        W44240  17.796   7.701  16.755  0.2081 -0.1271 -0.1152
27394W        W44241  12.191   0.308   3.208 -0.1110 -0.0965  0.3459
27395W        W44242   7.544  17.018   4.530  0.0552  0.1737 -0.2514
27396W        W44243   2.855   1.016  12.768  0.2157  0.1439  0.1195
27397W        W44244  11.013  17.827   1.378 -0.4359 -0.0810 -0.1829
27398W        W44245   0.346   1.058   1.211 -0.0216 -0.2449 -0.0323
27399W        W44246   4.001  14.237   1.708 -0.2451 -0.3530 -0.2335
27400W        W44247   7.915  10.624  15.712  0.2523 -0.0403 -0.0895
27401W        W44248  17.320   4.642   3.402  0.1020  0.0407 -0.1308
27402W        W44249  10.855   1.665   2.940  0.1008  0.1851 -0.1903
27403W        W44250   0.206   3.086   2.419  0.0020  0.0263  0.2215
27404W        W44251   5.321  15.491   3.801  0.0689  0.0027 -0.2693
27405W        W44252   3.058   3.027  15.284  0.0877 -0.1191 -0.0216
27406W        W44253   0.057  17.447  14.184 -0.0320 -0.0255  0.0933
27407W        W44254  16.776  16.526  13.122 -0.0064 -0.1102  0.0565
27408W        W44255   9.576   4.346   1.023  0.0456  0.1868  0.0112
27409W        W44256  16.270   5.067   4.407  0.0986  0.1633  0.0853
27410W        W44257  10.105   1.677  15.150 -0.1392 -0.0814  0.0317
27411W        W44258   0.804  12.882  16.652 -0.0371 -0.0688  0.1110
27412W        W44259   7.126  10.505  12.073  0.2213  0.2961 -0.3837
27413W        W44260   9.584  10.047   2.880 -0.2015  0.0803  0.1835
27414W        W44261  17.547  13.672  16.746 -0.1226  0.1869  0.2670
27415W        W44262   1.272   7.160   2.042 -0.0272  0.2517  0.0824
27416W        W44263   3.070   7.707   4.276 -0.0389  0.2569 -0.0507
27417W        W44264  15.633   0.078  15.184 -0.0327  0.2764 -0.0970
27418W        W44265   6.558  16.351   1.323 -0.0110 -0.1325  0.1695
27419W        W44266  16.915   4.357   2.514 -0.0427  0.0421 -0.4716
27420W        W44267  12.927  13.679  15.993  0.2255 -0.0026 -0.0554
27421W        W44268   2.539  17.360  12.612  0.0621 -0.1825  0.0284
27422W        W44269   4.449  10.834   0.458 -0.0526  0.0310  0.0279
27423W        W44270   8.927  11.816  12.814 -0.3426  0.0495  0.0956
27424W        W44271   4.351   3.847   1.055  0.3072 -0.0429  0.0503
27425W        W44272   1.140  13.615  11.108 -0.3807 -0.2009  0.2079
27426W        W44273  12.342  12.500   5.026  0.0144 -0.2353  0.2556
27427W        W44274   5.246  10.994   0.808  0.0099  0.1177  0.1610
27428W        W44275   9.151  17.626   2.000 -0.1917 -0.1957  0.3506
27429W        W44276  16.256  10.337   2.252  0.0531  0.3610 -0.0388
27430W        W44277  11.415  13.851   6.297  0.2794  0.0974  0.0995
27431W        W44278   6.398  11.377   5.238 -0.0183  0.1745 -0.1750
27432W        W44279   9.565  17.650  16.686  0.1656 -0.3270 -0.1094
27433W        W44280   9.822   8.523  11.604 -0.2199 -0.2802  0.3229
27434W        W44281  16.481   4.840   3.041  0.0556 -0.0580 -0.3018
27435W        W44282   9.282  14.274   2.118  0.1618  0.5140 -0.0521
27436W        W44283   8.421  13.839  15.090 -0.1240  0.1083 -0.1658
27437W        W44284   4.179  16.925   2.381  0.1140 -0.2136 -0.0224
27438W        W44285   4.650  17.278  15.865  0.1215  0.0761  0.0157
27439W        W44286   9.658  14.803   2.797 -0.0935 -0.2859  0.2065
27440W        W44287  11.643   3.024   1.470 -0.0472 -0.1010  0.1398
27441W        W44288  15.472   3.069  14.574 -0.0242 -0.0602 -0.1109
27442W        W44289   5.637  12.862   3.982  0.0495  0.1092 -0.2073
27443W        W44290  16.408   1.554  15.565  0.0631  0.1960 -0.2651
27444W        W44291  12.736  10.783  15.442  0.1237 -0.1365 -0.1342
27445W        W44292   9.873  12.966   4.434  0.4068 -0.5757 -0.2613
27446W        W44293   3.013  12.294   5.715  0.1550  0.0073  0.2508
27447W        W44294   0.841  11.376  11.837  0.4233  0.2271 -0.1053
27448W        W44295   9.172   4.295   2.975 -0.0512 -0.0629  0.3824
27449W        W44296  12.405   2.166  15.809 -0.2829  0.4314 -0.1722
27450W        W44297  15.252   2.981   4.104  0.1632 -0.2378  0.0167
27451W        W44298   5.145  17.739   1.639  0.1076  0.0454 -0.0697
27452W        W44299  16.908   1.946   3.704 -0.3047 -0.1151 -0.3259
27453W        W44300  11.917  14.460   3.761  0.0148 -0.0560 -0.0289
27454W        W44301   8.115  17.856  12.113  0.1470  0.1288 -0.0272
27455W        W44302   6.497   7.515  14.072  0.1515  0.1244  0.0457
27456W        W44303   3.343   2.359   0.885 -0.1791 -0.0905  0.1638
27457W        W44304   7.734   0.672   1.236  0.0839  0.0742 -0.0314
27458W        W44305   8.309   9.422   3.820 -0.1995 -0.2504 -0.0785
27459W        W44306  13.774  13.866  13.024  0.2654 -0.1339 -0.0617
27460W        W44307   0.568   9.947  16.792 -0.1526  0.1660  0.0874
27461W        W44308   1.041  14.015  12.448 -0.4292  0.0030  0.0576
27462W        W44309  11.726  12.931  13.810 -0.0977  0.1784  0.3449
27463W        W44310   0.369   9.226  15.354  0.0132 -0.2359 -0.3470
27464W        W44311   3.725  10.474   3.679  0.1620 -0.0302 -0.2843
27465W        W44312  16.871   9.919  12.314 -0.1390  0.0397 -0.2375
27466W        W44313   2.912   2.006   4.991  0.0107 -0.3703  0.3391
27467W        W44314  12.741  12.702   4.686 -0.0099  0.0726  0.3432
27468W        W44315   9.126   3.724   1.694  0.0294 -0.2169  0.2183
27469W        W44316  16.317  16.659   5.937 -0.0046 -0.0500 -0.1192
27470W        W44317  12.171   4.652   1.890  0.0363  0.0832 -0.3402
27471W        W44318   5.377  15.840   3.403  0.1241 -0.4036  0.0440
27472W        W44319   7.394   6.257   3.639  0.0413 -0.1841 -0.1225
27473W        W44320   9.169  12.743  15.228  0.0644  0.1173 -0.0197
27474W        W44321  11.796  17.027   6.048 -0.2873 -0.2492  0.0752
27475W        W44322  12.014   9.082   0.138 -0.0510  0.0173 -0.0221
27476W        W44323   6.469   2.161  12.888  0.1639 -0.2075  0.1079
27477W        W44324  10.030  16.394   0.660  0.1451  0.2360  0.2022
27478W        W44325  10.637  17.628  14.723  0.2386  0.1519 -0.0749
27479W        W44326   5.450  17.364  12.399 -0.2101 -0.2793  0.0384
27480W        W44327   1.823  10.073   3.877  0.0992 -0.3054  0.0321
27481W        W44328  12.709   5.513  16.010  0.2117  0.0243  0.1521
27482W        W44329  17.047   2.900   4.720  0.0951  0.0201 -0.1103
27483W        W44330  10.801  14.922  12.435 -0.2012 -0.0193  0.0730
27484W        W44331   6.213  10.778  12.417 -0.2027  0.0845 -0.0648
27485W        W44332   7.866   1.144   0.475  0.0027 -0.0666  0.1495
27486W        W44333   0.748   3.888   0.486  0.0009  0.0283  0.1636
27487W        W44334   5.427   6.796  13.582  0.7727 -0.0770 -0.0942
27488W        W44335  10.691   7.386   2.599  0.1383  0.0294 -0.0008
27489W        W44336   3.167  16.244  12.169 -0.1217 -0.1640  0.0108
27490W        W44337  12.473   6.803  16.038 -0.2630  0.0853 -0.0823
27491W        W44338  10.890  13.337   0.077  0.2059 -0.2132  0.0093
27492W        W44339  11.549  17.281  13.661 -0.2737 -0.0517 -0.0139
27493W        W44340   5.971   6.990   2.755 -0.0050  0.1469 -0.2125
27494W        W44341  16.611   2.001  16.577 -0.4445 -0.0891 -0.1997
27495W        W44342   8.946  16.503  13.996  0.1142  0.0849 -0.0497
27496W        W44343   6.712   8.862   5.961  0.1693 -0.0293  0.1889
27497W        W44344   1.129  11.834  15.880 -0.2108  0.2453 -0.1784
27498W        W44345   7.759   1.256  11.971 -0.6405  0.0127  0.0988
27499W        W44346   5.180   4.970  14.058 -0.1285  0.1214  0.0168
27500W        W44347   1.600  16.020  16.329 -0.2469 -0.0741  0.1718
27501W        W44348  17.184  14.665  12.951  0.0605 -0.2978 -0.1928
27502W        W44349   3.850   2.118  12.637 -0.0615  0.2435 -0.2531
27503W        W44350  17.733  16.464   0.612  0.1539  0.0599  0.4158
27504W        W44351   9.613  15.854  11.507 -0.2374  0.2163  0.0146
27505W        W44352  13.954  13.726   0.142  0.2286 -0.1604  0.2598
27506W        W44353  11.106  16.697   6.575  0.1612 -0.1194  0.0030
27507W        W44354   1.144   1.415  16.712  0.1665 -0.1082 -0.0073
27508W        W44355   3.483   8.891   2.993  0.0590  0.1801 -0.3085
27509W        W44356  14.628   6.296  14.824  0.0089 -0.3779  0.0081
27510W        W44357   5.041  17.191   0.231 -0.0792 -0.0908  0.2319
27511W        W44358  12.382  14.323   3.476 -0.2947  0.2151  0.1952
27512W        W44359  15.847  13.279  15.508  0.1601 -0.0139  0.3026
27513W        W44360   2.267   7.970  14.948 -0.3384  0.1474  0.0744
27514W        W44361  13.382   8.343  12.480  0.2736 -0.0063 -0.0409
27515W        W44362  14.893   7.079   3.589 -0.1256  0.0328 -0.0432
27516W        W44363  16.507  16.761   1.810 -0.1850  0.0397 -0.0923
27517W        W44364  17.624  16.787  16.563  0.1123 -0.1838 -0.0571
27518W        W44365  12.134   0.534  15.972 -0.0946  0.1466  0.2992
27519W        W44366  12.462  13.197  13.153 -0.0774 -0.1893  0.0125
27520W        W44367  11.120   9.175  12.220  0.0776  0.1113  0.1234
27521W        W44368   7.308  16.881   2.432 -0.2954  0.1541 -0.0990
27522W        W44369   2.545   2.180   2.888  0.0632  0.0333  0.0607
27523W        W44370   0.290   1.614   0.620  0.1410 -0.4129 -0.0595
27524W        W44371  16.184  13.521  11.884  0.1945 -0.1687 -0.3450
27525W        W44372   3.797  16.767  14.929  0.2290  0.0496 -0.0096
27526W        W44373  11.093  15.833   0.920  0.0769  0.0821  0.0079
27527W        W44374   1.988  12.351   3.623  0.2259 -0.3222 -0.0797
27528W        W44375   1.267  11.611  15.316 -0.0575  0.1513 -0.1290
27529W        W44376  17.816   9.938   2.072  0.1359  0.1066  0.0825
27530W        W44377   8.264  13.640  11.887 -0.3874 -0.1626  0.2059
27531W        W44378   8.550   4.558   1.118  0.1872  0.0981 -0.3039
27532W        W44379  11.667  16.121   6.078  0.1519  0.0280 -0.1368
27533W        W44380   0.771  16.849  15.109 -0.2780 -0.3835 -0.0179
27534W        W44381   8.684  12.629   3.598  0.0302 -0.0857 -0.1219
27535W        W44382   4.668  11.921  14.885 -0.2068 -0.3811 -0.1141
27536W        W44383  11.620   6.859  14.996  0.1218 -0.2250 -0.4564
27537W        W44384  12.787   1.144   4.608 -0.1413 -0.1982 -0.3357
27538W        W44385  17.065   4.785  15.260  0.0640 -0.0007  0.0179
27539W        W44386   4.265  13.549  13.950  0.1067 -0.2538  0.2529
27540W        W44387   4.224  17.691   0.786 -0.2970 -0.0350 -0.0444
27541W        W44388   2.407   8.435  13.809 -0.4631 -0.0459  0.0917
27542W        W44389   5.211  17.343  13.426  0.0255 -0.1260 -0.5515
27543W        W44390  16.128  13.901  11.555 -0.0514  0.0745  0.0513
27544W        W44391   0.765   3.747   2.052 -0.0232  0.0311  0.1243
27545W        W44392   2.285  14.280   5.343 -0.1856  0.4327  0.0416
27546W        W44393   5.887  16.169   3.642  0.1595 -0.1204  0.0376
27547W        W44394  13.255   9.217   4.051 -0.1650 -0.3614  0.2400
27548W        W44395  17.905  13.950   3.075 -0.1538 -0.0437  0.1836
27549W        W44396  17.054   6.589  15.207  0.0820 -0.4088  0.1993
27550W        W44397   8.002  16.216  15.248 -0.0149 -0.1453  0.2832
27551W        W44398  10.536  12.995  13.373 -0.3160 -0.1949  0.0701
27552W        W44399   4.806  14.554  16.711 -0.1522  0.3809 -0.1082
27553W        W44400  13.134  11.731  13.159  0.0041  0.0834  0.0550
27554W        W44401   3.889  14.781   0.104 -0.2507  0.2754  0.0495
27555W        W44402   4.811  11.853   4.529 -0.1408 -0.1826  0.2874
27556W        W44403   9.898   9.212  14.413 -0.0045  0.1179 -0.1398
27557W        W44404   2.642   2.776   3.046  0.3538 -0.0931 -0.0433
27558W        W44405  11.813   5.225   5.402 -0.3154  0.1144  0.0867
27559W        W44406   1.328   2.655  14.593 -0.0565  0.0332 -0.0202
27560W        W44407   7.072   7.094  13.135  0.3309  0.0643  0.0712
27561W        W44408  13.593   4.763   2.073  0.2665 -0.1433 -0.0613
27562W        W44409   7.847  11.672  12.632 -0.1209 -0.0146  0.1119
27563W        W44410  15.278  16.865  13.619 -0.1059  0.0084 -0.0453
27564W        W44411   0.709   5.738  12.423  0.2037  0.2800 -0.4035
27565W        W44412   9.972  15.327  13.303 -0.2783  0.0669  0.0777
27566W        W44413   1.187   7.740  13.795  0.0584 -0.2771 -0.0418
27567W        W44414  11.203   9.690  13.293 -0.1619  0.2306  0.2834
27568W        W44415   1.630   3.593  14.515 -0.1775  0.1040 -0.6336
27569W        W44416  12.684  10.065   1.219 -0.0171  0.0049  0.2878
27570W        W44417   7.498   6.310   2.812 -0.0715 -0.2657 -0.0258
27571W        W44418   5.436  15.852   5.011  0.3858 -0.2041  0.1328
27572W        W44419   1.536   5.825   0.263  0.0173 -0.2051  0.0626
27573W        W44420  17.163  12.120   0.420  0.3826 -0.0174  0.0982
27574W        W44421  10.897   9.442   3.244  0.1373 -0.0666  0.1016
27575W        W44422  14.486   9.048   0.947 -0.1318 -0.2584 -0.1150
27576W        W44423  10.772   6.064  13.223 -0.3607 -0.2373 -0.1317
27577W        W44424   7.911  17.084  16.259 -0.3522 -0.0974  0.1702
27578W        W44425  11.300  11.324  14.015  0.0494 -0.0616  0.1542
27579W        W44426   3.168  12.173  13.033  0.0024 -0.1481 -0.1099
27580W        W44427  17.426   7.170   3.662  0.2687  0.0488 -0.2414
27581W        W44428   1.152   5.938  16.215 -0.1466  0.1425 -0.1652
27582W        W44429   3.166  17.800  14.348  0.2712 -0.0292  0.0384
27583W        W44430  16.052   7.984  16.675  0.0575  0.1665 -0.0256
27584W        W44431  13.750   7.713   2.356  0.0431 -0.2677 -0.1079
27585W        W44432  13.768  11.216  11.993  0.4304  0.0669 -0.0906
27586W        W44433   6.382   2.249  11.917  0.2614  0.2517 -0.2741
27587W        W44434   5.303   0.740   4.694 -0.2448  0.0902  0.2047
27588W        W44435  15.589   6.436   1.226  0.1217 -0.2653  0.0856
27589W        W44436  17.292   8.413   0.657 -0.1001 -0.1775  0.2255
27590W        W44437   7.146  15.332  15.477  0.0935 -0.0458  0.0982
27591W        W44438   7.063   4.513  12.405 -0.0228  0.3991 -0.0224
27592W        W44439  11.353   9.449   3.043 -0.0396 -0.0068  0.0365
27593W        W44440  13.527   9.913   3.348  0.1816 -0.0625 -0.2053
27594W        W44441  16.661  12.637  16.752  0.2686  0.1327 -0.0592
27595W        W44442   3.928   3.249  13.929  0.0223 -0.1627  0.0595
27596W        W44443   5.281  11.821  12.123  0.0313 -0.0024 -0.0183
27597W        W44444  11.355  13.047   1.913  0.1107  0.1130  0.3684
27598W        W44445  11.074   4.177  15.696  0.0988  0.1897 -0.0713
27599W        W44446   5.410  15.870  14.978  0.1008  0.0363  0.2414
27600W        W44447   8.760  17.638   1.220 -0.0116 -0.1730 -0.2054
27601W        W44448  13.934   1.871   2.048  0.0300 -0.3334  0.0204
27602W        W44449   8.397  12.606   1.549 -0.0786 -0.2740  0.1630
27603W        W44450   9.119   7.662  12.932 -0.1389 -0.5102 -0.0043
27604W        W44451  15.202   1.555  14.437 -0.0975  0.2824 -0.1474
27605W        W44452   1.376  17.592  16.181 -0.2447 -0.1282  0.1817
27606W        W44453   2.482  17.671   1.155  0.0407 -0.0581  0.0690
27607W        W44454   7.600   6.283   0.592 -0.0567 -0.0331 -0.0312
27608W        W44455  15.622   5.231   4.800  0.2079  0.0492 -0.1293
27609W        W44456   1.279   3.206   0.831  0.1567  0.1504 -0.0014
27610W        W44457  15.843  11.392  13.595 -0.4497  0.1106 -0.0905
27611W        W44458   1.669   3.888   5.151  0.0055 -0.2648  0.0276
27612W        W44459   9.031   7.549   3.730  0.3838 -0.0127 -0.0941
27613W        W44460  17.051  14.137  12.778 -0.0429  0.2884  0.1836
27614W        W44461   3.785   5.250   3.123 -0.0573  0.1206  0.0888
27615W        W44462  12.315   9.376   3.139  0.0088  0.2055 -0.1278
27616W        W44463  14.485   3.536  16.252  0.0841 -0.1412 -0.3192
27617W        W44464  12.454   1.600   0.731 -0.0787 -0.3941  0.3030
27618W        W44465  11.765   1.976   2.811 -0.2640  0.3694 -0.1595
27619W        W44466  17.820   6.230  11.686 -0.1326 -0.0946  0.2808
27620W        W44467  15.994  13.558  13.522  0.3422  0.1564  0.0942
27621W        W44468  11.869   5.386  15.655  0.3340  0.0198  0.2337
27622W        W44469   5.306  17.373   3.819 -0.3573  0.1619  0.3012
27623W        W44470  13.450  11.044   3.725 -0.1078 -0.0706  0.1224
27624W        W44471   9.230   7.906   5.644 -0.0089 -0.0662 -0.2588
27625W        W44472  12.595  14.197  12.246  0.1195 -0.0204 -0.1887
27626W        W44473  15.127   0.612  14.532  0.1346 -0.0930 -0.0545
27627W        W44474  16.133  10.572  12.547 -0.1448  0.0806  0.2359
27628W        W44475  10.422  13.132  13.992  0.0633  0.3625 -0.0206
27629W        W44476   2.842   5.240   6.356 -0.2109 -0.0852 -0.5228
27630W        W44477  14.204   0.795  11.644  0.0171 -0.0447  0.1473
27631W        W44478   0.664   1.283  16.003 -0.2839 -0.3643  0.0635
27632W        W44479   9.619   0.863  16.224  0.0643 -0.1804  0.0532
27633W        W44480  16.710   6.496   2.529  0.2044 -0.0637  0.0046
27634W        W44481   7.038   1.058  15.318  0.2807  0.1893 -0.0456
27635W        W44482  13.361   5.845  12.451  0.3498  0.0811  0.0895
27636W        W44483  16.745   8.807   5.505  0.0608  0.1006 -0.0013
27637W        W44484   5.114  17.706   3.088  0.0618  0.2731  0.0300
27638W        W44485   1.264   5.025  12.879  0.0870 -0.0879  0.2170
27639W        W44486  16.660   1.272   3.020  0.0436 -0.0493  0.2373
27640W        W44487  11.203  15.223  14.920 -0.0658 -0.2490 -0.0301
27641W        W44488   3.842  13.159  14.018 -0.1145  0.1730  0.0796
27642W        W44489  16.881  15.466   5.528 -0.1473 -0.1179 -0.1036
27643W        W44490  10.387   9.285   1.620  0.3927 -0.3699 -0.2671
27644W        W44491   7.595   1.301   4.808  0.4042  0.1345  0.0926
27645W        W44492   5.854   5.232  13.666  0.1148  0.0180 -0.2704
27646W        W44493   9.723   6.598  13.862 -0.0736 -0.1304  0.0699
27647W        W44494   5.475  15.313  16.112 -0.1934 -0.1207  0.1484
27648W        W44495   6.291  15.884  14.445 -0.1875 -0.0995 -0.0004
27649W        W44496  15.969   5.439   0.590 -0.0279 -0.1734  0.0942
27650W        W44497   6.993   1.027   2.665 -0.1611 -0.0573 -0.1036
27651W        W44498   0.238  15.046   4.281 -0.0915 -0.1569  0.2149
27652W        W44499   6.764   0.541  11.733 -0.0692  0.4131  0.3052
27653W        W44500   4.570   1.019  13.588  0.0254  0.1381  0.3636
27654W        W44501  12.458   9.663  11.555  0.2474  0.0948 -0.0884
27655W        W44502   7.313  15.908  16.764 -0.2300 -0.1899 -0.1982
27656W        W44503   2.565   6.303   0.556  0.1023 -0.0102  0.0818
27657W        W44504  15.795   7.098   0.375  0.0194 -0.2043 -0.0850
27658W        W44505  16.335  10.776   5.875  0.0565  0.1568 -0.0584
27659W        W44506   1.184  15.822  12.756  0.0701 -0.1537  0.1478
27660W        W44507  12.458  10.382  14.523  0.0614 -0.0526 -0.5378
27661W        W44508   9.794   6.206  14.124  0.0300 -0.0014  0.0850
27662W        W44509   2.892  16.658   4.008 -0.0840 -0.1968  0.2505
27663W        W44510   3.760   4.271  13.835  0.1375  0.1194 -0.0424
27664W        W44511   2.457  16.029  16.324  0.1259 -0.3575  0.2475
27665W        W44512  17.760  16.982  13.650  0.1509  0.0309 -0.1388
27666W        W44513  14.616  17.025   1.086  0.2349  0.0724  0.0590
27667W        W44514  15.071  14.187   3.189  0.1115 -0.2327 -0.2301
27668W        W44515   3.843   8.719  13.720 -0.1819 -0.0993  0.2223
27669W        W44516   2.346  10.934   4.720  0.3677  0.0883  0.1151
27670W        W44517  11.034  12.547   4.460 -0.2647  0.0672 -0.0095
27671W        W44518   3.043  14.647  16.694 -0.1227  0.1104 -0.2256
27672W        W44519   4.733   1.849  12.851 -0.3081 -0.0378 -0.0514
27673W        W44520   4.281   8.381   1.347 -0.0172  0.2754 -0.1997
27674W        W44521  11.444  17.453   6.006  0.1196 -0.1050 -0.0857
27675W        W44522   7.345   2.579   1.949  0.1961  0.1231 -0.1915
27676W        W44523   8.187   3.199  14.529  0.1466  0.0459 -0.1553
27677W        W44524  12.688  16.142  15.433  0.1492  0.0849 -0.1934
27678W        W44525  16.099   9.820   4.149  0.1062  0.2436  0.0404
27679W        W44526   6.799  13.368   0.190  0.3061 -0.0041 -0.0730
27680W        W44527   0.509  11.508  12.795 -0.2229 -0.0661 -0.0322
27681W        W44528  11.795   9.100   3.681 -0.4978 -0.0624 -0.0303
27682W        W44529  10.130   4.082  13.755  0.0553 -0.2500  0.0265
27683W        W44530   8.151  17.086  14.032  0.2364  0.2011  0.0433
27684W        W44531  11.109  15.486   3.940  0.0932  0.1045  0.0276
27685W        W44532  16.158  12.222   5.523  0.0820 -0.0248 -0.0706
27686W        W44533  16.518  15.403  13.563 -0.2647 -0.0005 -0.0196
27687W        W44534  12.663  13.573   4.765  0.0531  0.3157  0.2566
27688W        W44535  10.727  10.733   2.809  0.0681  0.3516 -0.0987
27689W        W44536  13.471   8.996  14.500  0.0864 -0.2693  0.2521
27690W        W44537  15.451   3.488  13.503  0.0332  0.0569 -0.0620
27691W        W44538   1.521  12.516   4.676  0.0992 -0.2040 -0.3516
27692W        W44539  17.102   5.732  11.690  0.0493  0.0672  0.0810
27693W        W44540  13.775   6.115  14.538 -0.1616  0.1841 -0.0666
27694W        W44541  10.534   1.238   2.948 -0.0089  0.0530 -0.2670
27695W        W44542  16.907   1.355   5.001  0.2537 -0.0055 -0.0392
27696W        W44543  15.327  15.422  12.678  0.1787 -0.3867  0.0827
27697W        W44544   5.903  13.267   4.375 -0.0655 -0.1021 -0.3281
27698W        W44545   8.074  13.953   0.324  0.3741 -0.0044 -0.2100
27699W        W44546   7.068   8.079   1.499 -0.3636  0.1280 -0.0890
27700W        W44547   8.560  15.787  14.790  0.0621  0.2866 -0.1168
27701W        W44548   3.746   2.743   0.227  0.1669  0.2565  0.2569
27702W        W44549  10.364  12.209  13.533  0.2405 -0.1020  0.0875
27703W        W44550  10.052   6.706  13.509  0.1849  0.3167 -0.1931
27704W        W44551  10.468   4.992  13.772 -0.0608  0.0559  0.3520
27705W        W44552  12.172  12.547  13.750 -0.2376 -0.1995  0.3857
27706W        W44553   9.379   8.079  15.383 -0.1144 -0.1308 -0.0426
27707W        W44554   5.327   8.312   2.756 -0.2854 -0.1079 -0.2209
27708W        W44555  15.497  16.218   5.269  0.0698 -0.0349 -0.4047
27709W        W44556   7.936   2.315   3.381 -0.0393  0.1010 -0.1153
27710W        W44557   2.657   9.709  12.690 -0.2367  0.0863 -0.0402
27711W        W44558   2.635  17.232  12.078 -0.1616 -0.2330 -0.0213
27712W        W44559  13.012   0.580  14.208  0.2486 -0.0192 -0.0547
27713W        W44560  15.235  14.447   4.877  0.1485 -0.1377 -0.1197
27714W        W44561  16.922   4.207  13.740 -0.1099  0.1765  0.3619
27715W        W44562   8.288  13.561   3.083 -0.1293 -0.0112 -0.0026
27716W        W44563   6.454   2.780   3.556  0.0167 -0.1138  0.1022
27717W        W44564  10.712  14.469   3.352  0.3190 -0.1349 -0.1068
27718W        W44565  14.589   5.133  13.482  0.0651 -0.3733  0.0364
27719W        W44566  16.073  11.179  14.932 -0.0878 -0.1386 -0.0904
27720W        W44567   5.658   1.537   2.656 -0.1067  0.0725  0.1148
27721W        W44568   7.309   0.534  12.602  0.0155 -0.1488 -0.0801
27722W        W44569  15.533   1.429  15.296  0.2144 -0.0263 -0.0375
27723W        W44570  17.032  10.953   3.957  0.1942  0.0925 -0.2752
27724W        W44571   6.884   8.690  16.145 -0.2277 -0.0457  0.1148
27725W        W44572   8.681   7.697   5.622  0.2064  0.1955 -0.1280
27726W        W44573   7.503  10.102  15.471  0.1310 -0.0536 -0.0490
27727W        W44574   5.012   7.893   0.989  0.1504 -0.2179  0.0054
27728W        W44575  12.609   9.085   2.880  0.2256 -0.1634  0.0458
27729W        W44576   4.487  14.064   1.689 -0.0564 -0.2083 -0.2777
27730W        W44577  12.748  14.872   5.149 -0.0500  0.1954 -0.1393
27731W        W44578   2.701   0.790   3.917  0.1874 -0.2194  0.1199
27732W        W44579   1.598  10.879   4.810 -0.0758  0.1456  0.4498
27733W        W44580   4.799   1.710   1.431  0.1284 -0.1231  0.1559
27734W        W44581  12.685  12.459   1.756 -0.0113 -0.0904  0.1732
27735W        W44582  15.583  10.411   1.102  0.2014 -0.1392 -0.0607
27736W        W44583  13.770   1.765  16.163 -0.2613  0.0573 -0.1018
27737W        W44584   2.672  17.768  16.363 -0.3936  0.2721  0.1340
27738W        W44585   9.562  13.593  11.719  0.2465 -0.1711 -0.1890
27739W        W44586  12.735   7.638   3.121  0.1665 -0.0699 -0.4690
27740W        W44587   7.343  16.258   3.110 -0.0003 -0.1050 -0.3238
27741W        W44588   5.964   2.424   2.307 -0.0871  0.0441 -0.0609
27742W        W44589   3.570  11.314  11.558 -0.1536 -0.2339 -0.2563
27743W        W44590   9.830   1.269  15.020  0.3052  0.1152  0.4139
27744W        W44591   3.563   3.811   5.777  0.0510  0.1163  0.2676
27745W        W44592  15.183   1.634   1.912 -0.0092 -0.0340  0.2244
27746W        W44593   6.254   3.985  11.701 -0.1914 -0.0050  0.1321
27747W        W44594  12.243   5.864   0.414  0.1290  0.2768  0.1720
27748W        W44595   0.982  14.437   2.273  0.0080  0.0417  0.1190
27749W        W44596  12.442   7.590   5.114 -0.2719 -0.0811 -0.1158
27750W        W44597  12.363   5.038   2.638 -0.0998  0.1427 -0.0867
27751W        W44598  16.718  14.112  13.492  0.0756 -0.0691 -0.1416
27752W        W44599  10.043   5.040  12.059  0.2815  0.4002  0.1748
27753W        W44600  11.952  14.394   5.571 -0.1222 -0.2904 -0.1980
27754W        W44601   9.024   2.230  13.972 -0.0768 -0.1219 -0.1658
27755W        W44602   6.474   7.028   4.201  0.0022  0.0052  0.1281
27756W        W44603   9.767   6.658  16.517  0.2549  0.1872  0.1738
27757W        W44604   2.215   5.095  13.964 -0.1112  0.1139 -0.2184
27758W        W44605   3.527  10.272  12.821  0.1544  0.2749  0.0620
27759W        W44606   4.553   4.705   4.662  0.1671  0.0514  0.0109
27760W        W44607   7.514  12.294   1.382 -0.0291  0.0035 -0.1017
27761W        W44608   2.082  15.999   1.118  0.1620 -0.0234 -0.2509
27762W        W44609  14.859   6.267  12.986 -0.3304  0.2623 -0.2313
27763W        W44610  16.064   9.616   2.503  0.2700 -0.1487 -0.0632
27764W        W44611   3.966   4.588   3.901 -0.0816  0.3172  0.0971
27765W        W44612  10.474   4.315  12.950  0.1820  0.2207 -0.1358
27766W        W44613  16.518   6.933   2.889 -0.0083 -0.3414 -0.2040
27767W        W44614   6.848   0.441   0.601 -0.0744  0.0010  0.3511
27768W        W44615   7.343   4.350   5.076 -0.5670 -0.0493  0.0948
27769W        W44616   7.928   5.917   2.967  0.0818 -0.1596  0.0856
27770W        W44617  13.735   8.757  13.512  0.1862 -0.1116  0.0379
27771W        W44618  16.286   0.804  12.911  0.2623  0.0145  0.0769
27772W        W44619  17.234   6.497   2.918  0.0870  0.0303 -0.0563
27773W        W44620   5.654   6.304  13.616  0.0845 -0.2315  0.3407
27774W        W44621  15.545  12.515  12.338  0.0715  0.1071  0.0688
27775W        W44622   0.201   6.012   5.478  0.2148 -0.0364  0.1928
27776W        W44623   3.706   2.811  12.842 -0.1296 -0.0728 -0.0364
27777W        W44624   1.671  12.408   3.076  0.1335 -0.1808  0.0318
27778W        W44625   4.310   7.459  16.026 -0.1519 -0.0535  0.0044
27779W        W44626   9.128  16.651   3.792  0.2582  0.1079  0.2548
27780W        W44627  16.826  15.312   4.537  0.0264 -0.2606 -0.1367
27781W        W44628  15.942   2.138   5.649 -0.0900  0.1875  0.2135
27782W        W44629  10.739   7.164   3.863 -0.0350 -0.0419  0.1574
27783W        W44630   0.806  11.912   3.492  0.0310 -0.0918  0.1671
27784W        W44631   9.423   6.278   2.030  0.1310  0.2842  0.2659
27785W        W44632   4.074   6.804  15.304 -0.0825  0.0481  0.2625
27786W        W44633   1.955  14.358  12.379  0.1772 -0.3107 -0.0520
27787W        W44634  14.773  17.770  15.752 -0.3081 -0.0384 -0.1558
27788W        W44635   5.793  17.060   3.088  0.0820 -0.2321  0.1908
27789W        W44636  13.928  11.604   5.336 -0.0192  0.1746  0.0455
27790W        W44637  11.375   1.357   0.413 -0.0653  0.1251 -0.1665
27791W        W44638  15.676   9.431   6.403 -0.2046  0.1381 -0.2561
27792W        W44639  14.531  13.358  15.140 -0.1127  0.2545 -0.0957
27793W        W44640   8.173   8.980   4.055 -0.2347  0.1317  0.0322
27794W        W44641   1.189   8.597  14.320 -0.0525 -0.3144  0.2183
27795W        W44642  11.866   4.621   2.589  0.0336 -0.0326  0.0092
27796W        W44643   1.881  16.254  12.086  0.0587 -0.0008  0.3008
27797W        W44644  13.714  16.279  15.406  0.7220  0.1481  0.0864
27798W        W44645   3.707   0.162  14.879  0.2324 -0.0188  0.0321
27799W        W44646  11.431  10.924  16.031  0.0926  0.0639  0.0822
27800W        W44647  10.875   3.895  11.646  0.2580  0.2291  0.1314
27801W        W44648  10.409   1.440   3.476  0.1300  0.0740  0.1703
27802W        W44649  11.247   4.799  14.129  0.3593  0.3579  0.0503
27803W        W44650   8.255   3.534   5.165  0.2085 -0.2625 -0.3503
27804W        W44651   6.792   2.986  16.587 -0.2370  0.0168  0.1022
27805W        W44652   4.556  17.276  11.991  0.1335 -0.1262 -0.0776
27806W        W44653   7.883   7.256   3.045  0.2315 -0.1805  0.1409
27807W        W44654  17.466   9.474   0.914  0.0324  0.0509  0.1897
27808W        W44655  17.275  17.064  13.791  0.1208  0.2325 -0.2292
27809W        W44656   2.115  13.136   4.017  0.2071 -0.3427  0.0873
27810W        W44657  14.948  17.150  16.707 -0.2642  0.0237  0.0286
27811W        W44658   3.798   5.757  12.356  0.1412 -0.3878 -0.0243
27812W        W44659  11.677  14.285  14.249  0.0216  0.2510 -0.0769
27813W        W44660  10.155   0.722   3.929  0.1474 -0.3810  0.1371
27814W        W44661   9.380   5.022  12.989  0.0174 -0.3655 -0.0209
27815W        W44662   6.348   0.781   2.594 -0.0702  0.0161 -0.0840
27816W        W44663   6.258   6.834   5.497 -0.0453 -0.0478 -0.1344
27817W        W44664   2.126   1.834  11.755  0.2689 -0.0529 -0.1189
27818W        W44665  12.560  15.250  12.092  0.1773  0.0397  0.1508
27819W        W44666   3.235   3.930  12.546 -0.1513  0.1634 -0.0407
27820W        W44667   6.648  12.569  10.754  0.2277  0.0582  0.1345
27821W        W44668   5.819   3.924   5.383  0.1025  0.1711 -0.1231
27822W        W44669  11.197  16.079   4.647  0.1265 -0.0503  0.0862
27823W        W44670   7.164  14.057  16.228 -0.0217 -0.0015 -0.0472
27824W        W44671   9.509  14.015  13.393 -0.1266 -0.1965  0.0322
27825W        W44672  14.738  15.293  11.877 -0.0692  0.0514 -0.0672
27826W        W44673   4.293   0.397   1.812 -0.0067  0.1543 -0.1728
27827W        W44674   4.461  13.227   3.340  0.2416  0.2442  0.1440
27828W        W44675   3.020   7.262  15.105 -0.0110  0.0191 -0.0914
27829W        W44676  14.155   5.711  16.597 -0.2325 -0.3632 -0.0609
27830W        W44677   8.145   9.340   0.032 -0.1982 -0.2644  0.2076
27831W        W44678  11.328   0.493   3.109  0.2442 -0.0181  0.1741
27832W        W44679  17.204   0.610   3.655 -0.1230  0.0018  0.1853
27833W        W44680   8.095  11.479   2.641 -0.0307 -0.1614 -0.0219
27834W        W44681   6.654   7.297   0.430 -0.0678 -0.1055  0.1626
27835W        W44682   0.826  13.048  15.681  0.1739  0.0199  0.0359
27836W        W44683  16.758  14.469  13.031 -0.0149 -0.1351 -0.1190
27837W        W44684   5.701   7.322  13.755  0.0414 -0.2988  0.2818
27838W        W44685  11.534  14.055   3.787 -0.3297  0.0862  0.0133
27839W        W44686  10.194  14.321   3.586 -0.1427 -0.2513  0.2850
27840W        W44687   5.010  13.734   1.672  0.2402  0.1703  0.2182
27841W        W44688   7.036  14.464   0.211 -0.1459  0.0812  0.2691
27842W        W44689   7.028  17.521   0.460  0.0539 -0.0503 -0.0131
27843W        W44690   8.478   0.296   1.863 -0.3109  0.0971 -0.3784
27844W        W44691  10.102  13.100   0.788  0.0884  0.1906  0.3495
27845W        W44692   5.222  16.033  12.034  0.4247  0.3025 -0.0061
27846W        W44693   3.915   2.884  14.426  0.4185  0.1639 -0.0538
27847W        W44694   8.663   3.027  15.922 -0.1739 -0.1436  0.2346
27848W        W44695   4.878  11.623   1.087  0.0679 -0.0431  0.1091
27849W        W44696  16.352   8.508  12.376  0.0717 -0.2459  0.1380
27850W        W44697  14.315   3.184   2.486  0.0524 -0.0560  0.2447
27851W        W44698  12.818  13.374  15.278 -0.1534 -0.2299  0.0863
27852W        W44699   0.494   8.617   5.649 -0.1278 -0.1221 -0.0071
27853W        W44700   1.189   5.697  12.145 -0.1712 -0.1856 -0.4174
27854W        W44701  11.971  12.729  14.213  0.0946 -0.0507  0.0707
27855W        W44702   6.393  15.654   5.352 -0.1743 -0.0947  0.0772
27856W        W44703   9.782  17.782  15.498 -0.0156 -0.1089  0.2090
27857W        W44704   5.778   3.887  13.884 -0.1359 -0.0474 -0.0443
27858W        W44705   3.296   1.412  15.342  0.1154 -0.1608 -0.2140
27859W        W44706   5.262   9.224  13.284 -0.1449 -0.0047  0.0605
27860W        W44707   1.540   7.042  11.840 -0.0319  0.1288  0.1085
27861W        W44708  11.646   1.075  16.316 -0.2305  0.0183  0.0776
27862W        W44709  10.757   9.668  13.481 -0.1206  0.1645 -0.0819
27863W        W44710  17.058   1.406  13.841 -0.1247 -0.0300  0.4551
27864W        W44711   6.625   5.692   3.667  0.3142  0.0832 -0.0395
27865W        W44712  13.866  15.657  16.264 -0.0184  0.0447 -0.0507
27866W        W44713  12.247  17.460  11.721  0.2993 -0.1461 -0.4552
27867W        W44714   2.338  15.416  13.772  0.2079 -0.0006 -0.0051
27868W        W44715  12.650   9.388  12.545 -0.1291 -0.1848 -0.1185
27869W        W44716   5.484   5.004   2.905  0.1046  0.3251 -0.0824
27870W        W44717  13.061   6.682   2.899  0.0163  0.2432  0.2008
27871W        W44718   4.907  12.759  15.668 -0.2896 -0.1827 -0.1794
27872W        W44719  11.541  14.418   5.274 -0.0280 -0.0761 -0.2391
27873W        W44720   6.131  16.080   3.187  0.0383 -0.0867  0.3241
27874W        W44721  12.274  11.420   0.641 -0.1409 -0.0946  0.3097
27875W        W44722  10.684  12.902  14.713 -0.1881 -0.0433 -0.0041
27876W        W44723  15.886   8.823  12.313  0.0501  0.1453  0.1012
27877W        W44724  12.496  17.220   5.367  0.0002  0.0417 -0.0501
27878W        W44725   8.133   7.042  13.301 -0.0961 -0.2518 -0.2443
27879W        W44726   7.921   9.699   3.717 -0.1880  0.1397 -0.3019
27880W        W44727  11.799  16.435  12.565  0.0582 -0.0667 -0.0852
27881W        W44728  13.223   3.733  16.157  0.1438 -0.1225  0.1230
27882W        W44729   7.108  13.099   3.135  0.1359 -0.0429 -0.1699
27883W        W44730  17.915  12.325   0.067  0.0525 -0.0835 -0.0538
27884W        W44731   6.125   3.033  13.201 -0.0886  0.0033 -0.0585
27885W        W44732   1.414   4.764  15.302 -0.0403  0.0781  0.2031
27886W        W44733  15.046   9.989   2.366  0.1061 -0.2383  0.2043
27887W        W44734   7.386  16.639   4.207  0.1334  0.1613  0.0329
27888W        W44735   7.995   7.324   2.521  0.1534 -0.1764 -0.0591
27889W        W44736   4.187  10.685   4.387  0.2746  0.3148  0.1299
27890W        W44737   3.210  14.782   1.527  0.1138  0.0408 -0.1134
27891W        W44738   2.960   5.020   2.522  0.0740  0.0823  0.0102
27892W        W44739  12.944   8.452  12.834  0.0440  0.0482  0.0529
27893W        W44740   0.155   7.112   1.323 -0.0474  0.2050 -0.2480
27894W        W44741   8.340  16.831   1.382  0.2370  0.0256 -0.1086
27895W        W44742   4.802   5.279   1.380  0.0775  0.3179 -0.0729
27896W        W44743   7.385  12.789  16.700  0.0103  0.1562 -0.1102
27897W        W44744   5.962  17.436   4.927 -0.1260 -0.0764 -0.2756
27898W        W44745   5.868  10.957   3.109 -0.4425  0.3685 -0.0610
27899W        W44746   9.048  12.307  14.344  0.1765 -0.0703 -0.3235
27900W        W44747   4.683  17.785  15.101 -0.0833  0.0733  0.1660
27901W        W44748  15.336  16.353  14.525 -0.1799 -0.1842  0.0174
27902W        W44749  11.426   6.267  12.863 -0.3125  0.2568 -0.0634
27903W        W44750   9.528   9.686   1.494  0.0900  0.0741  0.3752
27904W        W44751   2.775   6.618   2.704 -0.0406  0.1507  0.1090
27905W        W44752  13.579   7.652  13.604  0.0752  0.0881  0.1399
27906W        W44753   6.160   9.012  16.676 -0.1843  0.1113 -0.0737
27907W        W44754   8.083   2.567   5.169  0.0609  0.1521  0.2388
27908W        W44755  11.892   7.942   5.847 -0.1781 -0.0984 -0.1649
27909W        W44756  10.775   0.249  12.533 -0.1792  0.1951 -0.0355
27910W        W44757   9.824  17.763  11.135  0.0362  0.2506  0.1178
27911W        W44758   2.150   2.010   0.958  0.1807 -0.0223 -0.2488
27912W        W44759   3.622  10.837  11.886  0.2373 -0.1357  0.0418
27913W        W44760   0.463   2.336  11.816 -0.0535 -0.2263 -0.1045
27914W        W44761  13.110   6.283  12.299  0.0698  0.1918  0.2795
27915W        W44762   4.702   5.899   4.711  0.0978  0.0550  0.1982
27916W        W44763  15.937   8.327   5.057 -0.2548 -0.2224  0.3309
27917W        W44764  13.379  12.453  11.490 -0.2318 -0.2974  0.0224
27918W        W44765   6.942   2.361  15.795 -0.0741  0.0216  0.1128
27919W        W44766  10.273  16.501  12.731 -0.2535 -0.3009 -0.0353
27920W        W44767   9.703  13.984   2.434 -0.1303 -0.1051 -0.0116
27921W        W44768   3.429   5.420  14.754  0.3886 -0.0835 -0.2612
27922W        W44769   0.426  15.237  13.158 -0.2670 -0.1534 -0.1629
27923W        W44770  15.198  12.925  15.902 -0.0466 -0.0299  0.2349
27924W        W44771  15.562  15.979   3.724 -0.1821  0.2128  0.1188
27925W        W44772   5.238   8.665   5.409  0.0740 -0.2718  0.1996
27926W        W44773  12.490   5.396   4.863  0.0752 -0.0283  0.0227
27927W        W44774  16.183  17.333   2.345 -0.2382  0.3594 -0.0059
27928W        W44775  12.686   6.586   4.695 -0.4998 -0.1545 -0.0736
27929W        W44776   9.159  14.201  15.632  0.2670 -0.2196  0.0790
27930W        W44777   8.296  13.593  12.778  0.0893 -0.2611 -0.0351
27931W        W44778   5.771   1.249   3.710  0.0780  0.2174 -0.3718
27932W        W44779   5.843   3.661   1.273  0.1872 -0.0138  0.2360
27933W        W44780  14.687   5.232  16.271 -0.0400  0.1579 -0.1080
27934W        W44781   5.169  14.530  11.607 -0.2068  0.1618  0.1689
27935W        W44782  11.487   3.552   1.576 -0.4238 -0.0197  0.0814
27936W        W44783  13.368   0.675   1.310  0.1313 -0.2438  0.2824
27937W        W44784   6.618  12.016  14.783 -0.0862 -0.3007  0.5006
27938W        W44785   6.567   8.426  11.867  0.1171  0.0265  0.0329
27939W        W44786  15.019   5.629  15.278  0.2272 -0.0309  0.0520
27940W        W44787   7.415  16.545   1.182  0.2225 -0.2493 -0.1311
27941W        W44788   8.853   6.699   0.411  0.0005 -0.3686 -0.1368
27942W        W44789   2.144   0.080  15.187  0.0229 -0.3814 -0.1956
27943W        W44790  11.643   9.325   1.216 -0.1391  0.0179  0.0652
27944W        W44791  16.149   9.357  12.653  0.1625 -0.0054 -0.4953
27945W        W44792   5.749   1.163  13.791  0.1054  0.1080  0.1992
27946W        W44793   7.196   7.435   2.294  0.1355 -0.1471  0.0632
27947W        W44794  10.197  10.217  11.624 -0.3714 -0.0458  0.2558
27948W        W44795   6.346  10.220   1.294  0.0093  0.0514 -0.0727
27949W        W44796   6.538  11.901   5.098 -0.0140 -0.1088  0.0214
27950W        W44797   4.762   1.933  16.042 -0.1508  0.0771  0.2611
27951W        W44798  11.534   8.722  13.140  0.1401 -0.0301  0.1828
27952W        W44799   9.695   3.112  12.771 -0.0380 -0.2391  0.1004
27953W        W44800  14.704   1.898   2.668  0.2453 -0.0150  0.0187
27954W        W44801  16.178   1.063  15.432  0.0085 -0.2597  0.1905
27955W        W44802  17.231   9.451  12.209  0.2035 -0.0893 -0.0189
27956W        W44803  13.488   3.581   0.515  0.1972 -0.3247 -0.3588
27957W        W44804  10.622   3.087   3.794  0.3275  0.2130  0.3074
27958W        W44805  13.659   7.829   4.382 -0.1715  0.1191  0.0141
27959W        W44806  11.307   0.643  13.284 -0.1942  0.2744 -0.2160
27960W        W44807   6.563   1.681  11.186  0.0412  0.0170  0.0599
27961W        W44808  12.030   6.654   4.869  0.3444 -0.2433  0.0479
27962W        W44809   3.875   6.542  12.864  0.0753 -0.1012 -0.2286
27963W        W44810  10.924   6.422   4.392  0.0780  0.2055 -0.1271
27964W        W44811  17.930   7.547   2.162  0.0949 -0.3766  0.2715
27965W        W44812  12.157  12.419   1.975 -0.3369 -0.1355  0.1034
27966W        W44813   4.381   9.530  16.376 -0.0181  0.1715 -0.1311
27967W        W44814   2.497  13.347  14.725 -0.0332  0.1221  0.0614
27968W        W44815  13.651  11.524   3.797 -0.0684 -0.0132  0.0137
27969W        W44816   6.236   3.797  13.459 -0.0750  0.0743  0.0077
27970W        W44817   0.725   6.257   0.514  0.1001  0.0539 -0.0152
27971W        W44818  11.507  13.712  16.558 -0.2476 -0.2871 -0.2690
27972W        W44819   7.221  12.118  12.927 -0.3200 -0.1877  0.0977
27973W        W44820   8.054   2.930  14.013  0.0396 -0.0564  0.0477
27974W        W44821   5.023  14.476  15.881 -0.0460  0.2240  0.1184
27975W        W44822   2.459  15.199   0.812  0.0862 -0.0515  0.0668
27976W        W44823  13.582   0.519   6.567 -0.2195 -0.0011 -0.2216
27977W        W44824  12.321   3.711   1.128  0.0462  0.2475  0.1930
27978W        W44825  11.233   3.756   3.994  0.0362  0.2912  0.0183
27979W        W44826  14.734   1.414  15.832 -0.0825 -0.0283 -0.1231
27980W        W44827   8.452  14.060   4.380  0.2318  0.0176 -0.1075
27981W        W44828   6.227  13.733  16.482 -0.0857  0.4319 -0.0491
27982W        W44829  10.659  16.391  15.260 -0.1136 -0.0639 -0.2232
27983W        W44830  16.003   7.252   5.154  0.1273 -0.2271  0.2805
27984W        W44831   5.112   4.871  16.720  0.1334  0.0354 -0.1519
27985W        W44832   2.602  12.882   0.334  0.0597  0.0385 -0.2350
27986W        W44833   6.611  15.197   5.581 -0.2431 -0.1626 -0.3345
27987W        W44834   4.111  17.089  15.178 -0.0892 -0.0700 -0.0318
27988W        W44835  16.849  14.856   0.154  0.0179  0.1796  0.1848
27989W        W44836   2.020  11.244  13.765 -0.1060 -0.3747  0.1618
27990W        W44837   6.996   7.821   1.967 -0.0609 -0.0030  0.1417
27991W        W44838   1.707  11.794  14.523  0.0626  0.0919 -0.0655
27992W        W44839   0.126   7.404  14.193  0.1002 -0.0422 -0.1598
27993W        W44840  15.904  14.280  12.747 -0.4031  0.3455 -0.0866
27994W        W44841  10.318  15.461   4.971 -0.1855 -0.1948  0.0275
27995W        W44842   2.286  14.742  13.742  0.0535 -0.1517 -0.0442
27996W        W44843   2.725   6.229  13.154 -0.2339 -0.1768 -0.1605
27997W        W44844   8.854   0.548  14.729 -0.2780  0.0026  0.1642
27998W        W44845   9.996  12.033  10.721 -0.0654  0.2093 -0.1723
27999W        W44846  11.544   6.007  13.717 -0.0598 -0.0213  0.1457
28000W        W44847   6.942   7.857  13.400 -0.0331  0.3379 -0.0783
28001W        W44848   6.356   8.759   5.665  0.2207 -0.0924  0.0737
28002W        W44849  16.627  13.420   4.330  0.0433  0.3021 -0.0955
28003W        W44850   4.578   7.338   4.204 -0.1456 -0.0881  0.1803
28004W        W44851   3.860  14.733   5.984  0.3097  0.0789  0.1556
28005W        W44852   3.263  17.285   1.586  0.0910  0.1570 -0.2547
28006W        W44853   7.856   3.657  16.046 -0.2487 -0.0028  0.3776
28007W        W44854  10.577   9.931   5.739 -0.0798  0.1967 -0.2689
28008W        W44855   8.930  13.943   1.979  0.1562  0.0883  0.1865
28009W        W44856  17.115   7.926  13.129  0.0847 -0.3347 -0.3166
28010W        W44857  13.062   1.904  15.382 -0.0739  0.0244  0.0484
28011W        W44858  10.788   8.564   3.325 -0.4713  0.2933 -0.2612
28012W        W44859  16.188   6.244  15.816  0.1841 -0.2800 -0.2636
28013W        W44860  12.360   4.565   2.889 -0.2396 -0.3296  0.2246
28014W        W44861  14.914   2.433   3.447  0.2281  0.1885  0.3207
28015W        W44862   9.613  17.191   4.671  0.2117 -0.1588 -0.0665
28016W        W44863   9.595   8.105  13.617 -0.0523 -0.0005  0.0166
28017W        W44864   9.841  15.558  14.883 -0.0426 -0.2437  0.0535
28018W        W44865   1.886   5.089   6.050 -0.0212 -0.0204  0.1381
28019W        W44866   7.669  14.254   0.028 -0.2420  0.2390  0.0354
28020W        W44867   2.298  17.343  13.111  0.5073  0.2681  0.0743
28021W        W44868   1.585   9.176   0.887  0.1092  0.0992  0.2316
28022W        W44869  14.337  10.923   3.556 -0.1193 -0.0413  0.5106
28023W        W44870  15.014   4.579  14.108 -0.1882 -0.2132  0.3741
28024W        W44871   6.929   7.046   1.332  0.1439  0.3390  0.0376
28025W        W44872   5.558  16.309  16.484  0.3263 -0.0706  0.0451
28026W        W44873   3.580   6.416   2.495  0.3258  0.0503  0.2330
28027W        W44874  10.856  13.447  13.186  0.0512  0.0251  0.0907
28028W        W44875   5.595  13.347   3.854 -0.1933  0.2715 -0.1896
28029W        W44876  17.584  17.930  15.810 -0.1036 -0.2717 -0.0540
28030W        W44877  12.492  13.963  11.790  0.0001 -0.0158 -0.1398
28031W        W44878   1.063   6.414  11.976 -0.2338  0.0628  0.0133
28032W        W44879   8.551   9.040   2.175  0.0485  0.0654  0.1908
28033W        W44880  16.951   1.679   1.179  0.1078 -0.1651 -0.0550
28034W        W44881   2.231   0.441   5.253 -0.0570  0.1357  0.1495
28035W        W44882   7.462  16.874  15.894  0.4094 -0.1412 -0.0914
28036W        W44883   7.431   3.187   4.607 -0.1159  0.1027 -0.1025
28037W        W44884  11.489   3.232  15.348  0.1052  0.1086 -0.0838
28038W        W44885  12.374   8.830  13.106 -0.1931  0.0996 -0.0633
28039W        W44886  14.737   0.373   6.125  0.2499 -0.0447 -0.0742
28040W        W44887   9.704  15.850   0.794  0.2506 -0.1346 -0.3294
28041W        W44888   4.497  15.118  14.105  0.1937 -0.1924  0.1935
28042W        W44889   7.619   3.530   1.957 -0.0196  0.1927  0.0991
28043W        W44890  14.760  14.062   0.354 -0.2053 -0.3715 -0.0275
28044W        W44891   4.779   0.643   3.062 -0.5181  0.1431  0.2006
28045W        W44892   1.552  16.007   1.031 -0.2175 -0.3361 -0.0397
28046W        W44893   8.901  12.572  12.350 -0.0339  0.1740 -0.0837
28047W        W44894  12.198   1.221   0.824  0.0543 -0.0492 -0.1265
28048W        W44895  14.147   1.556  14.736  0.2255 -0.0648  0.2077
28049W        W44896   8.395  10.322  14.986  0.1310 -0.2003 -0.0288
28050W        W44897  11.837  16.229  14.200 -0.3719  0.0006 -0.1802
28051W        W44898  16.647   2.295  14.092  0.0426 -0.0908 -0.0498
28052W        W44899  16.317   7.970  12.390 -0.1947 -0.0466  0.2221
28053W        W44900  10.210  12.611   1.667  0.1482 -0.0797  0.0593
28054W        W44901   8.411  16.086  15.695 -0.0091  0.0050 -0.0711
28055W        W44902   2.421  13.536  13.405  0.2781  0.2621  0.1336
28056W        W44903  11.605  15.528  16.321 -0.0786  0.1378 -0.3310
28057W        W44904   3.997   1.582   1.205  0.0320 -0.1311  0.0053
28058W        W44905  12.164   6.884  12.753 -0.1109 -0.0231 -0.0337
28059W        W44906  13.817   3.400   3.701 -0.0704  0.1351 -0.0926
28060W        W44907   9.652  15.841   4.174  0.0588  0.0412  0.0460
28061W        W44908  14.374   1.005  15.794  0.2375 -0.2506  0.3763
28062W        W44909   3.683  15.271  12.845  0.0833  0.0004  0.2621
28063W        W44910  11.744   8.531   1.549 -0.1359 -0.0099 -0.1422
28064W        W44911  17.307  10.907  13.865 -0.2656 -0.1032 -0.1899
28065W        W44912  17.359  16.943   5.547  0.0904  0.0780 -0.0585
28066W        W44913   3.738   7.717  14.576 -0.0310 -0.1016 -0.3088
28067W        W44914  11.239   4.305  11.503 -0.1307 -0.0967  0.0849
28068W        W44915   1.028  14.288  14.970 -0.1027 -0.1661  0.0546
28069W        W44916   1.057   3.651  12.914 -0.0495  0.5092 -0.0059
28070W        W44917  15.041   3.093   4.557  0.0520 -0.0283  0.0020
28071W        W44918  17.645   9.793   4.570 -0.2292 -0.1586 -0.1382
28072W        W44919  10.196  14.196  14.152  0.2176 -0.3400  0.0240
28073W        W44920   1.254  14.613   3.277  0.0838  0.1234  0.0707
28074W        W44921   5.417  16.710   3.066 -0.2222  0.0442 -0.2270
28075W        W44922  11.084   6.275   1.756  0.2202  0.1329 -0.1380
28076W        W44923   0.306   4.198   3.395 -0.0483 -0.2205 -0.0562
28077W        W44924  14.960  14.895  15.083 -0.2805  0.1537  0.1055
28078W        W44925   2.009   4.298   0.651 -0.0328 -0.0610 -0.0217
28079W        W44926   5.149  11.972  16.250 -0.0216 -0.1156  0.0407
28080W        W44927  12.430  14.175  14.736  0.2791 -0.2190 -0.0117
28081W        W44928   5.497  13.193  13.172  0.3260  0.1441  0.0511
28082W        W44929  15.737   1.497   0.608 -0.0044 -0.0543  0.0266
28083W        W44930   5.450  12.495   4.826 -0.1417  0.0710 -0.2962
28084W        W44931  11.215   9.458  14.198  0.2783  0.1192  0.3712
28085W        W44932   8.216   2.915   3.695 -0.0482  0.1884 -0.0324
28086W        W44933  16.690   2.584  14.973 -0.0526 -0.1515 -0.0829
28087W        W44934  15.834   2.146   1.345  0.0963  0.0789  0.2811
28088W        W44935  13.676  17.281  14.765  0.3477  0.5577  0.1752
28089W        W44936  10.616   8.879  14.671  0.2190  0.1705 -0.0312
28090W        W44937  16.398   8.644   1.122  0.0559 -0.2593  0.1827
28091W        W44938   8.425  10.479  14.517 -0.1434  0.0572  0.0075
28092W        W44939  12.172   1.510  11.601  0.0307  0.2108  0.1612
28093W        W44940  13.245   8.817  13.659  0.1837 -0.0910  0.0671
28094W        W44941   2.380  17.326   2.100 -0.1547 -0.0447 -0.1566
28095W        W44942  16.670   3.794   4.829  0.1057  0.0768  0.0362
28096W        W44943   0.715  10.466   3.944  0.2192  0.2508  0.2836
28097W        W44944  13.005   5.966  15.291 -0.1306  0.1407  0.2176
28098W        W44945   5.635  11.812  16.149  0.0562  0.1457 -0.1962
28099W        W44946  14.181  12.063   4.113 -0.2213  0.1235  0.3380
28100W        W44947   3.527   4.390   1.454  0.0479 -0.1027  0.0287
28101W        W44948   8.614   4.811   3.913 -0.0734 -0.6043 -0.0831
28102W        W44949  15.615  16.372  13.704  0.1621  0.2748 -0.2408
28103W        W44950   8.606  14.735   1.364 -0.1222  0.2867 -0.2299
28104W        W44951   5.028   7.213   3.142 -0.1882  0.0784 -0.1080
28105W        W44952  13.153  10.159  11.605 -0.0024 -0.0001  0.1368
28106W        W44953  13.159  16.189  13.595  0.1201 -0.2586  0.0592
28107W        W44954   0.763  11.761   4.002  0.0326 -0.0663  0.1371
28108W        W44955   3.454  17.804  15.715 -0.0472  0.1183 -0.1604
28109W        W44956  11.889   1.889  12.216 -0.1123  0.2588 -0.1915
28110W        W44957   1.921   8.169   2.275 -0.0576  0.1274  0.3080
28111W        W44958  14.073  16.317   0.166  0.1517  0.0398 -0.0587
28112W        W44959   7.867  11.898  13.107  0.1155  0.0756  0.0941
28113W        W44960  14.301   7.354   6.054  0.3816  0.1941 -0.2167
28114W        W44961  16.778   6.900   5.755 -0.0796  0.2253 -0.0650
28115W        W44962   1.207   5.163   1.898  0.0380  0.2728  0.2729
28116W        W44963  13.529  16.987  12.148 -0.0069  0.0230  0.1225
28117W        W44964  17.449   7.484  15.391  0.1125 -0.0240 -0.0526
28118W        W44965  12.062   7.957  16.523  0.0465  0.1496 -0.0389
28119W        W44966   0.307   8.734   3.382  0.2019 -0.0706 -0.0450
28120W        W44967   3.906   1.019   0.622 -0.1660 -0.0223 -0.0395
28121W        W44968  13.204   6.103   0.398  0.0710 -0.0975 -0.2501
28122W        W44969   3.154  11.073  12.346 -0.1864  0.1885  0.1324
28123W        W44970   2.964   9.304   2.318 -0.0158 -0.3443 -0.0744
28124W        W44971  12.497   2.373   1.391 -0.1939  0.1995  0.1886
28125W        W44972  12.222   8.391   0.581  0.0256  0.0975  0.2497
28126W        W44973  11.892  16.922   2.881 -0.1246  0.0680  0.2427
28127W        W44974   4.967   3.851   4.264 -0.2082  0.0018 -0.0042
28128W        W44975   5.039   2.686  13.133 -0.1203 -0.0395 -0.1551
28129W        W44976   9.501   5.534  16.398 -0.0660  0.0557 -0.2225
28130W        W44977   3.569   3.202  16.173 -0.1906 -0.2238 -0.2150
28131W        W44978  16.566  17.926   4.752  0.0054 -0.2197 -0.2297
28132W        W44979  16.587   1.002  15.188  0.1188  0.0122 -0.0353
28133W        W44980   9.005  11.712   0.488  0.1366  0.0673 -0.2697
28134W        W44981   2.925   1.238  16.615 -0.1751  0.0373  0.0352
28135W        W44982   6.457  17.680  16.343  0.2833  0.1002 -0.1095
28136W        W44983  10.865   1.630   1.847 -0.0340  0.1123  0.1685
28137W        W44984   0.018  13.683  16.365 -0.1704 -0.0584  0.2779
28138W        W44985  11.514   9.991  13.590  0.2060 -0.2966 -0.1743
28139W        W44986   9.785   8.792  16.098  0.0075 -0.0162 -0.3175
28140W        W44987   2.487   1.752   2.563 -0.0209  0.1933 -0.0479
28141W        W44988   4.179  15.434   0.885 -0.1638  0.0927 -0.1584
28142W        W44989  12.694  13.248  14.374  0.1088 -0.2173 -0.4359
28143W        W44990   2.727  10.566   3.212 -0.2250 -0.0252 -0.3120
28144W        W44991   4.959  11.140   1.222 -0.2360  0.1256 -0.0715
28145W        W44992  14.776  17.290  11.861  0.1650  0.0473  0.0436
28146W        W44993  14.342   5.962  14.621 -0.0534  0.0667 -0.0350
28147W        W44994   0.000   5.752  14.887 -0.0880 -0.1689  0.1747
28148W        W44995  10.432  17.498   0.022 -0.0969  0.0839  0.0176
28149W        W44996   3.340   3.729  15.279  0.0888  0.3339 -0.1846
28150W        W44997   3.213   9.340  15.088  0.2821  0.0729  0.0369
28151W        W44998  10.839   1.982  11.384  0.0391 -0.1471 -0.0978
28152W        W44999   1.364  13.802  15.094 -0.0595 -0.1629  0.1747
28153W        W45000   9.079   5.860   3.787  0.0894  0.1760  0.0645
28154W        W45001   2.529   7.149   1.041 -0.1193 -0.2038  0.1802
28155W        W45002   1.684  13.880  13.603 -0.1336  0.0139  0.0669
28156W        W45003   8.346   7.820  13.378 -0.0084 -0.1359  0.0250
28157W        W45004   1.832   2.431   0.756 -0.1908  0.0190  0.1246
28158W        W45005   2.767  16.962   0.362  0.0632  0.0382  0.1086
28159W        W45006   9.595  11.438   2.190 -0.0621  0.0181 -0.2243
28160W        W45007   5.595  15.476  13.054 -0.0612  0.2549 -0.2298
28161W        W45008  13.659   2.125  13.161  0.1526  0.0023 -0.1694
28162W        W45009   1.738  11.200   2.502 -0.0028 -0.2124 -0.0660
28163W        W45010   2.663  14.025  15.928  0.3247 -0.1115 -0.1290
28164W        W45011  10.969   7.380   3.063 -0.2974 -0.0230 -0.3228
28165W        W45012   3.543  11.510   4.498  0.0511  0.0672  0.1404
28166W        W45013  16.050   3.322   4.283  0.0075 -0.0860  0.0593
28167W        W45014   5.954   0.740  13.076  0.3035 -0.3887  0.1815
28168W        W45015   1.566   8.669   2.453 -0.0182  0.1319 -0.2013
28169W        W45016   5.448  12.006  13.725 -0.0682  0.0165  0.1500
28170W        W45017  11.090  14.216   1.363 -0.1887  0.0009  0.0679
28171W        W45018  13.006  15.761  15.485  0.3025 -0.0814  0.1507
28172W        W45019   3.819   7.307   2.428  0.6044  0.1168 -0.1549
28173W        W45020  14.284   4.557   4.762  0.1426  0.0753  0.0239
28174W        W45021  12.963   8.388  13.739  0.0162  0.0565  0.1998
28175W        W45022   9.550   9.045   2.516  0.1688  0.0283 -0.0316
28176W        W45023  13.264   5.361  13.357 -0.2417  0.2727  0.2377
28177W        W45024  15.668   5.119   0.383  0.0156  0.2880  0.0093
28178W        W45025  12.598   8.218  11.959  0.1023 -0.0580 -0.0027
28179W        W45026   1.401   1.668   1.724 -0.0589 -0.2035  0.0930
28180W        W45027  14.566   3.236  16.731 -0.0947  0.0052  0.0430
28181W        W45028  17.867  15.811   2.561 -0.0084  0.1459 -0.0113
28182W        W45029   0.701  15.109   4.423  0.0223 -0.0598 -0.6173
28183W        W45030   1.170   3.428  14.653 -0.0099  0.0868  0.0849
28184W        W45031  10.672  11.381  13.245 -0.1092 -0.0568  0.1348
28185W        W45032   5.627   6.538   1.505  0.1298 -0.2557  0.1414
28186W        W45033   3.877   1.704  11.161  0.3878 -0.0323  0.3598
28187W        W45034  10.527   7.623   3.089 -0.0587 -0.1183  0.0264
28188W        W45035  15.930   3.244   0.023 -0.3334 -0.0751 -0.0292
28189W        W45036  15.207  15.017  13.760  0.0626  0.2946 -0.4006
28190W        W45037  10.363  12.371   5.919  0.0861  0.3256 -0.1167
28191W        W45038  12.029  15.590   0.604  0.1291  0.1163  0.1268
28192W        W45039   2.078   0.323  12.826  0.1029  0.2007 -0.2475
28193W        W45040   1.439   4.493   0.065 -0.0691  0.0229  0.0823
28194W        W45041  16.836  11.080  14.809 -0.3100  0.3512  0.0725
28195W        W45042   6.658  14.195   0.443  0.1695 -0.2163  0.0601
28196W        W45043  17.881  12.827  14.854  0.2828 -0.0110 -0.0145
28197W        W45044  10.342  15.404  13.609 -0.0177 -0.2384 -0.2616
28198W        W45045   1.204   2.435   4.769 -0.4356 -0.0542  0.0521
28199W        W45046   6.131   8.733   5.202  0.1486  0.3056 -0.0046
28200W        W45047   8.209   6.772  15.342  0.0003 -0.3247  0.1148
28201W        W45048   1.227   7.444   0.162 -0.3514 -0.0284  0.0803
28202W        W45049   9.449   9.384   4.434  0.0834 -0.0018  0.2716
28203W        W45050   3.270   9.573  13.522  0.0917 -0.1068 -0.2153
28204W        W45051   7.702  10.414   3.345  0.2412 -0.2311 -0.0534
28205W        W45052   8.137  15.246  13.455  0.2474 -0.1307  0.1499
28206W        W45053  10.129   2.387  11.152 -0.1147  0.4259 -0.2122
28207W        W45054   2.393  14.762   3.596 -0.1891 -0.1016  0.1000
28208W        W45055   8.479  17.936  11.761  0.1423  0.1602  0.2748
28209W        W45056  10.767  11.003   4.495 -0.3133 -0.2881  0.1700
28210W        W45057   0.155  12.243   4.456  0.0855 -0.0814  0.3971
28211W        W45058   3.270  11.416   1.797  0.0433 -0.0029 -0.1110
28212W        W45059   1.852  16.338  14.772  0.1764 -0.1276  0.0308
28213W        W45060  15.304   8.571  16.477  0.2691  0.1796 -0.1530
28214W        W45061   1.742   7.332   3.714 -0.1548  0.1670 -0.0009
28215W        W45062   7.770   9.485  16.545  0.1374  0.0867  0.1022
28216W        W45063  16.830   0.776   4.955 -0.0390  0.0344 -0.3275
28217W        W45064   7.307  17.761  16.757  0.1115 -0.0128 -0.1999
28218W        W45065   3.222   8.045  13.609  0.1390  0.0744  0.1301
28219W        W45066   2.971  16.974   0.801 -0.2521  0.0189 -0.0685
28220W        W45067   7.064   0.289   1.092  0.0220 -0.2011  0.0146
28221W        W45068  11.714  15.664   2.090  0.0368  0.1587  0.2063
28222W        W45069   3.909   4.178   4.895  0.0084  0.1781 -0.0917
28223W        W45070   4.737  17.745  12.150 -0.0648  0.0125 -0.1004
28224W        W45071   8.265   1.972  12.384  0.1846 -0.1117 -0.0575
28225W        W45072   9.609   8.450  12.601 -0.0470 -0.0975  0.0988
28226W        W45073   9.292   3.216  13.038  0.2212 -0.0016 -0.0712
28227W        W45074  15.830   6.328   4.009  0.1478 -0.1457  0.0256
28228W        W45075  14.115  14.500  12.070  0.2560 -0.0801  0.2927
28229W        W45076   1.773  13.089   0.797 -0.4695  0.0143 -0.0559
28230W        W45077  11.192  11.723   4.192  0.0945  0.1543  0.2257
28231W        W45078   6.340   2.284   1.513  0.2744  0.3756 -0.0454
28232W        W45079  10.088   8.627  12.753 -0.1272 -0.1376  0.0287
28233W        W45080   4.791   1.671   2.754 -0.1300  0.2230 -0.0785
28234W        W45081  17.694   7.347   2.778  0.1509 -0.2590  0.1418
28235W        W45082   8.307   0.211  15.322  0.2629 -0.0584 -0.0877
28236W        W45083  16.421  16.604   2.987  0.2269  0.1746 -0.2671
28237W        W45084   0.358   8.558   4.575  0.1497  0.1699  0.0505
28238W        W45085  15.271   5.798  13.588  0.2989 -0.1873 -0.1997
28239W        W45086   0.803   8.588  14.016 -0.2547  0.1342 -0.1459
28240W        W45087  16.132   0.217   0.517  0.0185 -0.0643  0.2906
28241W        W45088   3.651   1.748   2.146 -0.0704 -0.2954  0.1467
28242W        W45089   0.778  16.350  15.038 -0.1690  0.1396 -0.0470
28243W        W45090  15.797   6.617  12.230 -0.0431 -0.1265  0.1342
28244W        W45091   1.470   1.677  15.064 -0.0596  0.0573  0.1388
28245W        W45092   6.511   0.653   3.849  0.1939 -0.4528  0.1611
28246W        W45093   4.691  10.169   0.150  0.2272  0.0855 -0.2488
28247W        W45094   3.250  15.095  14.151 -0.0020 -0.0582  0.1876
28248W        W45095   6.719  13.082   1.179  0.0679 -0.3367  0.0113
28249W        W45096   6.529   6.539   4.923  0.0453 -0.2024  0.1012
28250W        W45097   9.699  10.641  15.687 -0.2889 -0.2458  0.1110
28251W        W45098   4.604   3.539  11.881 -0.0607  0.0030  0.1343
28252W        W45099   9.679   3.585  12.082 -0.0406 -0.2675  0.3150
28253W        W45100   2.470   2.924   0.720 -0.1032 -0.0102 -0.1889
28254W        W45101  10.087  14.452   4.082  0.2873  0.0011 -0.0425
28255W        W45102   4.532   6.885  10.947  0.1049  0.1594 -0.0722
28256W        W45103   7.703   7.672  14.214 -0.1385  0.2223 -0.1642
28257W        W45104  17.056  17.572  13.325  0.4208 -0.4221  0.0967
28258W        W45105   9.027   2.795  13.183 -0.0918  0.0585 -0.1402
28259W        W45106  16.585  13.001  12.910  0.2088  0.0904  0.0738
28260W        W45107  13.485   2.744  14.071  0.1489  0.0178  0.2341
28261W        W45108  11.178  12.221   1.678  0.0780 -0.2534 -0.2082
28262W        W45109  10.929   2.605   5.680  0.0472 -0.1461  0.5064
28263W        W45110   8.671   5.685  13.227 -0.2126 -0.1477 -0.2089
28264W        W45111   0.946  10.435   5.437  0.1681  0.0515  0.2152
28265W        W45112  10.380   8.250  16.292 -0.1697  0.4093  0.0581
28266W        W45113   6.505   2.216   4.487  0.2902  0.0729 -0.1742
28267W        W45114  11.201   4.621   1.013  0.1501  0.1673 -0.1451
28268W        W45115  10.568   2.959  11.924  0.0132  0.3156 -0.2455
28269W        W45116  14.454   9.663   4.539 -0.1340  0.2302  0.1311
28270W        W45117  11.681   5.567  13.923 -0.1033 -0.2896  0.3687
28271W        W45118   4.974  12.184  15.580 -0.0023  0.2631  0.1539
28272W        W45119   6.734  13.866   2.190 -0.0670  0.0373  0.0229
28273W        W45120   0.231   8.258   1.752 -0.2525 -0.0267 -0.2081
28274W        W45121   5.036   5.585   3.375  0.1556 -0.1890  0.1021
28275W        W45122  11.452   6.520   4.729  0.1874 -0.0285  0.3152
28276W        W45123  16.370   6.570   1.550  0.2169 -0.1086 -0.1052
28277W        W45124  14.560  16.436  16.065 -0.3681  0.3161 -0.2812
28278W        W45125  17.406   4.358   2.480 -0.0547 -0.1222 -0.0602
28279W        W45126  16.649   1.458   2.427  0.1375 -0.1554 -0.0468
28280W        W45127  12.818   5.569  15.503  0.3457 -0.1206 -0.0371
28281W        W45128  13.181   3.936   5.535  0.0125  0.0857 -0.1392
28282W        W45129   1.699  16.904  12.114 -0.1252 -0.0014  0.0217
28283W        W45130  12.212   0.338  14.971 -0.0014  0.0965  0.1989
28284W        W45131   8.838  13.117   3.721  0.1267 -0.0018 -0.0158
28285W        W45132  17.157  10.544   4.182 -0.3088  0.0646 -0.3159
28286W        W45133   9.841  14.651  14.038 -0.0418 -0.4519 -0.1794
28287W        W45134   6.502   4.226  15.008 -0.1988  0.3295 -0.1386
28288W        W45135   6.795   0.410   1.993 -0.0641  0.0659  0.0032
28289W        W45136  11.701  15.658   4.686 -0.0594 -0.0263  0.0351
28290W        W45137   7.062   0.972   0.753  0.1784 -0.0204 -0.4626
28291W        W45138   7.024  14.238   1.997  0.2818 -0.2624  0.0846
28292W        W45139   5.062  17.781  14.723  0.1823 -0.1823  0.1229
28293W        W45140   9.929   5.196  16.603  0.4288  0.3765  0.1586
28294W        W45141  12.726   1.348  11.652  0.3572  0.2226  0.1759
28295W        W45142  17.394   9.263   1.892 -0.0922  0.2141  0.2155
28296W        W45143  12.681  12.433  13.883 -0.1152  0.1274  0.0119
28297W        W45144   1.990  14.894   4.933 -0.1314 -0.0174  0.0223
28298W        W45145  12.113  12.632  13.238 -0.0458  0.0988  0.0413
28299W        W45146   6.915   1.800   5.313  0.2301  0.1741 -0.4861
28300W        W45147   1.075   2.811   4.430 -0.0864  0.4616  0.0145
28301W        W45148  12.164  16.063  14.757 -0.0834 -0.1208  0.0922
28302W        W45149   9.513   1.345   5.573  0.0814 -0.1106 -0.3196
28303W        W45150   8.854   0.182  14.241  0.1281  0.0758 -0.1322
28304W        W45151  15.682   7.357  13.069  0.1930 -0.1767 -0.1356
28305W        W45152   5.486  14.606  12.453 -0.1290  0.1004  0.0590
28306W        W45153  11.316   4.001  12.835  0.4150  0.0643 -0.1032
28307W        W45154  17.796   7.230   1.753  0.1283 -0.1305  0.2171
28308W        W45155  10.545   9.072  13.315  0.0631  0.2281 -0.0866
28309W        W45156   1.412  16.416   0.683 -0.0236 -0.0980  0.1435
28310W        W45157   9.033   5.835   1.085  0.2758 -0.0317  0.2510
28311W        W45158   4.470   0.762   3.951  0.2174 -0.1637  0.3818
28312W        W45159   7.084   9.032   1.085  0.0768 -0.2058 -0.0290
28313W        W45160   2.729   7.003  13.994 -0.0940  0.0003 -0.0485
28314W        W45161   5.662  15.006  16.482  0.1854 -0.0707  0.1289
28315W        W45162  17.624  17.378   2.337  0.3635 -0.1393  0.1060
28316W        W45163  14.612   9.988   4.875 -0.1295  0.2438 -0.2714
28317W        W45164   1.580   9.640   1.067  0.1709  0.2495 -0.0481
28318W        W45165  15.966  11.000  16.606  0.0279  0.0216 -0.1429
28319W        W45166   1.690   1.726  13.202 -0.1581 -0.1413 -0.0130
28320W        W45167  16.430  13.991  11.986 -0.1500 -0.2251  0.3838
28321W        W45168  12.960  13.480  16.467 -0.1011 -0.1689  0.0361
28322W        W45169  15.197   9.719  16.450  0.0505 -0.0641 -0.0769
28323W        W45170   6.380   8.842   3.757  0.0328 -0.4102  0.3160
28324W        W45171  12.707   2.997  12.264 -0.1688  0.1774 -0.2117
28325W        W45172   0.416   6.126  12.408 -0.0813  0.0354  0.0377
28326W        W45173   2.005  11.472  16.044  0.0126  0.0884  0.1743
28327W        W45174   6.765   0.429  13.342 -0.2915 -0.3005 -0.0681
28328W        W45175  17.005  15.031   2.293  0.0769 -0.0042 -0.0063
28329W        W45176   8.238  16.519  16.072  0.2739  0.1491 -0.1648
28330W        W45177   9.325  12.354  15.488 -0.0631  0.1921 -0.0078
28331W        W45178  13.529   5.087  16.017  0.0036 -0.0217 -0.3784
28332W        W45179   2.860   9.509  16.505 -0.0856  0.0260 -0.2278
28333W        W45180   9.187  12.496   0.369 -0.1477 -0.0904 -0.1429
28334W        W45181  11.276   6.863  12.237  0.1241  0.0832 -0.0135
28335W        W45182   4.492  12.451  14.715  0.3011  0.1463  0.2304
28336W        W45183   7.804  11.928   0.333  0.0742  0.0304 -0.1314
28337W        W45184  13.198   0.399  11.965  0.1194 -0.1696 -0.0292
28338W        W45185   0.032   0.666  12.233  0.2313  0.1611 -0.0998
28339W        W45186   3.988   4.428   3.051 -0.2310  0.0203 -0.0095
28340W        W45187   2.373  16.601  13.900 -0.0272 -0.4654 -0.0370
28341W        W45188   1.108   1.012  16.255  0.2265 -0.2118 -0.0857
28342W        W45189  17.590   9.220   3.632  0.0350 -0.1799  0.1831
28343W        W45190   6.721   2.477   1.846 -0.1321  0.0604 -0.1190
28344W        W45191   2.842   9.381   3.973  0.1480  0.0853  0.0020
28345W        W45192   5.246   4.506  14.906 -0.3066 -0.1036  0.1333
28346W        W45193  17.673   0.856  15.973  0.0290 -0.0674 -0.1191
28347W        W45194  16.459   6.447   2.091  0.1516 -0.0200 -0.0467
28348W        W45195   6.109   7.735   2.344  0.1612  0.2308  0.1486
28349W        W45196   4.786  17.691  14.300 -0.1060  0.3018 -0.2414
28350W        W45197   6.481   3.248   6.176 -0.0977 -0.3768 -0.4311
28351W        W45198  10.995  17.596   3.595 -0.0058  0.2774  0.0407
28352W        W45199  17.906   5.860   2.940 -0.1367  0.1524 -0.1225
28353W        W45200   2.386   1.147  14.417  0.0878 -0.2090  0.3778
28354W        W45201  11.249  13.395  13.546  0.1607  0.0417  0.1599
28355W        W45202  10.052   3.660   4.487 -0.4503  0.1428 -0.0613
28356W        W45203  13.491   7.087  13.514  0.0081  0.0508  0.2698
28357W        W45204  12.442  15.236  13.030 -0.3324  0.4348  0.0971
28358W        W45205   3.080  16.192  14.047  0.0322 -0.2371  0.2676
28359W        W45206   5.116  13.274   1.545 -0.2444 -0.0845 -0.0851
28360W        W45207   8.626  11.998   6.045 -0.0944 -0.0898  0.4433
28361W        W45208  11.679   1.671  11.791  0.1315  0.0426  0.2514
28362W        W45209   4.188  16.366  11.449  0.2047 -0.1178 -0.1043
28363W        W45210   7.586   0.683   4.948 -0.1243 -0.0243  0.2000
28364W        W45211   3.262  17.867   2.071  0.1961  0.0684  0.0572
28365W        W45212   8.733   9.501  15.585 -0.0688  0.2741  0.1166
28366W        W45213   0.137   9.159  16.553  0.1135  0.0548 -0.0442
28367W        W45214  14.972   9.113   1.137  0.1773 -0.2251  0.0277
28368W        W45215   9.359   3.752  11.734  0.0760 -0.1344 -0.4796
28369W        W45216   9.575  13.474   5.346 -0.1124  0.3216  0.3423
28370W        W45217  11.795   2.268   1.917  0.1720  0.1769  0.0816
28371W        W45218  16.555   5.668   2.915 -0.1814  0.0916 -0.1696
28372W        W45219  11.361   8.133   5.550  0.0534  0.0527 -0.0888
28373W        W45220   9.184   8.683  14.049 -0.0372  0.1896 -0.2399
28374W        W45221   9.989  12.154  11.221  0.1319 -0.0675  0.1661
28375W        W45222  17.900   3.985  16.461 -0.1240  0.2289 -0.0530
28376W        W45223  16.772   6.868   1.694 -0.1449 -0.0984 -0.1560
28377W        W45224  10.228  11.620  14.925  0.3811  0.0188 -0.0317
28378W        W45225   2.225   3.097  12.407 -0.2002 -0.3386  0.4009
28379W        W45226  17.139   1.494   3.908 -0.0449 -0.0690  0.1193
28380W        W45227   9.521  15.825  14.069 -0.0393 -0.3423  0.0293
28381W        W45228   6.240   5.177   5.056  0.0191 -0.0360  0.4526
28382W        W45229   8.980  13.952  16.530 -0.3450  0.2304  0.0767
28383W        W45230  14.225   1.809  16.444  0.0261  0.2812 -0.0366
28384W        W45231   0.810  15.668   1.602  0.3216  0.0089 -0.0193
28385W        W45232   7.110   5.414   5.052  0.0984 -0.1480 -0.1730
28386W        W45233   7.815   5.237   2.369 -0.1161 -0.2470  0.0419
28387W        W45234   3.294  16.755   5.467 -0.4326 -0.1394  0.1561
28388W        W45235  14.544  17.612   1.691 -0.1662  0.0249  0.3625
28389W        W45236   4.485  11.383  15.581  0.0790  0.2342  0.0550
28390W        W45237  10.540   4.981   4.061 -0.1590  0.0833 -0.0917
28391W        W45238  17.173   0.980  15.124 -0.0104 -0.2293 -0.0029
28392W        W45239   5.679  14.941  14.657  0.1888  0.0030  0.0209
28393W        W45240   7.434  12.413   1.931  0.2049  0.0216 -0.0219
28394W        W45241   0.837  13.367   4.538 -0.3156  0.1964 -0.1505
28395W        W45242  12.022  12.329   1.075  0.2760 -0.1552 -0.2300
28396W        W45243  10.432   4.310   5.103  0.1860 -0.1989 -0.0697
28397W        W45244   9.279   3.593   3.709  0.0930 -0.2066 -0.1502
28398W        W45245  13.559   2.752   6.172 -0.2467 -0.0308 -0.3417
28399W        W45246  12.374  15.954   0.924 -0.0069 -0.3844 -0.2187
28400W        W45247  13.953   4.813  12.642  0.1939  0.0028 -0.1004
28401W        W45248   0.744   7.289  11.650 -0.0678 -0.0237 -0.1591
28402W        W45249   9.554  17.379  15.072  0.4334 -0.2519  0.1231
28403W        W45250   6.639   6.408  14.303 -0.3744  0.2256  0.0317
28404W        W45251  13.323  16.186  16.091  0.0544 -0.3130  0.0131
28405W        W45252   6.289   7.615   1.124 -0.1335 -0.0265 -0.0420
28406W        W45253   4.199  16.027   4.708 -0.2856  0.3412  0.2489
28407W        W45254   6.526  13.783  12.481 -0.0149  0.2289  0.1994
28408W        W45255   9.385  12.076   1.209 -0.0954  0.1828 -0.2123
28409W        W45256   3.933   3.047   5.451 -0.2075 -0.1340  0.1436
28410W        W45257   1.666   3.707   1.997  0.1071  0.2892  0.0761
28411W        W45258   2.429   2.437  12.695 -0.0477 -0.3907 -0.0361
28412W        W45259   8.400   6.129  12.894  0.0309  0.0571 -0.1479
28413W        W45260  12.086   0.420  13.058  0.2024  0.0198  0.1029
28414W        W45261  15.655  14.004  11.782 -0.1932 -0.2421 -0.2271
28415W        W45262   7.639   7.968   4.611 -0.0318  0.0269 -0.1656
28416W        W45263   4.000   5.699   3.090  0.1066 -0.1446 -0.1291
28417W        W45264   3.887  11.730   3.207  0.0694  0.0216 -0.2384
28418W        W45265  17.375  12.698   1.721 -0.2657 -0.2707 -0.0853
28419W        W45266   6.387  15.380  15.135 -0.1050 -0.1917  0.1686
28420W        W45267   8.187  14.365   1.486 -0.1373 -0.3190 -0.0016
28421W        W45268   0.659  16.753   0.731 -0.0634  0.1608  0.0590
28422W        W45269  11.601  11.909  11.489  0.2722 -0.1217  0.1736
28423W        W45270  16.535   8.468   5.819 -0.0490 -0.0338 -0.0603
28424W        W45271   7.671   8.937  12.860 -0.0416  0.1112  0.1367
28425W        W45272  16.142  12.917  13.046 -0.1423 -0.4543 -0.0291
28426W        W45273   9.697   9.926  12.888 -0.2828  0.0321 -0.1028
28427W        W45274   4.243   9.498  15.180  0.0921  0.3293 -0.2518
28428W        W45275  16.880  17.683   0.249 -0.1988  0.1796 -0.1509
28429W        W45276   9.952  14.370   4.538 -0.1065 -0.0589  0.0452
28430W        W45277  15.584  13.756  12.960 -0.0593  0.0431  0.0365
28431W        W45278   6.595  14.294  12.259  0.3168 -0.1487  0.1691
28432W        W45279  12.433   1.043  14.489 -0.0764 -0.0077 -0.1450
28433W        W45280  17.172   1.973   1.972 -0.1621  0.3528  0.5503
28434W        W45281  10.273  16.528  13.463  0.1072 -0.1401 -0.1980
28435W        W45282  14.900  13.281   5.851 -0.0610 -0.1071  0.0770
28436W        W45283   3.321  12.584   5.335 -0.0969  0.2182  0.0804
28437W        W45284  12.877   3.848  16.555  0.1333 -0.0567 -0.0165
28438W        W45285   3.959   4.152  13.296  0.3907  0.1041 -0.0206
28439W        W45286  14.371   5.712   1.050  0.1937  0.1480 -0.0032
28440W        W45287   4.116  16.857  12.734  0.3136  0.2003 -0.0875
28441W        W45288   1.532  11.369  11.478 -0.1372  0.0658 -0.1824
28442W        W45289  13.160  17.455  13.071 -0.0201  0.4164  0.2382
28443W        W45290   7.721  16.569  13.828 -0.0436  0.2143 -0.0129
28444W        W45291   2.429  16.254   5.306  0.1095 -0.1493 -0.2508
28445W        W45292   0.321   0.426   0.833 -0.0037 -0.0964 -0.0804
28446W        W45293  17.745  15.545   5.376  0.0124 -0.0067  0.0776
28447W        W45294   2.296   9.426   0.255  0.0640 -0.3206 -0.1540
28448W        W45295   2.108   9.556   4.990 -0.1727  0.0632 -0.1680
28449W        W45296   3.413  12.763  16.063  0.0942  0.1644  0.1967
28450W        W45297  11.659   9.130   4.636  0.0327  0.0420 -0.0293
28451W        W45298   2.857   1.833  13.319 -0.0045  0.1017  0.2542
28452W        W45299  12.782  16.459   4.601 -0.2653 -0.1786 -0.1457
28453W        W45300   1.394  14.572   0.432 -0.2186  0.1870  0.1309
28454W        W45301  13.256   6.353  13.819 -0.0910  0.2110  0.1547
28455W        W45302  13.561  13.252   2.957 -0.2513  0.2086 -0.5149
28456W        W45303  14.418  11.780  11.970 -0.0997  0.1484 -0.1475
28457W        W45304   6.408   8.669   1.757 -0.0305 -0.2735 -0.2160
28458W        W45305  14.815   3.605   1.154 -0.3014 -0.0937  0.1947
28459W        W45306  17.121  10.554  14.145 -0.1145  0.0080 -0.1810
28460W        W45307   9.010  14.213  12.417 -0.2505 -0.2605  0.5200
28461W        W45308  14.677   4.466  16.224  0.1944  0.1458 -0.2254
28462W        W45309  14.301   4.907  16.137 -0.0563  0.1740  0.5241
28463W        W45310  11.266   7.786   4.230  0.0200  0.0372  0.2364
28464W        W45311  13.600   2.660   4.924 -0.1385 -0.0404 -0.1424
28465W        W45312  12.966   5.181  12.960  0.0703  0.1489 -0.1190
28466W        W45313  17.834  10.960   0.523  0.1934  0.2089 -0.1480
28467W        W45314   4.913  10.253   3.431  0.0098  0.3564  0.0827
28468W        W45315  11.758   8.065   5.005  0.1914  0.3056 -0.1476
28469W        W45316  14.271   7.758  14.843 -0.2051  0.3493 -0.1977
28470W        W45317  10.992   5.152  11.742  0.1698  0.0610  0.3239
28471W        W45318  13.278   7.443   3.924 -0.3258 -0.2474 -0.1057
28472W        W45319  15.882   0.501  12.320 -0.1318  0.0206  0.1231
28473W        W45320   0.370  13.756   2.188 -0.2310 -0.0391 -0.0557
28474W        W45321   2.091  11.769  15.663  0.0803  0.1314  0.1831
28475W        W45322   4.266   8.451   2.087  0.0707 -0.0612 -0.2724
28476W        W45323  13.292  10.701  12.501 -0.0811  0.0521 -0.1212
28477W        W45324  14.942   7.480  14.942  0.2312  0.0434  0.1619
28478W        W45325   2.111  11.874  14.841 -0.0260  0.3129 -0.2266
28479W        W45326   3.110   4.646  12.956  0.1708 -0.0181 -0.0966
28480W        W45327  14.037  15.088  16.119  0.0106 -0.2655 -0.3018
28481W        W45328  14.635   8.349   2.399 -0.1904 -0.3760  0.0484
28482W        W45329  12.209   8.297   1.929  0.0514 -0.2201  0.0601
28483W        W45330  17.488   9.929  11.363  0.0340 -0.0283 -0.0465
28484W        W45331   4.579  16.356  16.034 -0.2084 -0.1734 -0.0449
28485W        W45332  15.733   1.567   4.454  0.0742  0.1341 -0.1217
28486W        W45333  11.838   9.611  13.400 -0.0722 -0.3114  0.0483
28487W        W45334   7.504   8.184   1.081  0.3353 -0.0718 -0.0844
28488W        W45335   3.289  15.704   3.219  0.1059 -0.0438 -0.1089
28489W        W45336   2.988   3.155  12.931 -0.0442 -0.0491 -0.5942
28490W        W45337   8.979   0.502   3.649 -0.1367 -0.0562  0.1717
28491W        W45338  11.437  12.861   3.617 -0.1588  0.1774 -0.0832
28492W        W45339  17.780  12.507  14.466 -0.0428 -0.0336  0.0488
28493W        W45340  16.753   0.752  12.021  0.1184  0.0201 -0.0634
28494W        W45341   9.811   1.537   4.154 -0.0662  0.0698  0.0480
28495W        W45342   3.351   8.045   4.051  0.0338  0.1374 -0.1347
28496W        W45343  16.952   4.014  16.218  0.0007  0.1227  0.0215
28497W        W45344  16.201  11.707  13.317  0.1266 -0.1214  0.0485
28498W        W45345  16.533   1.528  14.557  0.0338 -0.1969 -0.1969
28499W        W45346  17.881   9.961  13.346  0.0414 -0.0128  0.1877
28500W        W45347  11.298   9.400  15.757 -0.1676 -0.0964 -0.0023
28501W        W45348  15.391  17.790   2.075 -0.1883  0.1304  0.2354
28502W        W45349  15.713  12.435  15.262 -0.3131  0.0493 -0.0087
28503W        W45350  11.142   0.879   0.675 -0.0068 -0.2452 -0.1672
28504W        W45351  11.697   6.047   4.114 -0.2222  0.2122  0.0951
28505W        W45352  17.001   0.981   3.991  0.0592 -0.0675 -0.1671
28506W        W45353  11.422  17.718   2.742 -0.0373  0.1553 -0.0736
28507W        W45354  10.919   6.767   1.967 -0.0194 -0.1053  0.0975
28508W        W45355  14.624  10.895   4.555 -0.2559  0.0270 -0.0347
28509W        W45356  14.774  15.162  15.490 -0.1832  0.0524 -0.2221
28510W        W45357   0.086   8.677   0.067  0.2682 -0.2515  0.0004
28511W        W45358  12.835   4.936   1.298 -0.3341 -0.1679 -0.2211
28512W        W45359   2.579  17.445  14.409 -0.0656  0.0398  0.3620
28513W        W45360   6.249  14.124   3.390  0.1673 -0.0210 -0.0225
28514W        W45361   7.128  16.685  14.328  0.2161 -0.1017 -0.2922
28515W        W45362   4.947  17.024  16.421 -0.1479  0.0247 -0.1141
28516W        W45363  12.642   8.834   3.807 -0.1368  0.2361  0.2239
28517W        W45364  13.797  10.245  13.986  0.1410  0.0407  0.1211
28518W        W45365   8.176  11.405  16.466 -0.0757 -0.2239 -0.0306
28519W        W45366  16.597   4.309  14.120  0.5824 -0.1798  0.0226
28520W        W45367   6.089   1.055  13.437 -0.0679  0.0425 -0.6700
28521W        W45368   7.110   0.875  11.271 -0.2050 -0.0304 -0.3755
28522W        W45369  11.251   2.292  12.850  0.0045  0.0401 -0.0943
28523W        W45370   5.468   4.459  13.058  0.1464  0.1695  0.0160
28524W        W45371  11.906  16.050   0.550  0.1262 -0.0248 -0.0496
28525W        W45372   5.901   4.805  11.706 -0.0123 -0.0922  0.2928
28526W        W45373  12.281   0.754   2.985 -0.4336  0.4622 -0.0766
28527W        W45374  10.499   5.411   5.716  0.0758 -0.2244  0.1767
28528W        W45375  14.701  17.551  12.371 -0.1212 -0.3652 -0.1638
28529W        W45376  13.500   2.492  13.616  0.1630 -0.1031  0.0944
28530W        W45377  11.317   7.256   5.434 -0.0539  0.0801  0.0072
28531W        W45378   7.073  16.529  11.080 -0.2993 -0.5451 -0.0540
28532W        W45379  12.033  15.316  13.919 -0.1194 -0.1705  0.1750
28533W        W45380   2.305  13.469  12.149 -0.1040  0.0887  0.1048
28534W        W45381  11.978   4.097  11.498 -0.0383  0.2279 -0.2872
28535W        W45382  12.840  13.273   1.188 -0.2967 -0.2131 -0.1387
28536W        W45383   4.940  10.754   0.419  0.1681  0.1239 -0.3340
28537W        W45384   1.677  17.231   3.626  0.3605  0.1349 -0.1153
28538W        W45385   8.195   3.873   0.064 -0.0956 -0.1073 -0.0583
28539W        W45386  13.550   2.640   0.799 -0.0502 -0.2165 -0.2936
28540W        W45387   4.907  17.319   3.435 -0.1227 -0.0155 -0.0197
28541W        W45388  17.209  11.496   2.259 -0.3010  0.0804  0.0674
28542W        W45389  15.314  11.993  14.358 -0.3874  0.1819  0.0600
28543W        W45390  11.580   2.865  15.030 -0.0064 -0.2550  0.2645
28544W        W45391  11.633  17.308   2.451 -0.1145  0.0115  0.0894
28545W        W45392   9.362  11.426   6.028  0.1398 -0.0513 -0.0336
28546W        W45393  14.692   2.677  13.832 -0.1093  0.2790  0.2000
28547W        W45394  17.882  12.260  15.884 -0.1171  0.0364 -0.2592
28548W        W45395  14.305   8.428   0.351  0.2448 -0.1067 -0.0861
28549W        W45396  14.180  14.628   4.788  0.1110  0.3319  0.1688
28550W        W45397   9.511  14.360   5.157 -0.0607  0.1805  0.0465
28551W        W45398  15.547   1.296   1.134  0.2209  0.0741  0.1308
28552W        W45399  16.713   7.581   5.789  0.0357  0.1181 -0.0552
28553W        W45400   1.039   5.052   0.956 -0.1784  0.1103  0.3546
28554W        W45401  16.590  12.905   4.823 -0.2845  0.0316 -0.1776
28555W        W45402  12.714   3.478  16.065 -0.1950 -0.1016  0.0200
28556W        W45403  12.591  13.799  15.038 -0.0668  0.0013  0.1032
28557W        W45404   7.652   4.864  16.620  0.0049 -0.0516 -0.0505
28558W        W45405  12.248  16.266  16.232  0.1556  0.1963 -0.0483
28559W        W45406   9.902  12.026   3.187 -0.0432  0.0693  0.0398
28560W        W45407  12.044   0.975  15.360  0.2815 -0.0605 -0.0276
28561W        W45408   1.005  13.807   0.785 -0.1771  0.4134  0.1309
28562W        W45409  16.007  14.844  13.056  0.0732 -0.1312  0.0965
28563W        W45410   6.241   3.666   3.453 -0.2103  0.1011 -0.2279
28564W        W45411   5.344  13.969   4.160 -0.0386  0.1142  0.2523
28565W        W45412  13.371   7.305   5.049  0.0964  0.0352  0.2652
28566W        W45413   8.243  16.195   1.793  0.0252  0.3507  0.0264
28567W        W45414   9.044   5.036   3.663  0.1850  0.1322  0.1382
28568W        W45415  10.517   1.585   3.967  0.0187  0.3969 -0.1579
28569W        W45416   8.955  17.138  16.335 -0.2903  0.0622  0.1720
28570W        W45417   4.962   0.973   4.976 -0.1725  0.0997  0.2020
28571W        W45418  16.601   6.037   3.350 -0.0044 -0.2900  0.1402
28572W        W45419   3.280   6.755   0.021 -0.1143  0.0673 -0.0410
28573W        W45420  13.154  15.683  12.816 -0.1176  0.0856  0.1693
28574W        W45421   5.040   6.657   3.630  0.0490  0.0605  0.2974
28575W        W45422   5.268   4.664  12.611  0.1994  0.4955  0.1399
28576W        W45423   4.148   2.315   5.363 -0.0980  0.1332  0.2186
28577W        W45424  10.318   6.019   5.144  0.0802 -0.1217  0.2326
28578W        W45425  17.287  13.485   5.211 -0.0925 -0.0396 -0.2102
28579W        W45426  12.388   2.514  16.180  0.2397 -0.0724  0.2158
28580W        W45427  10.354   8.238   1.698  0.1036  0.0937 -0.4259
28581W        W45428   0.169   0.466   5.140  0.0192 -0.0621  0.2155
28582W        W45429   5.618   0.593  14.314  0.0618 -0.4068  0.1534
28583W        W45430  13.544   4.522   0.678 -0.0531  0.1418 -0.0215
28584W        W45431  10.256   6.394   4.396  0.0873  0.1913  0.0684
28585W        W45432   7.267  14.555   2.725  0.1548 -0.3282 -0.0120
28586W        W45433   8.111   2.895   2.482  0.2435  0.2038 -0.1342
28587W        W45434  13.327  15.662   0.809 -0.0306  0.0546  0.1593
28588W        W45435  10.661  14.690   0.288  0.0468 -0.2644 -0.1615
28589W        W45436   6.655  16.003   3.229 -0.2486  0.1359  0.0155
28590W        W45437  12.543  14.055  14.235 -0.1026 -0.2022  0.0300
28591W        W45438  11.117   5.743  13.509 -0.0324 -0.1529 -0.0936
28592W        W45439  11.279   6.205  13.367 -0.1100  0.1596  0.3132
28593W        W45440   1.086   3.253  16.236  0.1739  0.0004  0.0165
28594W        W45441   3.884  14.736  13.402 -0.0023 -0.0621  0.1872
28595W        W45442   7.391   2.884   3.749  0.1634 -0.0040  0.0924
28596W        W45443   5.192  16.128  12.501 -0.0598  0.0359  0.1682
28597W        W45444   0.199   4.830  12.131  0.1006 -0.0385  0.0805
28598W        W45445   8.393  12.274   2.006  0.3667  0.0119 -0.1258
28599W        W45446   1.846  13.966  11.999 -0.0790 -0.0904 -0.0366
28600W        W45447  14.578   1.622  16.774  0.0674 -0.2553 -0.3131
28601W        W45448  16.147  17.592   1.388 -0.1269 -0.1347  0.0472
28602W        W45449  13.872   7.003   0.464  0.0087  0.2421 -0.2044
28603W        W45450   5.022  13.438  13.173  0.1785  0.0721 -0.0390
28604W        W45451  10.079  17.604   3.953 -0.3473 -0.0791  0.0329
28605W        W45452  14.803   4.238  14.430 -0.0009 -0.1280 -0.1016
28606W        W45453  10.878  12.787   1.863 -0.3310  0.2816 -0.2161
28607W        W45454  10.376  13.470  13.075 -0.1701 -0.1490  0.0598
28608W        W45455  16.427   0.572   0.755  0.3007  0.2358 -0.2792
28609W        W45456   5.152   1.350   0.264  0.1540 -0.1436  0.0538
28610W        W45457   7.613  14.256   5.131  0.0635 -0.1695 -0.0598
28611W        W45458   8.520  10.982  12.847 -0.0064 -0.1227 -0.0194
28612W        W45459   0.356   8.075   4.587 -0.5531 -0.1057  0.0939
28613W        W45460  15.372   3.838  13.902 -0.1139 -0.1504  0.0924
28614W        W45461   4.866  13.962   4.007 -0.1074  0.0193 -0.0267
28615W        W45462   2.495  16.897   4.220 -0.2263  0.1686  0.0295
28616W        W45463  14.655   9.672   2.298 -0.0154  0.2190  0.0638
28617W        W45464  13.449  15.889   2.115  0.2216 -0.3230  0.0702
28618W        W45465   3.868  11.111   4.386 -0.1233 -0.0719  0.1081
28619W        W45466   9.170  14.079  14.993  0.0589  0.0560  0.0436
28620W        W45467   6.554   3.607   3.038  0.0519  0.3301  0.2352
28621W        W45468   3.703  13.490  14.807 -0.0230  0.0930 -0.1341
28622W        W45469   2.830   3.192   5.679  0.1887  0.0016 -0.2670
28623W        W45470   6.732  15.148   4.077 -0.0813 -0.1761  0.1968
28624W        W45471  12.728   5.670   0.562  0.0455 -0.3107 -0.1601
28625W        W45472  16.210  15.065  12.646 -0.1657  0.0085 -0.0338
28626W        W45473   3.536   9.086  13.626  0.0098 -0.1308 -0.2169
28627W        W45474  17.757  12.364   0.987  0.1510  0.1253  0.2614
28628W        W45475  14.189   9.100  15.265  0.1304 -0.1470 -0.0285
28629W        W45476   2.716  16.732   5.432 -0.2712 -0.0947  0.1563
28630W        W45477   6.530   8.071   2.139  0.0433 -0.0774  0.2235
28631W        W45478  17.840  15.923   5.727  0.1557 -0.0256  0.1486
28632W        W45479   3.948   7.438  13.255 -0.2359 -0.3862 -0.0835
28633W        W45480  10.568  17.183  14.501 -0.0065 -0.1380 -0.1011
28634W        W45481  12.780   7.203  16.669 -0.0665 -0.0858  0.0104
28635W        W45482  13.008  17.655  14.355  0.1613  0.0365  0.0011
28636W        W45483   6.296  16.908   5.266 -0.2332 -0.2332  0.2948
28637W        W45484   2.884  16.306  16.443  0.1251 -0.0095 -0.1029
28638W        W45485   1.558  12.691  15.035 -0.0487 -0.0395  0.1314
28639W        W45486  16.331  16.761   3.422 -0.3579  0.0011 -0.5428
28640W        W45487  13.410  14.397  16.229  0.0044  0.0727 -0.2754
28641W        W45488   9.876   0.441   3.581  0.2406  0.0360 -0.1580
28642W        W45489  11.231   4.548  16.090  0.1960  0.0506  0.1300
28643W        W45490  16.528  10.630   3.147  0.0140 -0.0649  0.1787
28644W        W45491  10.103  11.632   0.289  0.0166  0.2688  0.2242
28645W        W45492  11.348   3.869  11.822 -0.1060 -0.1212  0.0785
28646W        W45493  15.004   0.323  11.943  0.0846  0.1308 -0.1764
28647W        W45494   2.841   7.712  11.525  0.0208  0.2936  0.1075
28648W        W45495  14.150   1.322   2.922 -0.0616 -0.0883  0.1265
28649W        W45496   1.030  12.994   2.601 -0.0772  0.1385  0.0022
28650W        W45497   0.889  15.516  13.030  0.2593  0.0076  0.1912
28651W        W45498  17.106   5.162  11.596 -0.0657 -0.0739  0.3177
28652W        W45499   6.223   6.725  13.442 -0.1480 -0.0515  0.0417
28653W        W45500  15.038   5.556   0.416 -0.1863  0.1247  0.2075
28654W        W45501  13.984  13.531  16.056  0.1238  0.2267  0.0141
28655W        W45502   4.283   2.520  13.718 -0.1528 -0.1456 -0.0440
28656W        W45503   1.969   1.171   2.033  0.2876 -0.1383 -0.0489
28657W        W45504   8.270  14.078   5.311  0.1327  0.4606  0.1092
28658W        W45505   6.591   4.664  13.208  0.5166  0.1502 -0.0696
28659W        W45506   5.504  14.206   5.116  0.0446 -0.1019  0.2790
28660W        W45507   8.028  12.613   0.088 -0.1213 -0.0066  0.0683
28661W        W45508  16.405   3.427  13.504 -0.0616 -0.1487  0.0060
28662W        W45509   3.967   9.591   3.144 -0.0276 -0.1290 -0.0487
28663W        W45510  13.379   2.106   5.556 -0.1585 -0.0736  0.0912
28664W        W45511   7.213  13.024  11.027  0.0732  0.1406  0.1778
28665W        W45512  12.002  14.380   5.068  0.1517 -0.1660  0.1022
28666W        W45513  12.977   3.432   1.827 -0.0943 -0.0511  0.1806
28667W        W45514   8.969   4.624  15.447  0.0658  0.2720  0.0885
28668W        W45515  13.461  15.514   4.190 -0.0149  0.0699  0.0367
28669W        W45516  12.600   1.390   1.149 -0.0803 -0.1539  0.0364
28670W        W45517   7.794  10.767  12.493  0.1829  0.0423 -0.3455
28671W        W45518  16.360   1.444   3.495  0.0891  0.1506 -0.2689
28672W        W45519   5.530   8.918  16.794 -0.0471 -0.0816  0.1053
28673W        W45520   3.154   7.493   0.586  0.4260  0.0322  0.1621
28674W        W45521  11.178   5.100   4.046 -0.0045  0.1934 -0.1537
28675W        W45522  11.932  17.068   0.359  0.0392  0.2174  0.2003
28676W        W45523   0.944   9.460   3.773  0.0799  0.1871 -0.2009
28677W        W45524  11.950   9.199  14.832 -0.0199  0.1572  0.0811
28678W        W45525   7.006   6.437   6.735 -0.2338 -0.0771 -0.1508
28679W        W45526   1.087   7.919   2.771  0.2957  0.1123  0.3448
28680W        W45527  12.869   8.900   4.259  0.0365  0.0757  0.2606
28681W        W45528  16.274   5.149   0.328  0.0981  0.2848  0.2193
28682W        W45529  15.451   1.744   0.896  0.1035 -0.4509 -0.1183
28683W        W45530  15.552   7.519  15.046 -0.1856 -0.3094 -0.2283
28684W        W45531   9.208   2.754   3.866 -0.0493  0.2119  0.1736
28685W        W45532   1.044   4.312  15.557  0.2385 -0.3382 -0.1204
28686W        W45533   8.095   9.331  13.954  0.0925 -0.3009 -0.2911
28687W        W45534  10.660  16.647   2.352  0.0580  0.0795 -0.0887
28688W        W45535  10.256  12.169   3.937 -0.0796  0.1489  0.0942
28689W        W45536   3.162   7.117  12.732 -0.0314  0.0190  0.1438
28690W        W45537   6.865  10.013  16.345  0.0088  0.3193 -0.0167
28691W        W45538   3.035   3.596   4.359  0.1835 -0.4895  0.1509
28692W        W45539   8.730  15.276  14.002  0.1739  0.1765  0.0728
28693W        W45540  14.661  16.108  15.685  0.2462  0.2745  0.0065
28694W        W45541  13.033  10.700   3.297  0.1408 -0.3039  0.1874
28695W        W45542  11.888  11.807   2.096 -0.2524 -0.1184  0.3184
28696W        W45543  14.661  10.548   0.498  0.1428  0.0827 -0.1392
28697W        W45544   0.345  15.273   5.115  0.1591  0.0046  0.1186
28698W        W45545  14.975   1.089   1.249 -0.2065 -0.0894 -0.1953
28699W        W45546  17.406  10.630   0.666 -0.0607  0.0969 -0.2853
28700W        W45547  15.014  17.631   1.508  0.3692  0.0161  0.1205
28701W        W45548  16.864  13.409   5.964  0.1162 -0.0477  0.2229
28702W        W45549   3.341  17.550   3.007 -0.0841 -0.2653 -0.1576
28703W        W45550   4.450   0.439  16.608 -0.1911  0.0665 -0.2994
28704W        W45551   7.004   2.395   2.242  0.5289  0.3736 -0.1553
28705W        W45552  15.297  17.468   5.157  0.2182  0.0597  0.1798
28706W        W45553  13.529   1.237   1.450  0.3287  0.1361  0.0843
28707W        W45554   7.392  16.270  14.085  0.1708 -0.1779  0.3662
28708W        W45555  10.741   3.896  16.576  0.1597  0.3831 -0.3088
28709W        W45556  11.640   2.404   3.000 -0.1171  0.0608  0.2043
28710W        W45557   8.163   4.621   5.227 -0.0756  0.3239 -0.0204
28711W        W45558   9.406   5.420   3.740  0.3872 -0.0527 -0.1765
28712W        W45559   9.372   1.905  14.021  0.1344 -0.1356 -0.1037
28713W        W45560   3.429  14.600  11.812  0.3475  0.1337  0.1428
28714W        W45561   9.624  15.015   1.805 -0.0953 -0.0218 -0.0497
28715W        W45562  10.506   1.047   4.357  0.0975  0.0964  0.2226
28716W        W45563  13.072  13.819  14.212 -0.4598 -0.1550  0.1815
28717W        W45564  17.688   1.444   1.442  0.1335 -0.0148  0.0158
28718W        W45565   2.864  11.008  14.905 -0.3598  0.0645 -0.3077
28719W        W45566  17.082   0.201  15.664 -0.1186 -0.0046  0.1333
28720W        W45567  17.592  17.061  12.785 -0.1311  0.1053  0.0007
28721W        W45568   3.827   1.775  13.680 -0.4121  0.1349 -0.0386
28722W        W45569   4.453   3.928  13.312  0.0249 -0.0628 -0.0502
28723W        W45570   3.802   8.534   1.583 -0.0268  0.0415  0.1459
28724W        W45571   4.907   8.614   2.759 -0.0079  0.1030 -0.2854
28725W        W45572  11.092   0.043   5.476 -0.0521  0.4210  0.0731
28726W        W45573  14.694   4.477   0.117 -0.1359 -0.1442 -0.0032
28727W        W45574  12.347  17.593  14.159 -0.0944  0.1111 -0.3174
28728W        W45575   8.850  12.650   4.180  0.0824  0.2261 -0.2443
28729W        W45576   8.045   8.398  13.858 -0.0391  0.0960 -0.1099
28730W        W45577   0.389   7.868  15.539 -0.3294 -0.1309 -0.0483
28731W        W45578  11.186  13.068   4.280  0.2616  0.2077  0.3455
28732W        W45579   0.712   0.336  12.887  0.1370  0.1185 -0.1889
28733W        W45580   4.738   9.282   0.427 -0.1958  0.3874  0.2254
28734W        W45581   1.046  13.348  14.840  0.0927  0.0342 -0.5192
28735W        W45582  12.494   6.262   4.406  0.2178 -0.2233 -0.2994
28736W        W45583   0.719   4.922  14.140  0.1458  0.1339 -0.0841
28737W        W45584  17.021   3.497   2.575 -0.1176 -0.0560 -0.2027
28738W        W45585   1.605  10.418  13.854  0.1805  0.0769  0.0834
28739W        W45586   0.653   3.295   3.923  0.1247  0.1124  0.0432
28740W        W45587  16.263   6.913   3.345 -0.0254  0.0559  0.0098
28741W        W45588   6.159  17.927  12.568  0.4147 -0.1391  0.1196
28742W        W45589  12.120   6.828   2.803  0.1261  0.1686  0.1860
28743W        W45590   2.118   1.012  16.283 -0.2114  0.2813 -0.2677
28744W        W45591   9.654  13.041  12.555  0.0566 -0.2539  0.0304
28745W        W45592  13.859   1.249   3.509 -0.0477  0.0496  0.2050
28746W        W45593   0.432   1.624  15.352 -0.2047  0.2873 -0.1194
28747W        W45594   2.093   3.993  13.195 -0.1907 -0.0305  0.0571
28748W        W45595   0.694  17.358  12.110 -0.0640  0.0724 -0.1009
28749W        W45596  17.337   6.783   2.456  0.2020 -0.0757  0.1406
28750W        W45597   9.983  13.260   3.417  0.0370 -0.0349  0.2028
28751W        W45598  13.289  14.306   1.955  0.3361 -0.2619 -0.0122
28752W        W45599   8.844   8.418  13.770 -0.0595 -0.1519  0.0288
28753W        W45600   3.732   1.483  13.200 -0.1123  0.1172  0.0155
28754W        W45601  17.841   0.536  14.196 -0.0637 -0.1141 -0.1850
28755W        W45602   5.483   6.557   0.713  0.2854 -0.0335 -0.1131
28756W        W45603   6.081   2.665   5.042 -0.1184 -0.2106  0.2359
28757W        W45604  12.818  15.416   1.066  0.0993 -0.1115  0.2183
28758W        W45605   1.240   0.327   5.735  0.1038 -0.1985  0.2587
28759W        W45606  15.042   2.770  12.518 -0.2402  0.1854 -0.1002
28760W        W45607   9.188  15.122  16.300  0.0220 -0.1351  0.1628
28761W        W45608   9.327  12.742  12.137  0.1874 -0.4813 -0.0814
28762W        W45609  11.028   2.367  16.164  0.2155  0.0633  0.1348
28763W        W45610   4.660   0.038   5.065  0.0681 -0.1959 -0.2312
28764W        W45611  17.722  14.005  13.775 -0.0280 -0.0260 -0.0051
28765W        W45612  14.995  11.050   3.798 -0.1690  0.1669 -0.0632
28766W        W45613   3.088   6.267   2.562 -0.0412  0.2849  0.0591
28767W        W45614   5.559   7.175   3.020  0.0123  0.0102  0.1358
28768W        W45615  16.869   5.756   2.466  0.2842 -0.0194 -0.1663
28769W        W45616  11.784   6.399  13.444  0.0613 -0.0699  0.2507
28770W        W45617  10.593  15.364  15.608 -0.3659 -0.2538  0.0309
28771W        W45618   6.316   2.652   0.536 -0.1076 -0.0725  0.2983
28772W        W45619   9.549  13.160  16.593 -0.0400  0.1545 -0.0543
28773W        W45620   4.508   6.676   5.350 -0.1714  0.1692  0.1204
28774W        W45621  14.423   1.007   1.159  0.0295  0.0248 -0.0041
28775W        W45622   2.873   7.127  12.087  0.1036 -0.2406 -0.0390
28776W        W45623  15.793   1.746  16.110  0.0395  0.1212  0.1406
28777W        W45624   6.861   0.983  16.125  0.0643  0.1271  0.1124
28778W        W45625  17.563  15.967   2.219 -0.0248 -0.0210  0.1793
28779W        W45626   5.983   2.253   4.228 -0.3441 -0.3218 -0.2964
28780W        W45627  13.532   4.057  12.522 -0.0278 -0.0619 -0.0014
28781W        W45628   9.009  14.659   0.962  0.1398  0.2690 -0.2033
28782W        W45629  10.938  15.086   4.303 -0.0172 -0.1007 -0.1251
28783W        W45630  11.749  12.544   5.023  0.5370  0.2571  0.0013
28784W        W45631  13.690  17.221   1.745  0.0105  0.4590 -0.0156
28785W        W45632  10.450  16.152  16.307  0.1732 -0.0519 -0.0781
28786W        W45633   9.260   6.550   0.588 -0.2919  0.0368 -0.1013
28787W        W45634   6.001  15.007   2.574  0.2333  0.0279  0.2037
28788W        W45635   9.142   6.787  12.759 -0.3923 -0.1893 -0.1794
28789W        W45636  14.943   4.803  14.533 -0.2703 -0.0313  0.1357
28790W        W45637   9.197   0.551  14.385 -0.0324 -0.2186 -0.0723
28791W        W45638   1.446  17.398   0.231 -0.1824  0.0703 -0.0969
28792W        W45639   0.477  13.537   0.750  0.4879 -0.2455 -0.3239
28793W        W45640   1.259  14.303   4.719  0.0460 -0.1508 -0.1441
28794W        W45641   4.791   3.222  12.328 -0.0418 -0.3780 -0.1015
28795W        W45642   7.867  17.434  13.796 -0.3148 -0.0590  0.1007
28796W        W45643   7.567  10.251  13.718 -0.2579  0.2684 -0.2053
28797W        W45644   2.786  13.639   1.258  0.1862 -0.0640  0.2376
28798W        W45645   3.554  15.552   1.635  0.1814 -0.0127 -0.0938
28799W        W45646   9.803   5.254   0.757  0.2935  0.0353 -0.1580
28800W        W45647   5.828  12.593  14.536  0.2437 -0.1169 -0.1990
28801W        W45648   0.391   5.814   1.689  0.1868 -0.0449 -0.1425
28802W        W45649  13.189  10.307   1.127 -0.2310 -0.4187  0.0989
28803W        W45650  13.333   5.993  11.958  0.0880 -0.1980 -0.1581
28804W        W45651   9.050  10.525   2.912 -0.2901 -0.4246 -0.1069
28805W        W45652  10.102   0.380   1.240 -0.1724 -0.0322  0.2458
28806W        W45653   9.917  12.658   5.354 -0.2003  0.2024 -0.1183
28807W        W45654  17.792  14.031   1.299 -0.0055  0.0890  0.3473
28808W        W45655  17.764   9.704   0.581  0.0712 -0.2782 -0.0871
28809W        W45656   7.624  13.730   3.788 -0.1490 -0.3977 -0.1507
28810W        W45657  10.327   2.954  16.766 -0.3367 -0.3033  0.0724
28811W        W45658   8.530  11.519   4.862  0.1280 -0.0518  0.0443
28812W        W45659  16.432  13.701  13.378  0.1134 -0.1620 -0.0324
28813W        W45660   0.381   5.588   3.015  0.0195  0.1078 -0.1595
28814W        W45661   6.151   3.565   5.226  0.3921 -0.2647 -0.0592
28815W        W45662   1.266  16.826  16.371  0.1807  0.0833 -0.1463
28816W        W45663   1.146  10.758   2.336 -0.1081  0.0898 -0.2961
28817W        W45664  15.416   6.824  13.883  0.2137 -0.1821 -0.0860
28818W        W45665  11.737   6.357  11.638 -0.0281 -0.1948  0.1271
28819W        W45666  16.809   8.579   2.430 -0.1383  0.2253  0.0401
28820W        W45667  12.028   9.192   0.902 -0.2021  0.0614  0.0380
28821W        W45668  13.713  14.181   3.369 -0.0779 -0.1226  0.0950
28822W        W45669  17.006   1.841  12.797  0.3503  0.1694 -0.0791
28823W        W45670   4.340   0.078   0.383  0.1494 -0.1212  0.2318
28824W        W45671  15.083   8.460   4.894 -0.0503  0.0151 -0.2240
28825W        W45672  14.789  13.665   2.778  0.0234 -0.1008 -0.1353
28826W        W45673   4.426  11.612  12.463  0.5107  0.0840  0.2117
28827W        W45674  10.306  11.944  15.338  0.1057  0.1909  0.0847
28828W        W45675   5.325  15.096  11.583 -0.2204  0.0184  0.0626
28829W        W45676  12.804   1.782  14.333 -0.2253  0.2048 -0.0357
28830W        W45677  16.435  16.990   0.721  0.2071 -0.1207  0.1261
28831W        W45678  12.460   5.905  15.722  0.1097  0.2324  0.1443
28832W        W45679   6.548   5.353  15.541 -0.1125  0.1655 -0.1039
28833W        W45680   4.720   4.531  15.722  0.1025 -0.1118  0.0712
28834W        W45681   6.732   1.337  12.230  0.3492 -0.0136  0.3966
28835W        W45682  17.243   0.841  11.921 -0.0753 -0.3083 -0.2530
28836W        W45683  10.424   6.974   2.492 -0.0635  0.3923 -0.1701
28837W        W45684  14.895  17.774  11.913  0.2326 -0.2092 -0.2563
28838W        W45685  14.856  11.571   3.496  0.3000  0.2333  0.0737
28839W        W45686   0.094   5.508  15.693 -0.2865 -0.0014  0.0124
28840W        W45687  14.301   7.369   5.261 -0.0079 -0.0698 -0.0291
28841W        W45688   3.700  13.255   4.946  0.3156 -0.0709 -0.0286
28842W        W45689   8.417   2.028   2.603 -0.0533 -0.0773  0.0699
28843W        W45690   8.030  15.694   5.053 -0.1565  0.1191  0.0169
28844W        W45691   9.101  16.328   4.740  0.0676  0.1360 -0.0369
28845W        W45692   4.485  14.407  16.277 -0.1308  0.0315 -0.0007
28846W        W45693   4.933   7.090  13.434 -0.2120  0.0641  0.2589
28847W        W45694   5.170   7.543  16.469 -0.0110 -0.1554  0.1757
28848W        W45695  10.594  16.254   5.671 -0.0650 -0.2887 -0.0470
28849W        W45696   7.344  13.856  16.685 -0.0655 -0.1384  0.2542
28850W        W45697   6.041  16.980   4.212  0.0356 -0.0768 -0.1088
28851W        W45698  13.486   4.582  12.625  0.0393  0.3313  0.2822
28852W        W45699   4.542  14.483  12.590  0.2007 -0.1524  0.4355
28853W        W45700  17.162  15.065   3.778  0.1560 -0.0944 -0.0320
28854W        W45701   1.996   1.393   4.017 -0.1023 -0.0681 -0.2346
28855W        W45702  12.495   8.074   2.989  0.2944 -0.1462  0.3191
28856W        W45703   8.478  15.902   0.921 -0.0438 -0.0802 -0.0753
28857W        W45704   1.792  10.803  14.060 -0.1265 -0.0024 -0.1197
28858W        W45705  16.471  14.300  13.915 -0.1874 -0.0694  0.0524
28859W        W45706   1.308   6.252  14.378  0.1885  0.0425  0.3682
28860W        W45707  15.991  16.626  13.429  0.1192  0.1834  0.0893
28861W        W45708  11.302  17.531   5.309  0.0943 -0.1921  0.2044
28862W        W45709   6.134  10.496   5.027  0.1082 -0.0545 -0.0783
28863W        W45710   8.772   8.119  12.327 -0.0058 -0.4760 -0.0242
28864W        W45711  10.380  17.743  16.215 -0.0953 -0.0112 -0.1455
28865W        W45712  12.971  15.167  13.908  0.1566  0.0148 -0.0990
28866W        W45713  14.159  16.217  12.492 -0.0007  0.2594 -0.1106
28867W        W45714   6.956  14.253  14.465 -0.0090  0.3182  0.0177
28868W        W45715   0.125  10.039   2.786 -0.2909 -0.1670  0.1668
28869W        W45716  12.536   4.112  15.576 -0.0165  0.1834  0.0209
28870W        W45717   1.921   0.680  16.669  0.3105  0.2500  0.3055
28871W        W45718   9.111  17.449  14.784 -0.0108 -0.0951 -0.1146
28872W        W45719  14.652   7.245  11.757 -0.4667 -0.2068 -0.2119
28873W        W45720   2.639   3.423  13.705 -0.0494 -0.1805 -0.0480
28874W        W45721   6.852   7.017  14.856  0.1501  0.4184  0.0470
28875W        W45722   2.702   2.975   5.242  0.1258 -0.3424 -0.3199
28876W        W45723  15.765   8.343   1.405  0.2900 -0.1837 -0.1659
28877W        W45724   6.782  13.054   5.238  0.0608 -0.0599 -0.0595
28878W        W45725  15.887   9.618  15.576 -0.0427  0.0779  0.1293
28879W        W45726   8.367   0.428  13.977 -0.0858 -0.1771  0.1193
28880W        W45727   7.486   9.847  16.193 -0.0023 -0.0721 -0.0197
28881W        W45728  14.408   7.665   1.654 -0.0144  0.3232 -0.1997
28882W        W45729   8.159  17.323  16.653  0.4352 -0.1368  0.2782
28883W        W45730  16.805  11.795   1.253 -0.0877 -0.0612 -0.1994
28884W        W45731  14.772  14.049   1.838 -0.1778  0.0618  0.0448
28885W        W45732  11.827  16.835   0.978 -0.1826  0.0134  0.0685
28886W        W45733   8.418   7.199  15.668  0.0122 -0.1045  0.2675
28887W        W45734  10.946   1.333   4.207 -0.2479 -0.0593  0.1263
28888W        W45735  11.488   5.855   1.056 -0.1496 -0.1939  0.1502
28889W        W45736  13.343  13.103  15.327 -0.2431  0.0815 -0.0700
28890W        W45737   1.691  17.163  14.254 -0.0238 -0.1513 -0.0533
28891W        W45738   0.178  13.017   3.375  0.0120 -0.0775  0.0857
28892W        W45739  12.528   1.380  12.987 -0.1024 -0.2088  0.1187
28893W        W45740   2.949   1.005   1.050 -0.1130  0.1227 -0.1211
28894W        W45741  15.570   1.587  13.200  0.3383  0.0097 -0.1008
28895W        W45742  15.505  17.562  15.275 -0.3254  0.1605  0.4304
28896W        W45743   4.408   9.321   4.769 -0.0523 -0.0066 -0.1685
28897W        W45744   1.879   2.707  12.371  0.1619  0.0578 -0.0238
28898W        W45745   6.531   4.020  14.325 -0.0771  0.0141  0.0871
28899W        W45746  14.526  10.366   4.548 -0.0570 -0.3444  0.1226
28900W        W45747   7.185   6.184   3.192  0.1042 -0.0060 -0.1558
28901W        W45748  11.287  10.189   1.182  0.0229 -0.0699  0.0577
28902W        W45749   7.748   8.404   4.828 -0.4719 -0.0492 -0.3466
28903W        W45750   6.979  12.740  12.369 -0.1279 -0.0466 -0.4211
28904W        W45751   9.454  14.834  16.593  0.0207  0.0879 -0.1341
28905W        W45752   9.293   1.432   3.561  0.0799  0.1188  0.1819
28906W        W45753   4.838   8.567  13.840 -0.0596 -0.1830  0.1106
28907W        W45754   9.012   9.942   2.226 -0.1015  0.3383  0.0471
28908W        W45755   1.208   7.710  16.456  0.3792  0.2635 -0.0897
28909W        W45756   1.030   2.280  12.119  0.0717 -0.0477  0.1396
28910W        W45757   8.886   3.653  11.727  0.1595 -0.2369  0.2412
28911W        W45758   1.212   3.383   1.299 -0.0700  0.0551  0.2457
28912W        W45759   0.419  14.663  11.957 -0.2920  0.2387  0.1329
28913W        W45760   1.263  14.308   4.204 -0.2517  0.2511  0.1185
28914W        W45761  10.307  17.864   4.351 -0.2698 -0.0286 -0.1436
28915W        W45762   4.952   6.540   0.466 -0.1871 -0.0726 -0.1241
28916W        W45763   3.260   3.066   0.164 -0.1850  0.2581  0.0453
28917W        W45764  11.330   4.741   2.508 -0.0608  0.1201 -0.3286
28918W        W45765  13.175  14.133  15.026 -0.0353  0.0831  0.2466
28919W        W45766  15.251   0.041   3.245 -0.1878 -0.0852 -0.2774
28920W        W45767  11.881   5.406   1.210  0.1078  0.2494 -0.2532
28921W        W45768   8.081   6.879   4.549 -0.0160  0.0256  0.0783
28922W        W45769  16.115   3.505  10.844  0.2269  0.0911 -0.3317
28923W        W45770  14.078   3.014   1.973 -0.2414 -0.2360 -0.2440
28924W        W45771  11.080   2.386   3.631  0.0704  0.3568  0.1611
28925W        W45772   8.312   3.001   5.105 -0.0577 -0.1407 -0.0968
28926W        W45773   1.569  17.139   2.356  0.0490 -0.2743  0.0189
28927W        W45774  15.932  16.795  12.946 -0.1453  0.0061 -0.1026
28928W        W45775   5.979   3.789  14.995 -0.3095  0.1800 -0.0740
28929W        W45776  17.367   9.148  13.705  0.0624 -0.0690 -0.1755
28930W        W45777   8.321  10.099   2.353 -0.1205  0.2587  0.0578
28931W        W45778   5.451   1.985  13.260  0.3156  0.1646 -0.3906
28932W        W45779  14.054  16.344  14.551  0.0242 -0.0133 -0.0622
28933W        W45780  17.451   1.960   4.390 -0.1086  0.1112  0.3351
28934W        W45781   8.082   0.178  13.078  0.0308  0.0613 -0.1841
28935W        W45782   2.291  10.454  13.080 -0.1973 -0.1055 -0.0222
28936W        W45783   5.444   5.250   5.546  0.2123  0.2030 -0.0147
28937W        W45784   4.457   9.830  15.549 -0.3055  0.1017 -0.2242
28938W        W45785  12.537   4.678  15.491 -0.0868  0.2780  0.1752
28939W        W45786   9.043   7.727  14.712 -0.0638 -0.0062 -0.3482
28940W        W45787   0.680   2.014  11.402 -0.0504 -0.1854  0.2790
28941W        W45788   8.030  17.869   0.234 -0.1639  0.2604  0.0346
28942W        W45789   8.979  10.422  13.290  0.0821  0.0561  0.1516
28943W        W45790   7.471  13.897   5.421  0.0496  0.2129 -0.2974
28944W        W45791  14.791  16.466   4.261 -0.1829 -0.1190  0.0914
28945W        W45792  13.863   1.809   4.174 -0.2022 -0.1215  0.0256
28946W        W45793   7.256  11.671  15.256 -0.0966  0.1961  0.2715
28947W        W45794   5.011  16.098   4.743  0.2848  0.1601 -0.3579
28948W        W45795   2.919  15.744  16.691  0.2839 -0.2043  0.1078
28949W        W45796   3.512  15.979  13.877  0.0574 -0.0997 -0.1150
28950W        W45797  13.028  14.510  13.115  0.2824  0.0643 -0.1283
28951W        W45798  11.892   0.578   2.718  0.2943 -0.0092 -0.2281
28952W        W45799   2.639  17.580   3.034 -0.0583  0.1796 -0.0730
28953W        W45800   4.951  10.896  12.957 -0.0824 -0.0157  0.1918
28954W        W45801  11.360   8.839   3.675  0.0774  0.0042 -0.4003
28955W        W45802   9.667  15.316   2.668 -0.1247  0.0086  0.2079
28956W        W45803  12.202   6.886   1.223  0.2378  0.2779 -0.0263
28957W        W45804  12.052   7.952   1.252  0.0630  0.0101  0.0396
28958W        W45805   0.576   7.727   0.542 -0.2605 -0.3812  0.0847
28959W        W45806  12.702   7.508  15.030  0.1861 -0.1098 -0.2327
28960W        W45807   1.215  10.582   3.653  0.2062 -0.1247 -0.2071
28961W        W45808   4.824   6.905  16.190  0.0928  0.0784 -0.2479
28962W        W45809   8.986  14.253   5.064 -0.0048  0.0918 -0.1174
28963W        W45810  12.229   2.954  12.013 -0.1814 -0.1686  0.1751
28964W        W45811   9.759   9.682  14.296  0.0448 -0.1055  0.1192
28965W        W45812  16.930  10.028  13.898 -0.1914  0.4374  0.0294
28966W        W45813  13.300  10.381   0.602  0.0566  0.2071 -0.3635
28967W        W45814  17.548  14.695   0.772 -0.0297 -0.3101 -0.2113
28968W        W45815   5.947   6.680  12.169 -0.1464  0.2734  0.0871
28969W        W45816  12.793   8.803  14.850  0.1801 -0.2731 -0.1322
28970W        W45817   1.225  17.433   0.711  0.1565  0.1006 -0.2250
28971W        W45818  15.053   6.560  12.567 -0.0157 -0.0951 -0.1294
28972W        W45819   0.543  11.414  12.270  0.1089 -0.0737  0.0960
28973W        W45820  10.409   6.691   3.255  0.2801 -0.2466 -0.1943
28974W        W45821  15.955  15.791  15.244 -0.0237 -0.0215 -0.1411
28975W        W45822   2.668  15.794  13.989 -0.2494  0.4295  0.0748
28976W        W45823  11.533   5.806   0.517  0.0744 -0.0339 -0.1041
28977W        W45824   6.094   4.674   4.986  0.0020 -0.1479  0.1517
28978W        W45825  15.725   9.795  14.511  0.0551 -0.2079 -0.0685
28979W        W45826  14.178  14.143   2.324 -0.1493 -0.4065  0.2593
28980W        W45827  14.638  15.373   0.838 -0.2571 -0.2317  0.1746
28981W        W45828   5.051   0.242   3.266 -0.0265 -0.1650  0.1767
28982W        W45829  11.132  14.110   2.533  0.2856 -0.1946 -0.1239
28983W        W45830  13.941   4.064   3.351  0.0085  0.2710 -0.0467
28984W        W45831  15.547  15.934   4.856  0.0791  0.0171 -0.1903
28985W        W45832   9.178   0.819  11.038 -0.0990  0.0176 -0.1233
28986W        W45833  17.460   3.599   1.384 -0.1660 -0.1471 -0.2724
28987W        W45834  12.599  17.869  13.009  0.1206  0.3799  0.1141
28988W        W45835   6.157   3.539  16.368  0.1960  0.2344 -0.1338
28989W        W45836  16.130   1.847   3.422  0.2495  0.0770 -0.2321
28990W        W45837   4.121   5.528  13.567 -0.0679  0.0196 -0.0398
28991W        W45838   0.806   2.354  13.891 -0.4064 -0.0314 -0.1996
28992W        W45839  14.138   6.835  13.380 -0.1116  0.2165  0.2075
28993W        W45840   7.133  13.433   4.471  0.2272  0.0544  0.0927
28994W        W45841  10.110  15.586   1.059 -0.1289  0.1472 -0.0316
28995W        W45842  17.231   0.166  14.660 -0.2343 -0.2658 -0.0112
28996W        W45843  10.403  14.829   3.649 -0.0188 -0.1955  0.0771
28997W        W45844   4.067  12.285   1.685  0.1667  0.0133  0.2586
28998W        W45845   7.697   9.514   5.206  0.1122  0.3222 -0.2185
28999W        W45846  15.799  14.719   3.142 -0.0448  0.2934 -0.0244
29000W        W45847   7.283  11.984  16.418 -0.3201 -0.2120  0.1464
29001W        W45848  11.209  12.739   0.147 -0.0039  0.1855 -0.1336
29002W        W45849  13.918  13.340   3.846 -0.1423 -0.0391  0.3335
29003W        W45850   8.017  14.894  16.292  0.2079  0.2420  0.0473
29004W        W45851  15.677  10.368  15.956  0.1811  0.2133  0.0187
29005W        W45852  17.371   4.030  16.472 -0.3632  0.0263  0.0479
29006W        W45853  12.402  13.294  11.828  0.0580 -0.4937 -0.2099
29007W        W45854   5.434  15.951  11.001  0.1587  0.0996 -0.1588
29008W        W45855   4.251  10.452  12.521  0.2356 -0.0028 -0.1520
29009W        W45856  14.164   9.009  13.673 -0.1163  0.0534  0.1011
29010W        W45857   6.331  13.340   0.503  0.0978 -0.0125  0.0963
29011W        W45858   3.254  11.550  16.211  0.0578  0.2605  0.1780
29012W        W45859  17.045   7.663   3.634 -0.3577  0.1063 -0.1699
29013W        W45860   5.147   7.647  15.138 -0.1132 -0.2672 -0.0099
29014W        W45861  11.819  15.662  11.830 -0.0305 -0.1347  0.0956
29015W        W45862  10.092  14.793  11.899  0.1467 -0.3988  0.1952
29016W        W45863  15.942   1.758   1.017 -0.1601  0.1995  0.0720
29017W        W45864   5.423   4.496  15.759  0.0355  0.0582  0.1195
29018W        W45865  12.518  12.788  14.172 -0.1124  0.0812  0.1216
29019W        W45866   0.185   9.527   2.880 -0.0936 -0.1831  0.2289
29020W        W45867  16.880   4.693  13.970  0.1091  0.1522  0.1615
29021W        W45868   2.719  13.162   4.945 -0.0138 -0.0186  0.1060
29022W        W45869   4.071  10.751   3.466  0.1544  0.3092 -0.1316
29023W        W45870  15.451   4.296   1.902 -0.0752 -0.0014 -0.0655
29024W        W45871  11.289   3.889  14.897  0.1526  0.3839 -0.0411
29025W        W45872   0.005  11.925   5.324 -0.1983 -0.1180 -0.0649
29026W        W45873  15.432   6.394  16.076  0.0301 -0.1173  0.2003
29027W        W45874  15.002   2.802   2.398 -0.1535 -0.1186 -0.0544
29028W        W45875   1.247   2.593   5.893  0.1187  0.0955 -0.1287
29029W        W45876   8.080  12.640   5.818 -0.1331  0.0203  0.1500
29030W        W45877  11.385   1.854  12.154 -0.0674 -0.3104 -0.1459
29031W        W45878   8.115   1.161  15.960  0.1414  0.1005 -0.1110
29032W        W45879  13.533  11.831  15.065  0.0509 -0.0392  0.1959
29033W        W45880   0.172   9.752  14.604  0.1024 -0.2260 -0.0265
29034W        W45881  14.543  11.389   4.694 -0.2645  0.2829 -0.0352
29035W        W45882   4.378  14.946   3.243  0.1681  0.0876  0.0120
29036W        W45883   1.592  13.663   1.083  0.0953 -0.0734 -0.0976
29037W        W45884  17.731   0.547   0.794  0.0468  0.2340  0.2865
29038W        W45885  16.397  13.016  14.399  0.2620  0.0175 -0.2003
29039W        W45886   2.632  11.702  14.890 -0.2078 -0.1733  0.0701
29040W        W45887   7.408  13.481   3.411 -0.3383  0.4305 -0.1555
29041W        W45888   9.966   0.978  16.560 -0.0314 -0.1332 -0.2211
29042W        W45889   9.943  14.221   1.456  0.1257  0.0486  0.0235
29043W        W45890  10.907   0.826   4.141  0.1921 -0.0138 -0.2559
29044W        W45891   3.333   6.726  13.464 -0.1936 -0.0140  0.0878
29045W        W45892   6.981   5.133  15.394  0.2571  0.1293  0.0597
29046W        W45893   2.633   4.993  14.227 -0.3012 -0.0679 -0.0343
29047W        W45894   2.956  10.164  14.308 -0.2970  0.1429  0.1931
29048W        W45895   8.550   5.065   1.221 -0.0405 -0.0284 -0.1043
29049W        W45896   6.991  13.420   2.055 -0.2520  0.3377  0.1516
29050W        W45897  16.320   6.240   2.878  0.2997 -0.2834  0.1212
29051W        W45898   9.346  13.035   4.569 -0.3394  0.1277 -0.1906
29052W        W45899   0.128   6.324  15.971 -0.1381  0.0633  0.2781
29053W        W45900   4.450  11.936   3.601 -0.5085 -0.2317  0.0689
29054W        W45901  14.260   1.186   5.941  0.1634  0.1223  0.0454
29055W        W45902   7.633  14.626  14.290  0.0936  0.0789  0.3129
29056W        W45903  13.326   4.875  13.087 -0.1192 -0.2025  0.1594
29057W        W45904  14.211   8.460  12.194  0.3352 -0.0451 -0.1232
29058W        W45905   6.308  11.665   1.965 -0.1435  0.0193  0.1893
29059W        W45906   1.226   6.020  11.532 -0.0157 -0.2475  0.0168
29060W        W45907  10.710   7.397  14.734 -0.2891 -0.2974  0.0375
29061W        W45908  14.352  16.728  14.261  0.0977 -0.0107  0.1796
29062W        W45909   8.369   1.832  12.908  0.0916  0.2566  0.1936
29063W        W45910  12.955  12.456  14.347 -0.1004  0.3835  0.0293
29064W        W45911   8.136  14.597   5.048  0.2075  0.0497  0.1691
29065W        W45912   4.762   9.489   4.436 -0.1123 -0.2061 -0.0385
29066W        W45913   2.413  12.126  12.062 -0.0998  0.1302 -0.0101
29067W        W45914   8.106   9.813   5.258  0.0237  0.1048  0.2786
29068W        W45915  15.295   0.025   0.543  0.0080  0.0186  0.0807
29069W        W45916   9.497   8.640   1.629 -0.0695 -0.3808 -0.4190
29070W        W45917   7.806   2.622   3.794 -0.1203  0.0265 -0.1507
29071W        W45918   0.562   7.829  13.155 -0.1343  0.3269 -0.1829
29072W        W45919   9.292  11.231   5.144 -0.0852  0.0048 -0.1664
29073W        W45920   0.634   8.810  15.886 -0.2129  0.0009 -0.0411
29074W        W45921   1.727   6.081  12.986 -0.2842  0.0388  0.2998
29075W        W45922  14.162   7.545   3.117  0.1245 -0.2271 -0.2856
29076W        W45923  11.999   5.352   4.665 -0.1297 -0.1319 -0.0045
29077W        W45924  17.105   3.093   1.914  0.0979  0.0453 -0.2526
29078W        W45925   3.056   6.528  16.423  0.0947  0.1528 -0.2328
29079W        W45926   5.235   1.049  15.278 -0.1636  0.3586  0.0263
29080W        W45927  16.130  13.298   2.163 -0.0357 -0.0746 -0.1841
29081W        W45928   5.128  16.143   2.215  0.0853 -0.0652 -0.0394
29082W        W45929   3.785   8.410   3.840 -0.1956  0.1580  0.3431
29083W        W45930  13.830   9.678   0.800  0.3030  0.1313 -0.2664
29084W        W45931   6.614   0.759  11.314  0.2228  0.2510  0.0404
29085W        W45932  14.016  17.885   2.986  0.0346 -0.1088 -0.0048
29086W        W45933   5.961  12.201  15.773 -0.0992 -0.2760 -0.2154
29087W        W45934  11.268   3.353  13.756 -0.0667 -0.3233  0.2002
29088W        W45935   6.179   6.173  15.730 -0.3289 -0.2554 -0.0921
29089W        W45936   3.825   0.575  16.165 -0.0070  0.3749  0.1137
29090W        W45937   6.357  13.115   3.348  0.0996 -0.0290  0.0431
29091W        W45938  12.859  14.581   5.653  0.1181  0.2244 -0.1202
29092W        W45939   6.472  16.731   4.483 -0.1144  0.1593 -0.3584
29093W        W45940  14.107  12.447   4.451  0.2629 -0.0146 -0.0185
29094W        W45941   8.842   4.244   1.406 -0.0660 -0.0090 -0.0490
29095W        W45942  15.294   4.625  12.690  0.0137 -0.1737  0.2631
29096W        W45943   3.252   4.461  16.019 -0.0889  0.0854  0.0143
29097W        W45944  11.526   2.417   3.993  0.0594 -0.0152  0.2141
29098W        W45945   4.261  10.220   3.578  0.2945  0.1676  0.1310
29099W        W45946   1.588  14.094  14.399 -0.0517 -0.1930  0.0962
29100W        W45947  11.520  15.822  15.672  0.0908  0.0648 -0.0803
29101W        W45948  10.159   2.482   0.788  0.0304  0.2624 -0.0633
29102W        W45949   1.981  10.443  15.901 -0.0714 -0.2208  0.0053
29103W        W45950   3.373  13.579   4.857  0.2586 -0.0431  0.2105
29104W        W45951   3.704   5.732  14.510 -0.2194  0.0451 -0.2824
29105W        W45952   5.406  13.695  13.556  0.0014 -0.0110  0.2245
29106W        W45953   4.067  14.402  15.392  0.2670  0.0520 -0.0291
29107W        W45954   9.689   7.616   3.144  0.1346 -0.1407 -0.4359
29108W        W45955  13.780  15.247   1.424 -0.3881 -0.1631 -0.0947
29109W        W45956  15.312   9.394   3.980 -0.0663  0.3061 -0.1395
29110W        W45957   7.370  13.510  13.044 -0.1928  0.0792 -0.1386
29111W        W45958  12.144  15.690   0.099 -0.0030 -0.2943 -0.1666
29112W        W45959   5.183   7.280   2.586  0.1339 -0.1957 -0.2893
29113W        W45960   0.793  14.838  13.557 -0.3057  0.0189  0.1958
29114W        W45961  15.744   0.245   4.091  0.0883 -0.0014 -0.0234
29115W        W45962   7.161   9.014  16.499 -0.2993 -0.1589 -0.0371
29116W        W45963   7.723   8.869   4.893  0.0515  0.1588 -0.1786
29117W        W45964  10.143  13.713  14.114  0.0046 -0.1656 -0.0834
29118W        W45965  16.959   4.784  11.256 -0.0759  0.3090  0.2310
29119W        W45966   1.776  11.720  13.998  0.1992 -0.1461  0.1615
29120W        W45967   7.326   8.650   2.119  0.1353  0.2557 -0.0280
29121W        W45968   6.804   8.231   3.297 -0.0554 -0.2578  0.0845
29122W        W45969   1.031   5.345   2.324 -0.1673 -0.0132 -0.0099
29123W        W45970   6.159  11.803  14.863 -0.1219  0.0050  0.1714
29124W        W45971  17.266  11.426  14.121 -0.1274  0.0172 -0.2014
29125W        W45972   7.953   4.588   5.702 -0.2036  0.1588  0.0109
29126W        W45973   7.925  15.894   5.557 -0.0347 -0.0267 -0.0860
29127W        W45974   4.270   8.578   3.637 -0.0318 -0.1441 -0.1551
29128W        W45975  12.950  12.128   1.452  0.1239 -0.1772 -0.0614
29129W        W45976   4.655  17.298  15.341 -0.0627 -0.1532 -0.1384
29130W        W45977  15.702   9.696   3.871 -0.2715 -0.1572  0.1417
29131W        W45978  11.615  12.414   2.466  0.0726  0.3796  0.0066
29132W        W45979   3.853  13.063  12.619 -0.2525 -0.1433  0.0449
29133W        W45980   7.980  13.486   4.533  0.0785  0.0761  0.0125
29134W        W45981  14.143   3.890  16.219  0.1462 -0.0310 -0.1348
29135W        W45982  13.616  14.193  10.936  0.1159  0.2304 -0.0829
29136W        W45983   1.931  16.969   2.021  0.2139 -0.1565 -0.1938
29137W        W45984  16.426   0.118   2.692 -0.1081 -0.1347 -0.3031
29138W        W45985   9.133   5.763   3.020  0.0565  0.0509  0.2390
29139W        W45986  13.127  13.733   6.104  0.0095 -0.2495 -0.0902
29140W        W45987   9.470   1.861  14.545 -0.0368  0.0524  0.1632
29141W        W45988   2.066   5.271   2.935 -0.0989 -0.2046 -0.1820
29142W        W45989   6.819  14.299   2.509 -0.0150  0.1317  0.1542
29143W        W45990   6.655  12.603   1.164  0.0460  0.1464 -0.6496
29144W        W45991   1.711   8.333   5.519 -0.2464  0.4121  0.1126
29145W        W45992   8.979   5.298   0.975 -0.0795  0.0604  0.2284
29146W        W45993  15.211   5.134  12.831 -0.0106 -0.1790 -0.2373
29147W        W45994  14.078  12.312  16.010 -0.0224 -0.1485 -0.2211
29148W        W45995  13.373   7.667   1.264 -0.3277 -0.0489  0.0454
29149W        W45996   8.743   2.687   0.555 -0.2241  0.0330  0.0125
29150W        W45997   3.230  12.557  13.398  0.1495 -0.2001  0.0360
29151W        W45998  17.221   0.848   2.647 -0.0682 -0.0369 -0.5032
29152W        W45999  12.235  14.035  13.034  0.0976 -0.4356 -0.0948
29153W        W46000   4.930  12.039  13.608 -0.1350 -0.1417  0.2320
29154W        W46001  11.304  14.556  16.328  0.1444  0.3115 -0.0985
29155W        W46002   7.816  13.006  13.599 -0.1522 -0.0103 -0.3514
29156W        W46003   7.475   3.247  13.246  0.2354  0.0792 -0.2786
29157W        W46004  13.647  11.120  12.509  0.2364  0.0505 -0.1396
29158W        W46005  10.262   5.458   0.676  0.0547  0.0875 -0.0361
29159W        W46006   4.451   5.576  15.329  0.1128 -0.1816  0.0367
29160W        W46007   4.736   3.050   1.461 -0.2138 -0.2091 -0.0384
29161W        W46008  10.397   0.396  12.880 -0.3064 -0.0421 -0.1019
29162W        W46009   7.404  13.796   6.478  0.1160 -0.0025 -0.0275
29163W        W46010   3.303   3.300   3.449 -0.3226 -0.3492  0.4082
29164W        W46011  14.630   7.411  16.321 -0.2604 -0.1924 -0.0149
29165W        W46012   2.713  17.279  15.166 -0.0103  0.1179  0.1027
29166W        W46013  17.779  10.029  14.433  0.0047 -0.2363  0.2363
29167W        W46014   4.607   0.852   0.135 -0.0961  0.0216 -0.2512
29168W        W46015   1.002  10.262   0.180 -0.2558 -0.1857  0.0188
29169W        W46016  14.999  17.481  13.292  0.3714 -0.1212  0.1516
29170W        W46017   5.267   4.700  16.200 -0.3067 -0.0623  0.2897
29171W        W46018   8.689   7.142  15.281 -0.1687 -0.0015 -0.1291
29172W        W46019   2.086  17.370  16.582 -0.2160  0.0975 -0.1069
29173W        W46020   5.956   4.945   4.606  0.1929 -0.1103 -0.1301
29174W        W46021  17.628   4.193   0.086  0.1452  0.1627  0.2935
29175W        W46022   3.500  12.660   1.889 -0.2493  0.0751  0.0613
29176W        W46023   9.420   7.978   4.339  0.3316 -0.0669 -0.0569
29177W        W46024  13.786   6.125  12.671  0.2478 -0.0336 -0.0037
29178W        W46025   2.932  11.046   3.431  0.1811 -0.0385  0.1566
29179W        W46026  16.080   2.802  15.712  0.0643  0.0232  0.2211
29180W        W46027   4.121   2.477  14.797  0.1633  0.1464 -0.0115
29181W        W46028   7.106   3.804  16.447 -0.2732  0.0874  0.1134
29182W        W46029  15.465  10.222  12.307 -0.1827 -0.1623  0.3265
29183W        W46030   8.923   7.721   2.594 -0.3004  0.2762  0.4334
29184W        W46031  16.485  14.928   4.430 -0.1893 -0.1640  0.0416
29185W        W46032   4.992   7.198   5.926  0.1736  0.0898 -0.0121
29186W        W46033  13.471  15.016   4.411 -0.0166  0.2447  0.2883
29187W        W46034   5.917   3.103   2.734  0.0610 -0.1462 -0.1161
29188W        W46035  17.641   8.104   4.399 -0.1045 -0.1662 -0.2620
29189W        W46036  13.314  12.680   0.539 -0.0352  0.0422  0.0187
29190W        W46037   0.266  15.276  13.677  0.0940 -0.0207  0.2656
29191W        W46038   6.761   5.650  13.002 -0.1717  0.0574 -0.3707
29192W        W46039   0.018  15.263  14.149  0.1182  0.2363  0.1076
29193W        W46040  17.075  15.777   4.543  0.2410  0.0668 -0.0782
29194W        W46041   8.355  10.991   3.917 -0.0707 -0.2422 -0.1811
29195W        W46042  12.501   9.804  14.583  0.0941  0.1875  0.0141
29196W        W46043  12.711  16.273   0.684 -0.0013  0.1796  0.1066
29197W        W46044   9.675   8.338  16.275  0.0111  0.2375 -0.0781
29198W        W46045  11.368  14.516  14.568  0.0811 -0.2266 -0.3777
29199W        W46046  14.475   4.111  12.143  0.3417  0.0750 -0.1342
29200W        W46047  16.640   1.516   5.973 -0.1239  0.2411  0.0651
29201W        W46048  16.759   5.413   1.683  0.1584 -0.1646 -0.0182
29202W        W46049   4.437   1.093  11.860 -0.0226 -0.0398  0.1967
29203W        W46050   1.230   0.829  13.856  0.1719 -0.0920  0.4015
29204W        W46051  17.377   1.560   2.219 -0.1130 -0.2254 -0.0714
29205W        W46052   2.822   5.062   5.274 -0.3388  0.1693 -0.1261
29206W        W46053  16.323   3.003   1.390  0.2014  0.1032  0.3066
29207W        W46054  13.770  11.616   3.178  0.2258 -0.0775  0.1801
29208W        W46055   6.695   0.937   4.800  0.0254  0.0078  0.0250
29209W        W46056   5.609  11.923  16.606 -0.0171 -0.1984  0.0728
29210W        W46057  14.066  16.456  16.226  0.1196 -0.1056 -0.0333
29211W        W46058   7.877   7.107  14.327 -0.3072  0.1311 -0.4250
29212W        W46059  12.335  10.190  16.160  0.0405 -0.0930 -0.3557
29213W        W46060   9.374  10.146   0.136 -0.2763 -0.1965 -0.1012
29214W        W46061   9.926  14.344  13.448 -0.3795 -0.2266 -0.4758
29215W        W46062  10.364  14.188   3.118  0.0254  0.1704  0.1429
29216W        W46063  10.323  12.191   2.967 -0.1672  0.1042 -0.2557
29217W        W46064   1.881  13.888   3.296  0.3625 -0.0274  0.1085
29218W        W46065   0.763  13.306  13.188  0.2547  0.1242 -0.0785
29219W        W46066   7.081  11.526   1.649  0.2662  0.0863  0.0075
29220W        W46067   3.435   7.946  15.497 -0.1533 -0.0063  0.1757
29221W        W46068   3.255  12.787   1.325 -0.1227 -0.0009  0.0245
29222W        W46069  12.717   6.877   1.263  0.0287  0.0152  0.1569
29223W        W46070   4.088   7.083  12.965  0.2204  0.1306 -0.2044
29224W        W46071  13.277   8.911  14.945 -0.1891 -0.1264  0.2096
29225W        W46072  12.312   3.947   0.696  0.4016  0.2407  0.0528
29226W        W46073  16.666   3.851   0.386  0.4162 -0.0934 -0.1733
29227W        W46074  12.517  14.497   3.970  0.1164 -0.0239 -0.0493
29228W        W46075  16.089  15.685  13.536 -0.0368 -0.1225  0.0887
29229W        W46076   6.376  12.199  12.837 -0.4261  0.1012 -0.1991
29230W        W46077  13.722   7.611   4.809 -0.0656  0.2073  0.1924
29231W        W46078   2.353   4.942   1.759 -0.2224  0.2948 -0.1862
29232W        W46079   1.554   4.754   5.229 -0.0629  0.1834 -0.1493
29233W        W46080   8.894   8.077  13.236 -0.0578  0.0526 -0.1824
29234W        W46081   1.218   6.861  13.460 -0.2323 -0.1619 -0.1884
29235W        W46082   5.355   8.177   5.484 -0.2298 -0.2046  0.1864
29236W        W46083  11.998   3.836  16.649  0.1084 -0.0575 -0.1266
29237W        W46084  17.607  10.259   2.468  0.3678  0.1457  0.2146
29238W        W46085  14.215  11.596   2.893  0.0379 -0.0278 -0.1590
29239W        W46086  16.768   8.652   3.764 -0.1526 -0.0348  0.0588
29240W        W46087   0.173   2.282  16.350  0.0876 -0.1340 -0.3127
29241W        W46088   5.077   2.964   6.143 -0.1599  0.5085 -0.0192
29242W        W46089  11.797   7.267   5.405  0.0143 -0.1710 -0.1973
29243W        W46090  12.067  16.495   2.497 -0.1847 -0.1288 -0.0605
29244W        W46091   1.135  15.016   2.980  0.1642 -0.0816  0.0964
29245W        W46092   6.528  10.160   3.185  0.3110  0.0645  0.0458
29246W        W46093   6.853   6.155   3.604  0.1561 -0.2012  0.1619
29247W        W46094   8.469   5.256  14.740  0.1210  0.0211  0.0247
29248W        W46095   4.159   2.624   1.081 -0.0264 -0.0606  0.2338
29249W        W46096   4.095   9.375   1.736  0.0961 -0.0204  0.0085
29250W        W46097  10.487   8.125  12.290 -0.0180 -0.2751  0.1446
29251W        W46098  11.578  13.476  13.150  0.1645 -0.1083  0.0344
29252W        W46099  15.930   0.123  14.245 -0.1271 -0.0419 -0.3318
29253W        W46100   8.129  15.585   3.651 -0.1086 -0.1153  0.0652
29254W        W46101   0.600  12.634  14.874  0.0648 -0.0877  0.1703
29255W        W46102  12.843  12.185  15.437 -0.1210 -0.0366  0.0798
29256W        W46103  12.043   8.290  13.839  0.0565  0.2540 -0.1070
29257W        W46104   8.804   4.053  11.979 -0.1941 -0.0191 -0.0020
29258W        W46105   2.446  11.780   2.952  0.1707  0.1168 -0.0938
29259W        W46106   5.592  14.432   0.356 -0.0248 -0.1158  0.0378
29260W        W46107   7.012   6.144   4.459 -0.5247  0.1363  0.2886
29261W        W46108  15.784  13.810   1.440 -0.1306 -0.1993 -0.2108
29262W        W46109  12.197  10.515  13.138 -0.2354 -0.0154  0.4652
29263W        W46110   7.343   3.498  12.754 -0.0414  0.1278 -0.3714
29264W        W46111   7.544   4.872  13.046 -0.1828  0.1788 -0.2505
29265W        W46112   6.991   0.486  14.077  0.0399  0.0302 -0.2135
29266W        W46113   3.812   4.553  11.854  0.0177 -0.1073 -0.4237
29267W        W46114  13.149   5.367  15.769 -0.3778  0.1345 -0.1918
29268W        W46115   5.130  13.875   5.813 -0.0104  0.0522 -0.0855
29269W        W46116  13.857  12.366  13.682  0.0008 -0.0808 -0.1253
29270W        W46117   8.612   3.766   1.675 -0.0803  0.0553 -0.2484
29271W        W46118  13.746  15.434   0.958 -0.0466  0.1678 -0.0248
29272W        W46119   8.807   4.214  16.335 -0.0578  0.0786  0.1827
29273W        W46120  17.413  17.497   0.461 -0.0692 -0.0958  0.0901
29274W        W46121  14.434  10.086  15.659  0.3446  0.0141  0.2597
29275W        W46122   9.034   4.560   4.987  0.0437 -0.0968 -0.0702
29276W        W46123   4.224   3.819  12.860  0.2209  0.1498  0.1436
29277W        W46124  14.938   0.856  12.830 -0.1697 -0.1026  0.3366
29278W        W46125   0.685  14.902   1.091 -0.0822  0.1648 -0.1538
29279W        W46126  11.378  11.646   4.696  0.0440 -0.1227 -0.2529
29280W        W46127  14.557   2.835   2.680  0.0027  0.0524  0.0523
29281W        W46128  10.068  13.569   5.120 -0.1680  0.0980  0.0510
29282W        W46129  12.670   5.892  16.784  0.2173 -0.1183 -0.2950
29283W        W46130   0.951   1.490  15.567 -0.0138  0.3164 -0.3307
29284W        W46131  11.543  12.266  14.858 -0.3058 -0.1351  0.0773
29285W        W46132   5.956   1.666  12.025  0.0025  0.0521  0.0580
29286W        W46133   3.182   0.328   5.381  0.0653  0.0529 -0.0381
29287W        W46134  15.216   5.192  16.055  0.1255  0.1334 -0.2089
29288W        W46135   8.058  10.693  13.401 -0.1625 -0.0120 -0.1554
29289W        W46136   0.214   3.211   5.108  0.2199  0.1596 -0.0898
29290W        W46137   8.616  11.857   3.950 -0.1849  0.1937 -0.0981
29291W        W46138   1.517  17.043   0.605 -0.1356  0.2166  0.0928
29292W        W46139  10.702   1.240   5.356  0.1701  0.2064 -0.1531
29293W        W46140   4.464   4.172  16.152  0.1075  0.1442 -0.1479
29294W        W46141  15.343  11.751  14.849 -0.0540 -0.2825  0.0091
29295W        W46142  12.180   6.170  13.518  0.0848 -0.2096 -0.0207
29296W        W46143  17.285   8.250   5.303  0.0298  0.0570  0.4438
29297W        W46144   2.705   2.203  14.174 -0.0715  0.0779  0.0273
29298W        W46145  16.568   6.246   1.213 -0.0304  0.2315  0.2292
29299W        W46146  17.581  11.330   0.368  0.1108 -0.3015 -0.0138
29300W        W46147   9.049   3.161  14.348 -0.0329 -0.0889 -0.0033
29301W        W46148   2.825  16.887  12.761 -0.0830 -0.1182  0.2410
29302W        W46149  11.095   1.923  16.426  0.1421  0.0481 -0.2636
29303W        W46150  16.020  15.852  15.758  0.1982 -0.0340 -0.0170
29304W        W46151  11.945  16.702  14.023 -0.1007  0.0173  0.0768
29305W        W46152   9.223   6.454   1.570  0.2200  0.1577  0.3296
29306W        W46153  10.732   9.473   2.101  0.3165 -0.0909  0.1958
29307W        W46154   7.422   5.827   2.866 -0.0001 -0.0685 -0.0402
29308W        W46155  14.116   7.860  14.346 -0.1837 -0.2422 -0.0416
29309W        W46156  14.155  15.659  13.237 -0.0213  0.0050  0.1248
29310W        W46157   0.554   3.027  13.699 -0.0122 -0.2397  0.0097
29311W        W46158   8.441   2.314   1.185  0.0993  0.2317  0.2419
29312W        W46159   2.506  17.698   1.786  0.1342  0.2762 -0.0355
29313W        W46160  13.703   4.050   0.296  0.0614  0.2498 -0.0578
29314W        W46161  12.736   4.054   0.337  0.3247 -0.1495  0.2309
29315W        W46162  17.423  17.614  12.567 -0.1452  0.0812 -0.2138
29316W        W46163   0.720   1.998   3.091 -0.0589  0.1911  0.0525
29317W        W46164  12.431  12.771   0.369 -0.1536 -0.2580  0.1147
29318W        W46165   1.867   9.157   3.791 -0.2376  0.0864  0.1392
29319W        W46166  15.294   0.502   5.532 -0.1849 -0.1079  0.2972
29320W        W46167  12.039   8.556   0.100  0.2724  0.2812 -0.4980
29321W        W46168   5.211   8.807   2.350  0.0468 -0.2488 -0.2996
29322W        W46169   7.635  16.518  16.210 -0.0506 -0.0074 -0.1171
29323W        W46170  15.775   0.244  11.885 -0.0837  0.0050  0.1291
29324W        W46171   6.156  14.584   3.442 -0.2987  0.0615  0.0400
29325W        W46172  14.288   7.279   4.206 -0.0285 -0.1416  0.2150
29326W        W46173   6.497   6.548   0.304  0.0004 -0.0590  0.1745
29327W        W46174   2.244   2.568  10.830 -0.0107 -0.0309 -0.1300
29328W        W46175  17.154  10.813  12.340 -0.0801  0.1406 -0.0658
29329W        W46176   8.616   0.809  12.162 -0.4834  0.0094 -0.0890
29330W        W46177  12.819  10.948   1.823  0.0932  0.1951  0.0081
29331W        W46178   8.091   8.531   5.424 -0.4124  0.3347 -0.3477
29332W        W46179  10.246   1.741   0.193 -0.0095 -0.1382  0.2159
29333W        W46180  11.111   8.893  15.781  0.0596  0.2198 -0.0673
29334W        W46181   9.339   2.246   3.819  0.1574 -0.3605  0.2588
29335W        W46182   0.431   5.882  14.703 -0.0378  0.1243 -0.0199
29336W        W46183  12.247  13.977   5.719  0.0694  0.1017  0.1676
29337W        W46184  10.249   9.855  13.704  0.1867 -0.0084  0.2740
29338W        W46185   2.740   6.191   1.275 -0.1248  0.1739 -0.2617
29339W        W46186  10.420   0.653   2.961 -0.2885 -0.2094  0.3253
29340W        W46187  10.266   4.880   2.895 -0.0884 -0.1185  0.0532
29341W        W46188  13.339   9.691   0.649 -0.2240 -0.3460 -0.2271
29342W        W46189  17.698  15.086   3.897 -0.0893  0.0912  0.1409
29343W        W46190   2.097   7.798  16.215  0.1989  0.0824  0.2643
29344W        W46191  12.942   0.876   4.979 -0.0194  0.1664 -0.0267
29345W        W46192   7.551  10.223  12.788  0.2267 -0.2349  0.0448
29346W        W46193   9.856  10.291   0.194  0.1774  0.1536 -0.1983
29347W        W46194   9.507   2.381  13.832 -0.1496  0.0012  0.1342
29348W        W46195   1.373  14.868   1.633  0.0094  0.0828  0.2240
29349W        W46196   9.153  16.378   1.440 -0.1081  0.0455  0.0364
29350W        W46197   4.086   3.615   2.453  0.2453 -0.0436  0.1196
29351W        W46198   3.345  17.866   5.060  0.0626  0.2223 -0.1578
29352W        W46199   1.696  15.697   5.171  0.2373 -0.4189  0.2774
29353W        W46200  14.084  11.074  13.465  0.0128  0.0782  0.0012
29354W        W46201  14.579   6.094   1.329  0.0925 -0.0711  0.0100
29355W        W46202   2.253   5.329  12.540 -0.1208  0.0797 -0.3077
29356W        W46203   5.807  14.096   2.339 -0.0230 -0.1602  0.1226
29357W        W46204   1.076  12.170  14.100 -0.1145  0.2652 -0.1845
29358W        W46205  13.541   5.775   0.596  0.1132 -0.2355 -0.2056
29359W        W46206   8.547   3.581   0.301  0.2805  0.0352  0.0331
29360W        W46207  12.324  11.586  15.466  0.0527 -0.0975 -0.1089
29361W        W46208   1.722   0.117  11.916 -0.1463  0.0530 -0.0227
29362W        W46209   3.481  14.382  13.480  0.1585 -0.2377 -0.0088
29363W        W46210   4.993   9.506  13.634  0.2205 -0.0173  0.0528
29364W        W46211   7.378  11.211   3.749 -0.2086 -0.1713  0.5477
29365W        W46212   1.889  10.166   1.161 -0.0016 -0.0635 -0.1514
29366W        W46213  17.160   6.327   2.475  0.2089  0.1696  0.2939
29367W        W46214  12.243  10.020  11.934  0.1744  0.0470 -0.0796
29368W        W46215   6.036   0.998   0.396  0.2443 -0.3099  0.1861
29369W        W46216   3.790  16.250   3.564  0.0893  0.1544 -0.1908
29370W        W46217  17.130   1.140   2.243 -0.1719 -0.2639 -0.3544
29371W        W46218   4.115   0.896  16.568  0.0410 -0.0213  0.1571
29372W        W46219   0.574  14.368  13.303  0.0966 -0.0090 -0.0030
29373W        W46220  13.742  15.490  16.687 -0.0524 -0.3754  0.0656
29374W        W46221   9.979  12.670  12.521  0.3051  0.1821 -0.0229
29375W        W46222   9.648  13.395   1.504  0.1843  0.1718  0.1579
29376W        W46223  14.978   7.798   2.737 -0.2166  0.0273  0.0023
29377W        W46224   5.021  16.877   4.314  0.2327  0.1042  0.0909
29378W        W46225   4.436  13.860  14.388 -0.1620  0.0186  0.2279
29379W        W46226   3.433   3.995  13.515 -0.0184 -0.0594 -0.0163
29380W        W46227   9.314   5.405   4.239 -0.2486 -0.0284  0.0948
29381W        W46228   0.917  16.506   4.879  0.3303 -0.0915  0.0731
29382W        W46229  16.589   8.963   2.142 -0.2638  0.0229  0.0133
29383W        W46230  10.150  14.948  13.721  0.0303 -0.4099  0.1251
29384W        W46231  13.340   4.475  15.386 -0.1342  0.0158 -0.0869
29385W        W46232   7.120   7.955  14.818  0.0347  0.2200 -0.0157
29386W        W46233   9.409   0.013  15.146  0.2423  0.0226  0.1380
29387W        W46234   9.810  15.544   3.757 -0.0003 -0.3843 -0.0833
29388W        W46235  13.947  15.829  15.348  0.3516  0.0572 -0.0037
29389W        W46236   4.077  10.885  12.128  0.1551  0.1162  0.3104
29390W        W46237  16.909  17.337   0.628 -0.0864 -0.1007 -0.2819
29391W        W46238   5.652  16.766   5.449 -0.1907 -0.0589  0.2475
29392W        W46239  11.353   8.954  13.989  0.1246  0.2557 -0.1740
29393W        W46240   1.652  17.879   1.081  0.3354  0.0479  0.0185
29394W        W46241  12.119  12.445  11.979  0.1600 -0.0292 -0.1114
29395W        W46242   6.641   8.389  15.364  0.0902 -0.1322  0.2879
29396W        W46243  12.984  17.908   1.560 -0.0718 -0.2991 -0.0825
29397W        W46244   4.379   6.614   2.880 -0.2237  0.0634 -0.0782
29398W        W46245  13.879   1.682   2.644  0.0875  0.3090  0.4058
29399W        W46246  17.477  12.611  15.876  0.2298  0.0900 -0.1662
29400W        W46247   5.850   2.304  14.849  0.1536  0.0309 -0.0554
29401W        W46248   6.164  13.984  12.203 -0.0431 -0.0254 -0.3957
29402W        W46249  14.002   3.378  16.193  0.2691  0.0743 -0.2147
29403W        W46250   7.334   8.783  16.027  0.0038 -0.2312 -0.1371
29404W        W46251  15.879  16.977   0.768  0.2797  0.0765  0.1198
29405W        W46252   0.217   6.583   4.538  0.3014 -0.3193  0.0011
29406W        W46253  16.230   9.474   1.952  0.0637  0.0924  0.0122
29407W        W46254   8.218   8.425  16.660  0.1267 -0.0333  0.0573
29408W        W46255  14.578   6.738   4.047  0.3795 -0.1734  0.5290
29409W        W46256   3.659   6.701   1.755  0.1468 -0.2031 -0.0444
29410W        W46257   5.957   5.736   0.535  0.2290 -0.2400  0.1808
29411W        W46258  13.380   7.042  12.696 -0.2235 -0.0087 -0.2167
29412W        W46259   4.516  13.586  13.172  0.2185  0.0215 -0.0987
29413W        W46260  11.779  11.231  13.539 -0.1035 -0.3690 -0.0679
29414W        W46261  16.692  14.347  15.673  0.0419  0.0932 -0.0850
29415W        W46262   5.756   8.137  11.590  0.1650  0.0306 -0.0532
29416W        W46263   9.403   7.440   0.724  0.0057  0.0094 -0.1983
29417W        W46264  17.019   4.357   5.042 -0.1138 -0.0835  0.5225
29418W        W46265  15.831   6.799   5.656 -0.0647 -0.0482 -0.0186
29419W        W46266   0.937   1.023  12.381  0.2947 -0.2182 -0.3270
29420W        W46267   3.813  14.336   6.240  0.0311 -0.0538 -0.1691
29421W        W46268   5.402  10.948  14.526 -0.2265  0.3749  0.2125
29422W        W46269   0.920  13.014   2.069  0.0625  0.0606 -0.3053
29423W        W46270   9.986   3.840   3.095  0.2795 -0.1725 -0.1933
29424W        W46271  12.091  17.581  12.196  0.2782  0.0478  0.3412
29425W        W46272  15.833  15.473  12.647 -0.2705 -0.1168  0.0823
29426W        W46273   6.512  14.838  15.207  0.1769  0.0857 -0.1644
29427W        W46274   6.715   1.288  15.772  0.0369  0.0291  0.0161
29428W        W46275  17.157   3.920   2.315  0.0167 -0.1091 -0.0463
29429W        W46276   3.294  12.172  16.774  0.2791 -0.1358 -0.0678
29430W        W46277  15.630  16.378  16.076  0.1512  0.3072  0.2379
29431W        W46278   1.346   9.048  14.660  0.1511  0.0129  0.1148
29432W        W46279   8.908  13.620  15.993  0.0482  0.1902 -0.1348
29433W        W46280  17.529  16.682   3.046  0.0240 -0.0383  0.0319
29434W        W46281   5.211  15.219   5.575 -0.3382 -0.1392 -0.1443
29435W        W46282   4.357  13.490  11.804 -0.0266  0.2098 -0.4691
29436W        W46283  16.496   7.922  14.202 -0.1624  0.1827  0.2897
29437W        W46284  14.588  14.442  16.703  0.0094 -0.0031  0.0595
29438W        W46285   1.804   3.808  12.822  0.1344 -0.0359  0.0458
29439W        W46286  15.620  14.532  14.703 -0.1454  0.2062  0.2536
29440W        W46287  15.190   0.313   1.910 -0.2278  0.1911 -0.1171
29441W        W46288   3.881  10.636  12.856 -0.0015 -0.0935 -0.0777
29442W        W46289  14.403  17.551  14.529  0.2732 -0.1652  0.0689
29443W        W46290   4.096   8.990  15.080 -0.0954  0.0204 -0.2564
29444W        W46291   0.091   8.737   0.675 -0.2246 -0.0040 -0.0681
29445W        W46292   9.415  14.023   1.485 -0.0535 -0.0643  0.2839
29446W        W46293  17.068  13.270  11.693 -0.2882 -0.2265 -0.1240
29447W        W46294   3.243  15.263   1.300 -0.3281 -0.0885 -0.0944
29448W        W46295  13.995  16.618   4.106 -0.0681 -0.3187  0.3354
29449W        W46296   2.684   5.552   2.647  0.0961 -0.0743  0.3674
29450W        W46297  13.657   4.252   1.870 -0.2344  0.0333  0.3582
29451W        W46298   4.924   5.168  12.156 -0.0877  0.1749  0.0139
29452W        W46299   1.060  15.485   5.671 -0.0254  0.0162  0.2124
29453W        W46300  13.999  10.995  14.763  0.0130  0.2519  0.2823
29454W        W46301   6.179  10.168   4.458 -0.0620  0.1296 -0.0123
29455W        W46302   3.118   2.232   2.854 -0.0431 -0.1196 -0.1090
29456W        W46303   1.366  12.428  13.727  0.1649 -0.0329  0.1597
29457W        W46304   1.990  11.640   4.950 -0.0997  0.2280 -0.0335
29458W        W46305  13.705   3.658   2.180  0.1520 -0.0280 -0.1180
29459W        W46306  10.642   7.019  13.843 -0.0815  0.1222 -0.0606
29460W        W46307   9.733  15.301  13.776  0.3396 -0.0679  0.2033
29461W        W46308   4.200   2.059  13.937 -0.0790 -0.1116 -0.0500
29462W        W46309   9.173   3.408  14.755 -0.0273 -0.1401  0.2524
29463W        W46310   4.348  14.972   0.706 -0.1060 -0.1424 -0.1030
29464W        W46311   0.730  14.281   4.285  0.2429 -0.3165 -0.2273
29465W        W46312   1.707   5.963   3.940  0.1460  0.1397  0.1704
29466W        W46313   8.154  14.290   0.950 -0.0446 -0.2002 -0.2303
29467W        W46314   3.406   2.047  14.587  0.0217 -0.0096 -0.1055
29468W        W46315  12.632   8.479   4.966 -0.0364 -0.2157  0.0515
29469W        W46316  10.126   3.836  12.905 -0.1217 -0.1817  0.0304
29470W        W46317   7.688   3.987  12.873 -0.1620 -0.5156  0.0051
29471W        W46318   0.884   4.607   0.844 -0.0550  0.4006  0.3753
29472W        W46319   6.644   2.418   2.618  0.1022 -0.1961  0.2346
29473W        W46320   3.931   1.524   2.591  0.0243 -0.1215 -0.1170
29474W        W46321   8.334   9.458   4.761 -0.0337 -0.0740 -0.0527
29475W        W46322   6.569   4.653   3.647  0.1779  0.1552 -0.1963
29476W        W46323  16.780  14.026  12.369 -0.1247 -0.2345 -0.0357
29477W        W46324   7.038   4.423   2.765 -0.0929  0.0299 -0.0761
29478W        W46325  17.446  11.756  12.354 -0.2092 -0.0560 -0.0925
29479W        W46326  10.235   4.310   1.646 -0.0056 -0.2798 -0.1690
29480W        W46327   4.286   3.041  16.130 -0.0678  0.1109  0.1099
29481W        W46328  12.291   8.113   5.142  0.1128 -0.0663  0.1483
29482W        W46329  16.687  11.890  13.600  0.1861 -0.2609  0.2008
29483W        W46330   9.497   7.446  14.434  0.3560 -0.2144  0.0544
29484W        W46331   1.267  15.490   0.126  0.0067 -0.1269 -0.0891
29485W        W46332  15.348   1.447   0.279  0.0669 -0.1461 -0.2742
29486W        W46333   8.935   6.432   5.062  0.1842  0.0690  0.3250
29487W        W46334   5.856   0.696  11.778 -0.0678  0.0499  0.0833
29488W        W46335  16.685   5.199  14.056 -0.1373  0.1620  0.1565
29489W        W46336   9.095  11.294   3.476  0.0357  0.1590  0.0977
29490W        W46337   3.287   9.071   4.006  0.1507  0.3918  0.0559
29491W        W46338  12.717  13.577   5.743  0.2784 -0.0258  0.0477
29492W        W46339   1.199   3.082   5.940 -0.2176  0.0428  0.0186
29493W        W46340   9.124   8.081  13.942  0.1799 -0.1947 -0.0487
29494W        W46341  10.285   6.427  15.671  0.1123 -0.3315  0.1736
29495W        W46342  10.283   4.154   0.062  0.1021 -0.0762 -0.0245
29496W        W46343  15.504  13.743  15.376 -0.0983  0.1144 -0.2778
29497W        W46344   0.246   9.086   4.412 -0.3941  0.1274 -0.0395
29498W        W46345   2.260   8.436  13.295  0.2909  0.0014 -0.0785
29499W        W46346  13.989   8.293  15.303  0.1593  0.0613 -0.2920
29500W        W46347  13.082   0.512   4.098 -0.0822 -0.2566  0.1117
29501W        W46348   5.182  13.408   5.678 -0.1393  0.3800  0.1496
29502W        W46349  15.338  10.211  16.257 -0.2222  0.0298  0.0558
29503W        W46350  14.970  17.385   1.982 -0.1533 -0.1107  0.1359
29504W        W46351  15.788   8.709  16.348  0.0930  0.0917  0.2841
29505W        W46352   4.484   0.862   1.435  0.0185 -0.1108 -0.0707
29506W        W46353   9.459   6.573   4.261  0.3228 -0.0275 -0.2578
29507W        W46354  15.108  13.101  13.100  0.1052  0.2128  0.0626
29508W        W46355  16.156  11.010   4.235 -0.1070 -0.0529  0.0763
29509W        W46356  10.301   5.425  14.589  0.0342 -0.2375 -0.0758
29510W        W46357  15.881   7.607   0.192  0.1089 -0.1338  0.0298
29511W        W46358   1.179   5.873   3.705  0.1445 -0.2521  0.4578
29512W        W46359   4.435   0.637  13.885  0.1696  0.1698 -0.1664
29513W        W46360  13.433  14.651  12.258 -0.2130  0.2148 -0.1005
29514W        W46361   3.532  12.182  14.393 -0.1294 -0.1206  0.3538
29515W        W46362  10.901   2.539  13.098 -0.2140 -0.3905  0.0610
29516W        W46363   2.027   4.440  14.702 -0.1744  0.0640 -0.2923
29517W        W46364   9.061   3.003   1.348 -0.2862  0.0806  0.1941
29518W        W46365   2.684   4.579  13.354  0.2535  0.0430  0.1037
29519W        W46366   4.293   2.874   4.210  0.1075 -0.1745  0.0629
29520W        W46367   8.533  17.563  13.225  0.1511  0.0995  0.3800
29521W        W46368   5.875   9.515   1.398 -0.1727  0.0022  0.2556
29522W        W46369   2.047  12.119  11.686  0.3576  0.0415  0.1194
29523W        W46370  11.732  10.364  13.233  0.2047  0.0117  0.0103
29524W        W46371  10.864  15.416   1.992  0.2484  0.1231 -0.1318
29525W        W46372   2.538  16.918  13.160 -0.0704 -0.1914  0.1049
29526W        W46373  12.658   9.687   2.622 -0.0086  0.1863 -0.1598
29527W        W46374  17.184  10.031  15.576 -0.2171 -0.1032 -0.0514
29528W        W46375  17.130   7.242  14.548 -0.0149 -0.0825  0.0092
29529W        W46376   3.759  11.550  16.473  0.0720  0.0008 -0.0379
29530W        W46377  16.260  11.890  13.878  0.3502  0.0945  0.1000
29531W        W46378   4.544  11.519   1.532  0.0870  0.2109 -0.2437
29532W        W46379  17.037  11.236   5.259  0.1377  0.0114 -0.3446
29533W        W46380  12.968  14.631   2.189 -0.0650 -0.2383  0.2855
29534W        W46381   5.363   8.926   3.857  0.1655 -0.0355  0.2768
29535W        W46382   8.293  14.037  10.830 -0.1817 -0.0079  0.0222
29536W        W46383   8.157  12.136   3.078  0.0097 -0.1589  0.0294
29537W        W46384   2.035   7.186   1.168 -0.0242 -0.0972  0.2571
29538W        W46385  12.089   0.168  12.181  0.1932 -0.1285  0.0532
29539W        W46386   0.010   4.455   1.675  0.1197 -0.2877  0.2198
29540W        W46387   7.371  11.085  14.546  0.2914  0.0526 -0.2791
29541W        W46388   9.204   5.793   1.941 -0.0350 -0.2473  0.2133
29542W        W46389   1.436   2.200   1.954 -0.1012 -0.0499  0.2035
29543W        W46390  17.229  16.489   3.437  0.2436 -0.1377 -0.1135
29544W        W46391  14.039   1.524   5.240  0.3433 -0.0455  0.0900
29545W        W46392   2.585  17.070  14.076  0.0264 -0.0138 -0.0567
29546W        W46393  10.035   3.319   4.970  0.1371 -0.0884  0.2913
29547W        W46394  17.559   2.473   3.017 -0.0273  0.2274  0.2438
29548W        W46395   8.954   7.680   0.621 -0.0646 -0.0969  0.0000
29549W        W46396   7.626   4.154  15.552  0.1155 -0.0294  0.1496
29550W        W46397   9.394  15.787   0.059  0.1386  0.1035  0.2096
29551W        W46398   1.788   7.016   2.051  0.1684  0.1828  0.0270
29552W        W46399  16.491   7.251   1.019  0.2029  0.1084  0.2047
29553W        W46400   7.280  12.330  12.274 -0.3251 -0.1789  0.0824
29554W        W46401   9.728  12.615   1.081 -0.0770  0.0381 -0.1632
29555W        W46402   7.514  13.705   1.487 -0.1449  0.1809  0.1933
29556W        W46403  10.521  17.295  15.568  0.0469 -0.0001 -0.2357
29557W        W46404   2.292   7.461  12.764  0.0946  0.3056  0.1896
29558W        W46405  15.992  13.042   2.870  0.1770  0.0320  0.0693
29559W        W46406   4.337   1.264   3.029 -0.1042 -0.2422  0.2680
29560W        W46407  13.065   2.009   2.526 -0.0584  0.1344 -0.0505
29561W        W46408  13.229  15.312  15.229 -0.0952 -0.1904  0.1744
29562W        W46409   7.546   2.347  15.588  0.2746 -0.1969  0.0756
29563W        W46410   2.903   0.950   0.533 -0.0946  0.1849  0.2166
29564W        W46411  13.064   1.692  11.712  0.2445 -0.0968  0.0896
29565W        W46412   1.630  15.747  14.456 -0.4306 -0.1280 -0.0063
29566W        W46413   4.224  13.239   3.806  0.1237  0.0264  0.2826
29567W        W46414   5.568   4.689   4.803  0.0947  0.0284 -0.0948
29568W        W46415  12.055   0.249   3.922 -0.0806  0.2582 -0.1400
29569W        W46416  10.190  11.686   3.892  0.0714  0.1823  0.3317
29570W        W46417  10.449  16.516   0.887  0.0377  0.0749  0.0269
29571W        W46418  16.523  15.588  14.304 -0.0906 -0.3301 -0.1016
29572W        W46419  11.859  16.870   5.542  0.0280 -0.1221 -0.4253
29573W        W46420   7.920  12.188   1.627  0.0805  0.0532  0.0248
29574W        W46421   1.642  15.236  14.364  0.1467 -0.0501  0.1527
29575W        W46422  15.514   2.158  15.863  0.3090  0.1975  0.0778
29576W        W46423   7.098  14.191   5.123  0.1957 -0.0995  0.3473
29577W        W46424   4.850   7.917  15.465  0.0551 -0.2263  0.1366
29578W        W46425   4.241   8.442   0.861 -0.1360 -0.0548  0.2001
29579W        W46426  16.192  16.183  14.348 -0.0718 -0.0070 -0.0159
29580W        W46427  12.568  13.172  14.875 -0.0330  0.0321 -0.1135
29581W        W46428   4.476   6.828  13.311  0.0556  0.1511  0.0169
29582W        W46429   6.870  17.499   2.409 -0.1493  0.2933 -0.3057
29583W        W46430  12.629  12.007  16.298  0.2023 -0.0156  0.1107
29584W        W46431  12.776   0.095   2.468  0.1143 -0.0568  0.1936
29585W        W46432   5.965  15.341  12.161 -0.0070 -0.2548 -0.4510
29586W        W46433   5.288   5.394  15.671 -0.1535 -0.0987  0.1036
29587W        W46434   3.241  10.504  13.684  0.0183 -0.1965  0.0095
29588W        W46435   0.230   0.472   2.196  0.0775  0.0125 -0.1797
29589W        W46436   0.106  10.954   3.030  0.3154  0.0535  0.0813
29590W        W46437   0.647   0.051  13.274 -0.1889 -0.0512  0.2240
29591W        W46438  10.738   0.343  13.355  0.3558  0.0900 -0.2405
29592W        W46439   1.087  14.693  16.234 -0.0539 -0.3845 -0.2405
29593W        W46440   5.306   2.523   6.176 -0.1497 -0.0893 -0.0530
29594W        W46441  16.191   4.894  14.729  0.2638 -0.0463  0.0861
29595W        W46442   8.278   1.584   2.405  0.1083  0.0759 -0.1007
29596W        W46443   6.804  13.748   3.955  0.1130 -0.0859 -0.0097
29597W        W46444   8.317   2.824   1.823 -0.1091 -0.0196  0.0435
29598W        W46445  11.903  10.640  12.770  0.0010  0.1365 -0.2487
29599W        W46446  17.549  13.806   0.830 -0.3411  0.1535  0.0216
29600W        W46447   8.403  17.337   1.487 -0.3466 -0.0944 -0.0011
29601W        W46448  13.435   2.020   4.662 -0.1016  0.2167  0.0832
29602W        W46449  11.153  12.780   5.274  0.3013  0.0299 -0.1720
29603W        W46450   0.824  16.792   2.706 -0.2606  0.1355  0.2710
29604W        W46451  12.643  16.355   5.274  0.1831 -0.1718 -0.1179
29605W        W46452   7.783   9.893   3.292  0.0443  0.1294 -0.1023
29606W        W46453   4.800   2.334  16.553  0.0413 -0.1763 -0.0626
29607W        W46454  10.404   8.408  14.802  0.0134 -0.0708  0.0502
29608W        W46455   8.564   9.651  16.358 -0.0553  0.0354 -0.5765
29609W        W46456   5.821  11.017  16.430  0.3373  0.2256  0.0077
29610W        W46457   6.754  11.737   6.148 -0.1303  0.3593  0.2847
29611W        W46458   7.667   6.880  13.812 -0.1052 -0.1342 -0.0816
29612W        W46459   6.485   2.656  11.664 -0.2824 -0.3074  0.0434
29613W        W46460  15.810  12.177   5.161 -0.1665 -0.1404 -0.2081
29614W        W46461  17.125  14.002   1.088 -0.0235  0.0901  0.0223
29615W        W46462   0.495   9.268   2.552 -0.1780 -0.3006 -0.3330
29616W        W46463   1.495  16.723  14.118 -0.0337 -0.0387 -0.2267
29617W        W46464  15.604  15.360  16.292 -0.0015 -0.1519 -0.2570
29618W        W46465  11.046   5.395   2.214  0.0998  0.1878 -0.2512
29619W        W46466  17.400  14.397   1.235 -0.4434 -0.1163  0.1065
29620W        W46467   6.383  14.799   5.284 -0.0649  0.2177 -0.1843
29621W        W46468   0.817   2.099   0.233  0.1030  0.2342  0.1116
29622W        W46469  15.013   9.977   3.761  0.1954 -0.3819  0.0734
29623W        W46470   3.821  15.614  16.417  0.4079 -0.2945  0.3425
29624W        W46471   1.671   7.164  14.334 -0.1357 -0.0895 -0.0118
29625W        W46472  16.210   4.534  15.963 -0.5315 -0.0013  0.2243
29626W        W46473   4.218   1.523  13.355 -0.0789  0.1666  0.1371
29627W        W46474  10.230   2.733  16.082  0.0800 -0.1963 -0.1152
29628W        W46475  12.405  11.809   1.431 -0.0768 -0.0297 -0.2177
29629W        W46476  14.237   2.275   1.323 -0.0089 -0.0899 -0.2656
29630W        W46477   8.086   7.620  16.216  0.1045 -0.0921  0.3996
29631W        W46478   9.245  10.110   4.335  0.1297 -0.0299 -0.1398
29632W        W46479  16.005   4.313  15.000 -0.1579  0.0680 -0.1721
29633W        W46480  16.429   1.984   3.797  0.0868  0.1470 -0.0036
29634W        W46481  15.241  11.778   4.743 -0.3444 -0.0077  0.1768
29635W        W46482   6.331   0.550   2.157 -0.0684 -0.2269  0.0154
29636W        W46483   8.340  17.809   5.632  0.0518  0.2929  0.1633
29637W        W46484   4.892  17.041   5.076 -0.0775  0.1016  0.0397
29638W        W46485   7.641   0.309  11.503 -0.0365  0.2376  0.1041
29639W        W46486   3.980   0.836  11.766  0.2166  0.0560  0.2390
29640W        W46487   9.891  10.672  16.140  0.2824 -0.0214 -0.3269
29641W        W46488  17.804   5.331  14.716  0.1757 -0.3797  0.0423
29642W        W46489   3.793  17.172  13.193  0.1942 -0.0156 -0.2500
29643W        W46490  17.485   7.642  14.373 -0.3469  0.2360  0.0475
29644W        W46491  16.619   4.612  12.934  0.1348 -0.0350  0.0432
29645W        W46492   1.431  10.622  13.410  0.2629  0.1889 -0.0100
29646W        W46493   9.023  16.806  12.035 -0.0526 -0.1105 -0.1132
29647W        W46494  13.257   0.177  12.423  0.0470 -0.5532 -0.1231
29648W        W46495  10.461   4.160   2.270  0.1789 -0.0674 -0.0625
29649W        W46496  12.403  10.926   3.276 -0.1032 -0.0830  0.1190
29650W        W46497  12.179   7.851  12.563  0.1488 -0.1253  0.0587
29651W        W46498  16.517  17.261   1.463  0.0257  0.3066 -0.0595
29652W        W46499   9.779  17.307  14.611  0.0081 -0.0002  0.0016
29653W        W46500  14.895   3.653   2.136 -0.0466 -0.0763  0.0723
29654W        W46501   8.994   4.172  15.637 -0.3298  0.2290 -0.0044
29655W        W46502   1.188   3.001   0.372 -0.0392  0.1172 -0.0600
29656W        W46503  13.727   3.642  14.928 -0.1324 -0.0466  0.2145
29657W        W46504   3.905   3.589  11.810 -0.1113  0.3315  0.0135
29658W        W46505   7.730   3.694  12.466 -0.0566  0.0468  0.2397
29659W        W46506   9.426  12.722   3.755 -0.0949  0.0834 -0.2676
29660W        W46507  13.069  14.779   6.048 -0.0585 -0.0938 -0.0471
29661W        W46508  10.108   5.732   2.594 -0.1655  0.2671 -0.2440
29662W        W46509   3.853   2.940   2.270 -0.3131 -0.3293  0.0025
29663W        W46510  17.887   5.949  14.139 -0.0422  0.1948  0.3213
29664W        W46511  16.255  13.240   3.981  0.1479 -0.0639 -0.0625
29665W        W46512  16.005   1.928   4.312  0.1176 -0.2673 -0.1088
29666W        W46513  15.888   0.030  13.034 -0.0922  0.1753  0.0173
29667W        W46514   8.766  11.814  16.069 -0.0266  0.1325 -0.1323
29668W        W46515  10.266   8.393  15.799  0.0673 -0.2122 -0.2616
29669W        W46516  17.641   0.436  14.679 -0.1641  0.0004  0.1426
29670W        W46517  10.940   2.199   1.815  0.1841 -0.1894 -0.1030
29671W        W46518   8.286  14.783  12.676  0.1481 -0.0664 -0.0878
29672W        W46519   3.231   8.290  13.169  0.0970  0.0686 -0.2765
29673W        W46520   6.148   5.520   3.688  0.1903 -0.2488  0.0892
29674W        W46521  15.116   2.243   2.003  0.2551  0.3784  0.0892
29675W        W46522   8.662  17.143   4.517 -0.1138  0.3870  0.1651
29676W        W46523   4.206   4.586   1.204 -0.1073  0.4233 -0.1311
29677W        W46524   1.626  10.315   3.455  0.0620  0.3096 -0.5609
29678W        W46525   1.965   7.832  12.733 -0.4048 -0.0682  0.0796
29679W        W46526   6.027  16.140  16.540  0.0489 -0.0193  0.0503
29680W        W46527  11.467  15.045  15.308 -0.0526 -0.1033  0.0776
29681W        W46528   3.717   1.451   0.765 -0.2658 -0.3397  0.1636
29682W        W46529   8.465   6.528   3.128 -0.0349 -0.0723  0.0799
29683W        W46530   9.331   6.029  15.725  0.1622 -0.0556  0.1919
29684W        W46531  15.697   0.164   4.600  0.3910 -0.0166  0.2247
29685W        W46532  15.313  10.940   0.851  0.0040  0.6053 -0.0307
29686W        W46533  17.681  13.658   6.289  0.0064  0.0036  0.0040
29687W        W46534   1.223   2.246  16.225  0.1517  0.1023 -0.2095
29688W        W46535   6.540  15.009  14.759  0.2053  0.2825 -0.1215
29689W        W46536   5.522  16.715  15.398  0.1105 -0.1574  0.1636
29690W        W46537   8.762   9.625   3.957 -0.0556  0.0845  0.2485
29691W        W46538   6.420   4.545  15.415 -0.1965  0.1587  0.4401
29692W        W46539  13.599  11.793  15.641 -0.0151  0.0906  0.2483
29693W        W46540  15.208  16.186  16.530  0.1051 -0.0761  0.1432
29694W        W46541   6.070  11.522   4.678 -0.2300 -0.1319 -0.1755
29695W        W46542   1.940  10.730   0.874 -0.0912 -0.0317  0.0776
29696W        W46543  13.583  17.681  15.157 -0.0204 -0.0026 -0.0234
29697W        W46544  15.869  13.092  16.402 -0.2149 -0.0965 -0.0555
29698W        W46545   3.343  15.604   5.953  0.1635 -0.1373 -0.1389
29699W        W46546   8.792  17.605  13.698  0.2177  0.0037 -0.1978
29700W        W46547  10.981  10.149  10.589  0.1686  0.3171  0.0664
29701W        W46548   3.516  12.134   3.398 -0.1339 -0.2038  0.0143
29702W        W46549   2.488  10.217   2.149 -0.0659 -0.1530 -0.1442
29703W        W46550   7.208  16.792  13.865 -0.1082  0.0393 -0.2691
29704W        W46551  12.033   1.254   4.885 -0.0262  0.1783  0.0711
29705W        W46552  17.083   4.049  13.241 -0.3031 -0.2201 -0.1502
29706W        W46553  17.131  16.180   2.085 -0.2805  0.2975 -0.0622
29707W        W46554   3.247   8.585   4.601  0.1255  0.2858 -0.0545
29708W        W46555  13.809   5.153  12.965  0.0145 -0.0046 -0.1227
29709W        W46556   3.779  12.151   5.223  0.0160  0.0861  0.0943
29710W        W46557   2.998   0.402  15.166  0.1893  0.2639 -0.1215
29711W        W46558  17.910  13.217  16.510 -0.1839 -0.1079 -0.0476
29712W        W46559  15.797   8.211   5.618  0.4185  0.5022  0.2407
29713W        W46560  12.643   6.882   2.667  0.0682  0.0763  0.1349
29714W        W46561   1.651  15.106  13.333  0.0065  0.0490  0.0894
29715W        W46562  15.303  17.889   3.763 -0.2099  0.1719 -0.4296
29716W        W46563   6.675   1.681  13.688  0.3681 -0.2326 -0.0725
29717W        W46564   2.870  10.860  13.802 -0.0255  0.2023 -0.0455
29718W        W46565   6.380   5.941  12.475  0.2198  0.1399  0.0251
29719W        W46566  14.619   2.948  14.280 -0.0034 -0.2264  0.1977
29720W        W46567   3.674  10.879  13.579 -0.0938 -0.2326  0.1729
29721W        W46568   2.828   4.155  13.578  0.0534  0.4236  0.1319
29722W        W46569   9.791  11.093  15.354  0.2871 -0.0331  0.0704
29723W        W46570  13.759   9.243  14.092 -0.1361  0.0977 -0.0040
29724W        W46571  15.733  10.671   3.534  0.1970  0.0811 -0.2868
29725W        W46572   2.630  11.903   5.546  0.1559 -0.0480  0.1418
29726W        W46573  15.045  15.407  14.545 -0.0483 -0.0706 -0.0909
29727W        W46574   7.744  11.260   2.850  0.0061 -0.0303  0.2192
29728W        W46575  13.117  17.443   4.378  0.1835 -0.2911  0.1096
29729W        W46576  10.525  13.165   0.521 -0.3043 -0.0202 -0.1081
29730W        W46577  10.431   4.509   0.402  0.3917 -0.2301  0.1715
29731W        W46578  17.920  17.304   0.384  0.2493 -0.2895 -0.2521
29732W        W46579   3.932  11.509  15.156 -0.3257  0.1548 -0.0118
29733W        W46580  13.116   7.418  11.828  0.0828  0.1722  0.1040
29734W        W46581   1.770   2.223  15.800 -0.1574  0.0367  0.0225
29735W        W46582   8.350  12.949   5.192  0.0318 -0.1935 -0.0949
29736W        W46583  12.299   2.704   4.514 -0.1631 -0.1998 -0.0184
29737W        W46584  11.781  15.908  12.565 -0.3366  0.3457  0.2077
29738W        W46585   3.390   0.864  16.040 -0.2245  0.0479 -0.0319
29739W        W46586  15.552  11.663  12.664 -0.1347 -0.2086  0.2089
29740W        W46587   0.037  17.950  15.293 -0.0343 -0.0939  0.0616
29741W        W46588  16.916   9.037   2.619 -0.0568 -0.1843 -0.1157
29742W        W46589   3.544  12.777   4.933 -0.1884 -0.0954 -0.1793
29743W        W46590   4.273   4.268   5.544  0.0875 -0.0486  0.1944
29744W        W46591  16.185  16.351  12.211  0.0236  0.3733 -0.0165
29745W        W46592  16.109  12.484   0.951  0.1254  0.1624 -0.1043
29746W        W46593  17.680   9.919  15.538  0.0629  0.0109 -0.0686
29747W        W46594   3.527   5.954  13.543 -0.1652  0.1408 -0.1668
29748W        W46595   5.477   3.557  13.640  0.1689  0.0172  0.1597
29749W        W46596   8.542  15.659   4.928 -0.1588  0.2334  0.2159
29750W        W46597  14.944   8.090   5.154  0.3304  0.0544 -0.1265
29751W        W46598   3.694   5.141   4.792 -0.0249  0.2575  0.3876
29752W        W46599   0.127  14.561  16.166  0.1786 -0.1995  0.0423
29753W        W46600  11.873  13.713   4.061 -0.1070  0.0593  0.1846
29754W        W46601  15.263  11.617  16.092 -0.1915 -0.2230 -0.1304
29755W        W46602  17.854   1.983   2.690  0.0618 -0.1182 -0.3849
29756W        W46603   8.013   0.070   2.009  0.2358 -0.1191 -0.1869
29757W        W46604   0.223   4.314   1.205  0.1176  0.2186  0.0441
29758W        W46605  10.280   2.342  13.087 -0.2245 -0.2295  0.1082
29759W        W46606  17.007   5.616   3.099  0.0652  0.1192 -0.0709
29760W        W46607   1.173  17.661   1.147  0.1491 -0.0477  0.1752
29761W        W46608  12.162   7.383  15.071  0.1841 -0.0258  0.2546
29762W        W46609  10.169   2.252   4.781  0.0387 -0.0470  0.1203
29763W        W46610  10.784   5.359  12.219 -0.0236  0.0141 -0.0431
29764W        W46611   6.261   7.560   0.610  0.2346 -0.1199 -0.3444
29765W        W46612  16.044  10.191  16.264  0.2526 -0.2945 -0.1022
29766W        W46613   7.329  13.092  13.567 -0.1000  0.3713  0.3384
29767W        W46614   0.424   5.027   4.689 -0.0180 -0.0164 -0.4398
29768W        W46615   6.027   5.087  12.079  0.2210  0.0628  0.2339
29769W        W46616   3.035  16.759   3.195  0.0805  0.2254 -0.0428
29770W        W46617  10.979   3.752   0.284 -0.0600 -0.0992 -0.0894
29771W        W46618   5.150  11.001   6.078 -0.0130 -0.4975 -0.2200
29772W        W46619   5.289   9.539  15.430 -0.0877  0.1633  0.2635
29773W        W46620   6.011   2.337  12.923  0.2061 -0.1456  0.1567
29774W        W46621   2.970  16.105  14.925 -0.0155 -0.0641  0.2088
29775W        W46622   4.559   8.130  12.056  0.1025 -0.1706  0.0213
29776W        W46623   6.306  17.458  12.313 -0.1814 -0.2002 -0.5605
29777W        W46624  11.521   4.367  14.224 -0.1800  0.2310  0.0105
29778W        W46625  16.351  10.697   1.742 -0.2465  0.0724  0.0957
29779W        W46626   3.713   6.233   4.201 -0.0645 -0.1831 -0.1995
29780W        W46627  13.956   2.207  11.896 -0.0965 -0.3480  0.0053
29781W        W46628   1.374   8.582  16.104 -0.1099 -0.0940  0.1202
29782W        W46629   1.756  12.945   4.343  0.4089 -0.0052  0.4603
29783W        W46630  12.450  14.208   4.933  0.0269  0.1298 -0.0475
29784W        W46631  16.131   8.243  11.397 -0.0813  0.1227 -0.0305
29785W        W46632   4.576  10.140  11.658  0.2031  0.0907  0.1791
29786W        W46633   4.212   7.508  12.792 -0.1505  0.1119  0.0084
29787W        W46634   9.751  13.976   4.324 -0.1635  0.2135 -0.1775
29788W        W46635  15.672  13.238  12.828  0.0254 -0.3612  0.3779
29789W        W46636   2.168   5.619   0.085  0.2680 -0.1710  0.0783
29790W        W46637   0.446   0.451  14.968  0.0045 -0.1025 -0.0059
29791W        W46638  16.623   1.314   1.670 -0.0752 -0.0191  0.2200
29792W        W46639   9.574   8.442   5.112 -0.0213  0.1826  0.0184
29793W        W46640  16.202  12.021   4.746 -0.1351 -0.0683  0.3100
29794W        W46641  13.247   2.595  14.547  0.0049 -0.1196  0.0645
29795W        W46642  16.784   7.661   1.008  0.1150 -0.3910 -0.4389
29796W        W46643  13.217   9.290  15.550 -0.1570 -0.2478  0.0924
29797W        W46644   2.427  16.147   3.536  0.1299 -0.0634 -0.1998
29798W        W46645  14.212   7.525  11.761 -0.3764 -0.0772  0.3677
29799W        W46646   1.178   9.468  14.308  0.0392 -0.0843  0.0273
29800W        W46647  11.072   9.152  15.342 -0.0752 -0.0012 -0.1438
29801W        W46648   7.030   7.310  12.695  0.4330  0.0997  0.2146
29802W        W46649   9.384   5.489  14.827  0.1809 -0.1542  0.0761
29803W        W46650  17.425   9.043   2.359  0.0272  0.1924  0.0830
29804W        W46651  17.305  16.222   4.866  0.1136 -0.1259  0.1053
29805W        W46652   3.992   1.971  14.876 -0.0662 -0.0402  0.2462
29806W        W46653  15.989   0.384   0.989 -0.1065 -0.3720 -0.0516
29807W        W46654   3.743   8.561   4.542 -0.1668  0.1156 -0.0476
29808W        W46655  11.714   7.991  11.320 -0.1388 -0.0888  0.0721
29809W        W46656  15.722   4.774   1.886  0.3997 -0.0830 -0.0243
29810W        W46657   2.597  13.040   4.037  0.0266 -0.2420  0.1091
29811W        W46658   6.280   0.977   4.491  0.0419 -0.0132 -0.0338
29812W        W46659   1.985   1.002  15.729 -0.2451 -0.1346 -0.0737
29813W        W46660  14.745   8.146   1.075 -0.2283  0.0290 -0.0532
29814W        W46661   7.633  10.573  15.311  0.0589 -0.1584 -0.1313
29815W        W46662   5.899  17.097  13.879 -0.1910  0.3811  0.1591
29816W        W46663   9.136   0.891  16.085 -0.0194 -0.0514  0.0655
29817W        W46664   2.128   5.081   4.213  0.0566 -0.0763  0.1046
29818W        W46665   9.978   5.946  12.108  0.0033  0.0555 -0.1781
29819W        W46666  16.714  15.984   4.278 -0.1353 -0.3134  0.2891
29820W        W46667   1.869   1.618   0.813  0.0959 -0.0553 -0.0564
29821W        W46668   7.496   5.617  15.653 -0.0448 -0.3060  0.0813
29822W        W46669  16.898  12.252  13.209 -0.1641 -0.1561 -0.2122
29823W        W46670   3.362   7.318  12.262 -0.0952  0.2344 -0.0554
29824W        W46671  10.296  16.045  15.313  0.2378  0.0288  0.2402
29825W        W46672  10.951   1.886   4.241 -0.0275 -0.0959  0.0371
29826W        W46673   3.494  17.077   5.097  0.0836  0.1327 -0.0711
29827W        W46674  17.425  15.965  15.075  0.0685 -0.2035  0.1137
29828W        W46675   6.011   0.859   1.916  0.0406 -0.2189  0.0500
29829W        W46676  12.830  11.279   0.846 -0.0355 -0.0796  0.0206
29830W        W46677  13.998  10.952   0.446  0.1221  0.0516 -0.0259
29831W        W46678   4.811   2.964   4.866  0.2609 -0.1596 -0.2144
29832W        W46679  14.840   2.465  13.411 -0.1189 -0.4606  0.1691
29833W        W46680  17.448   0.764   2.159 -0.2972 -0.1410  0.1563
29834W        W46681  11.708   1.451   5.552 -0.1145  0.4615  0.0948
29835W        W46682   3.539   5.057   2.720  0.1124 -0.1293  0.0916
29836W        W46683   8.133  16.206   2.322  0.0629 -0.0358  0.0875
29837W        W46684   8.823   2.993  11.621  0.1944 -0.2685 -0.2999
29838W        W46685   6.635   9.608   2.705 -0.1850  0.1562  0.0828
29839W        W46686   9.646  11.946   2.267  0.3180  0.1898 -0.0816
29840W        W46687   0.346  17.880  16.249  0.0634  0.0789  0.1708
29841W        W46688   6.706   6.545   4.466  0.0239  0.0719 -0.2218
29842W        W46689   2.752   4.171   4.785  0.0801 -0.0122 -0.1385
29843W        W46690   3.490  16.651   3.444  0.0126 -0.1058 -0.2504
29844W        W46691  17.441   8.220   2.911 -0.0446  0.1369 -0.0346
29845W        W46692   9.920   4.683  15.101  0.1587 -0.4379  0.2699
29846W        W46693   7.390  13.954   1.034 -0.0433  0.0543 -0.0351
29847W        W46694   4.214  10.972   6.100  0.1433 -0.0255  0.0733
29848W        W46695   1.650  16.575   1.869 -0.1162  0.0026 -0.0617
29849W        W46696   2.590   5.361  13.641  0.0080 -0.2250 -0.1579
29850W        W46697   3.065   1.847   3.189  0.0374  0.0943  0.0512
29851W        W46698   6.310  17.523   1.532 -0.0572 -0.3969  0.0001
29852W        W46699  14.066  10.630   5.265 -0.0075 -0.1211 -0.0345
29853W        W46700   1.004   3.725  15.369 -0.0748  0.0039  0.2291
29854W        W46701   0.911  12.241   3.914 -0.3087  0.2648  0.2367
29855W        W46702  12.206   9.388   2.644  0.2565 -0.1217  0.1719
29856W        W46703   3.014   9.525   5.008  0.2421 -0.0539  0.1082
29857W        W46704   1.665   8.759  14.334 -0.1852 -0.1731  0.0501
29858W        W46705   3.410  15.109  11.946 -0.0753  0.2399 -0.0516
29859W        W46706   8.193  11.888  16.193  0.2683 -0.1065  0.3267
29860W        W46707   2.694   3.278   0.933 -0.0499 -0.3087 -0.2318
29861W        W46708  17.895   4.405  13.775 -0.1106  0.0162  0.0545
29862W        W46709   4.549   5.393  13.954 -0.0282 -0.0420 -0.1616
29863W        W46710   2.715  12.037   4.338 -0.0516 -0.2346  0.0811
29864W        W46711   9.605   5.103  12.304  0.2581 -0.0368 -0.0973
29865W        W46712   0.902  13.183   0.365  0.1270 -0.1673  0.3141
29866W        W46713   5.958  11.954  13.841 -0.0758 -0.2070 -0.2506
29867W        W46714   2.923  11.332  13.597 -0.0863 -0.0529  0.0393
29868W        W46715  15.786   8.390  13.261 -0.1763 -0.1838  0.0668
29869W        W46716   4.836  17.823   0.410 -0.1326 -0.0260 -0.0819
29870W        W46717  16.518   0.862  14.550 -0.1116 -0.0400  0.2532
29871W        W46718   8.597   2.854   1.323 -0.1057  0.0804 -0.0290
29872W        W46719   8.696  17.367  11.728 -0.2127  0.1195  0.1178
29873W        W46720   1.457   3.521  10.297 -0.1887 -0.1562  0.0160
29874W        W46721  12.911   2.348  10.564  0.2694 -0.1739 -0.0535
29875W        W46722  12.704   7.205  13.587  0.2063  0.3424 -0.0018
29876W        W46723  10.770   4.102  16.100  0.1192 -0.3694  0.1366
29877W        W46724  14.670   5.820  14.974  0.0669 -0.0507 -0.0972
29878W        W46725  11.887   6.318  12.099 -0.0074 -0.3748  0.0669
29879W        W46726   1.226   8.266  13.987  0.2037 -0.0011  0.1376
29880W        W46727   3.111  12.342   3.539  0.0912  0.0236  0.0549
29881W        W46728   5.776   7.444   2.643 -0.1249 -0.1319  0.0856
29882W        W46729  16.038  17.745  15.129  0.0888  0.3773  0.1770
29883W        W46730  14.168  13.972   3.243 -0.0639 -0.1266  0.0584
29884W        W46731  17.434  15.712   4.924 -0.0388  0.0354  0.0304
29885W        W46732   6.155   9.265   3.337  0.1568  0.2146  0.1255
29886W        W46733   0.312   1.223   4.638 -0.0379  0.0497  0.1245
29887W        W46734   7.092   2.504   2.774  0.1571 -0.0104 -0.1391
29888W        W46735  12.294  17.519   5.924 -0.3604 -0.0311  0.0539
29889W        W46736  16.798   0.010  13.754 -0.0330  0.1118  0.0654
29890W        W46737  14.124  12.074   1.887 -0.1966  0.1764 -0.1827
29891W        W46738   7.392   5.873  12.817 -0.0972 -0.1581 -0.1040
29892W        W46739   6.139   7.742   3.421  0.0511 -0.4484  0.1373
29893W        W46740  15.279  12.207  11.632 -0.0401  0.1895 -0.2757
29894W        W46741   1.828   4.061   4.017 -0.0005  0.1660  0.1536
29895W        W46742  17.322   3.770   0.940 -0.0246 -0.0242  0.0640
29896W        W46743   4.431  14.498   1.944 -0.0696 -0.2655  0.1971
29897W        W46744  13.199   7.882   1.678 -0.2676  0.1630 -0.1951
29898W        W46745   9.057  11.894  15.649 -0.2715 -0.0424 -0.1541
29899W        W46746   1.110   8.821  12.200 -0.0021  0.4127 -0.0127
29900W        W46747  17.938   2.678  15.579 -0.2304 -0.0425 -0.1352
29901W        W46748   9.618   6.459  15.643  0.0407 -0.2864  0.1255
29902W        W46749  12.837  12.011  14.072  0.2973  0.1556 -0.4606
29903W        W46750   7.387  10.642  14.042 -0.2608  0.1634 -0.0034
29904W        W46751   9.937   8.028   4.388 -0.0869 -0.1491 -0.1643
29905W        W46752  16.507   4.744   1.383  0.0582  0.3080 -0.1068
29906W        W46753  13.922   2.496  15.166  0.0700 -0.1701 -0.4677
29907W        W46754  10.872   8.235   0.718 -0.0394  0.0255  0.0739
29908W        W46755  11.559  10.657  12.337 -0.3752  0.3937 -0.0631
29909W        W46756   5.242  12.085  14.810  0.0584  0.1465 -0.0049
29910W        W46757   0.355   7.593  11.492 -0.2289  0.1183  0.1916
29911W        W46758   9.098   6.866   0.020 -0.1626  0.2923  0.1107
29912W        W46759  16.317   4.357  14.579 -0.1281  0.0080  0.0639
29913W        W46760   1.204   5.576   4.631  0.0643  0.3431 -0.2570
29914W        W46761  15.837  13.494   5.112  0.2475  0.3528 -0.1518
29915W        W46762  16.469  13.914   5.614  0.2603  0.2694  0.1693
29916W        W46763   5.337   5.199   1.879  0.0618 -0.1010  0.0258
29917W        W46764  17.863   1.262  15.679  0.0940 -0.0984  0.1619
29918W        W46765   5.944  10.648   0.490 -0.1922 -0.0875  0.1465
29919W        W46766   4.675   4.380  13.639  0.0775  0.1268  0.2506
29920W        W46767   0.031   3.573   5.940 -0.1981 -0.0356 -0.0550
29921W        W46768   0.440  13.451   3.300  0.0416 -0.1178 -0.0478
29922W        W46769  17.413   6.288   3.967 -0.1269  0.1891  0.0823
29923W        W46770  10.439  16.859   4.591 -0.0015 -0.0730  0.2074
29924W        W46771  14.508  13.346   4.550  0.0630 -0.1045 -0.0894
29925W        W46772   8.729   1.320  13.645 -0.0921  0.0140  0.0942
29926W        W46773  15.344   6.219   0.832  0.0290  0.1580  0.1569
29927W        W46774  12.024  14.677  12.477  0.1793 -0.1405 -0.0511
29928W        W46775   4.865  11.282  13.956  0.3031  0.2608  0.1913
29929W        W46776  11.992  17.576  14.636 -0.0095  0.1000 -0.1430
29930W        W46777   2.121  17.189   0.769 -0.2007  0.1700  0.2004
29931W        W46778  17.193  12.507   4.409  0.1041 -0.1043  0.1657
29932W        W46779   3.946  17.450   3.843 -0.0246 -0.1395 -0.0598
29933W        W46780   0.371  10.450   4.244 -0.1385  0.1218  0.0683
29934W        W46781  11.440   7.362  16.591 -0.0686  0.1660  0.1175
29935W        W46782  12.098  16.241   6.477  0.3375  0.0396  0.0060
29936W        W46783   1.110   5.650  13.569 -0.1188 -0.3756 -0.1134
29937W        W46784   6.217  12.528  13.144  0.0900  0.2488 -0.1598
29938W        W46785   9.574  16.720   3.984  0.0366  0.1720  0.2265
29939W        W46786   8.444  14.945  14.262 -0.1105 -0.0612 -0.1177
29940W        W46787  12.837  12.128  12.533  0.4545  0.0820  0.1630
29941W        W46788  10.847   3.356   1.255  0.0407  0.3598 -0.3510
29942W        W46789   1.072  15.575   4.223 -0.0674 -0.0615  0.4747
29943W        W46790  12.450   5.313   3.320 -0.2995 -0.0143  0.1835
29944W        W46791  17.264  10.753  16.492 -0.0121  0.2837 -0.1626
29945W        W46792   0.817  17.357  15.167  0.1437  0.1231  0.1592
29946W        W46793  14.258   5.480   5.169 -0.0815  0.0585  0.1258
29947W        W46794   8.076  15.739   2.067 -0.4047  0.3521  0.3483
29948W        W46795   3.944  13.281   0.798  0.0707 -0.0920 -0.0336
29949W        W46796  17.869  17.577   0.841 -0.0261 -0.1151 -0.0596
29950W        W46797  16.128   4.077   2.312 -0.2171  0.0331  0.1260
29951W        W46798   7.379  17.407   4.141 -0.0901  0.2199  0.0986
29952W        W46799   5.477   3.989   0.865 -0.0872 -0.0284 -0.2324
29953W        W46800  17.546  12.514  12.569  0.0251 -0.3180 -0.0915
29954W        W46801   2.963   8.788  12.079 -0.3770 -0.2475  0.2380
29955W        W46802   4.481  14.118   0.825 -0.2468 -0.1891 -0.1320
29956W        W46803   2.034   2.456   1.824  0.0216  0.0785 -0.0536
29957W        W46804  11.975  15.632   2.556 -0.1451 -0.1078 -0.1358
29958W        W46805   0.752  14.856   5.780 -0.1467  0.0769 -0.1403
29959W        W46806  15.222   9.705   5.172  0.1318 -0.0345  0.2903
29960W        W46807   1.514   4.944   1.396  0.1935 -0.0426  0.0489
29961W        W46808  13.782   3.342  13.201 -0.3047  0.1189  0.0679
29962W        W46809  16.115  13.618  16.051  0.1525 -0.3047 -0.0206
29963W        W46810   3.738   6.780   0.283  0.0800  0.1774 -0.1048
29964W        W46811   1.574   3.915   1.536  0.3061  0.1329 -0.0446
29965W        W46812   8.180   8.609   4.451  0.0050 -0.0576 -0.1860
29966W        W46813   0.196  17.789   1.427  0.2302  0.1476 -0.1118
29967W        W46814  12.779  17.241  14.232 -0.1440 -0.0612  0.0480
29968W        W46815   8.399  13.926   2.161  0.1530 -0.1685 -0.2665
29969W        W46816  14.196   3.483   5.191 -0.1614 -0.0024 -0.0268
29970W        W46817  13.320   4.688  16.342  0.1374 -0.0121  0.1766
29971W        W46818   1.240  10.285  15.400  0.3218  0.3187  0.0273
29972W        W46819   4.014   3.444  16.425 -0.3807  0.0371 -0.0314
29973W        W46820   1.684   5.049  13.807 -0.5666  0.1313 -0.2343
29974W        W46821  13.662  17.406  13.766 -0.0588 -0.0487  0.1401
29975W        W46822  15.937   3.743   2.701  0.1839  0.0917 -0.1507
29976W        W46823  12.892   8.357  11.587 -0.2046 -0.0194 -0.0368
29977W        W46824   8.877   9.256   4.675  0.2535  0.1191  0.0662
29978W        W46825   0.050   7.734   0.426 -0.2314 -0.0232 -0.0623
29979W        W46826  10.207  17.247  15.992 -0.1189 -0.1838  0.0118
29980W        W46827  11.710  10.257   5.097 -0.1327 -0.1523  0.1456
29981W        W46828   2.249  15.828  12.283 -0.3467  0.1097  0.1422
29982W        W46829  11.866  17.884   0.945 -0.0608  0.0006  0.0355
29983W        W46830  14.947   7.153   0.989  0.0956  0.1360 -0.0608
29984W        W46831  15.552   8.450   0.819 -0.1282 -0.0284 -0.1569
29985W        W46832  13.329  10.014  12.051  0.2206 -0.0493  0.0058
29986W        W46833  14.843   6.130  15.358 -0.0395  0.0894  0.0652
29987W        W46834  16.194   5.564   5.845 -0.0674 -0.0137 -0.0032
29988W        W46835   3.694  14.400   2.774  0.1940  0.0418  0.4338
29989W        W46836  11.297  13.423   4.829  0.1422  0.0502  0.1321
29990W        W46837   9.052  17.311  12.167 -0.2985  0.0744 -0.1259
29991W        W46838   3.889   1.132  16.152 -0.1338 -0.0268 -0.0880
29992W        W46839   7.216  13.677  12.604 -0.1341 -0.0524 -0.2761
29993W        W46840   0.243   3.383  15.009 -0.1317  0.1140  0.0650
29994W        W46841   0.046  10.810   4.987  0.4501  0.0767 -0.0595
29995W        W46842  14.059   0.270  14.623 -0.3662  0.0329  0.2680
29996W        W46843   3.527   8.065  12.791 -0.0480 -0.2912 -0.0418
29997W        W46844  12.382  14.083  15.405  0.1852  0.0014 -0.2032
29998W        W46845  11.429   0.805  16.649  0.0966 -0.0584 -0.0937
29999W        W46846  16.413  13.405   5.766 -0.0770 -0.0647 -0.1844
30000W        W46847   6.049   4.421  15.089 -0.0802 -0.1922  0.1830
30001W        W46848  13.782   6.187   2.369 -0.0784 -0.5486 -0.0579
30002W        W46849   6.441   5.071  12.417 -0.0055 -0.1868  0.2278
30003W        W46850   6.063  15.513  12.828  0.2586  0.2231 -0.0748
30004W        W46851  10.140  15.798  13.414  0.1708 -0.0148 -0.4393
30005W        W46852   5.302   6.111  16.618  0.2053 -0.0358  0.0648
30006W        W46853   1.183   4.029   5.858 -0.0680  0.0153 -0.2194
30007W        W46854  16.380   1.988  13.382  0.2540  0.0074 -0.1916
30008W        W46855   3.144  17.887  13.739 -0.0327  0.0177  0.1404
30009W        W46856   8.084   7.644   0.940 -0.1439  0.0781  0.0793
30010W        W46857   0.245   3.149  15.874  0.0047  0.1100 -0.3504
30011W        W46858   7.102   1.782   1.446 -0.1107 -0.5168  0.0411
30012W        W46859   0.357  10.058   3.709 -0.2232  0.0147  0.2287
30013W        W46860  16.340  12.087   4.254  0.1539 -0.0355  0.1518
30014W        W46861   5.544  10.172   1.604 -0.1589 -0.2250 -0.2328
30015W        W46862   8.659   1.741  15.700 -0.2433 -0.1316 -0.0610
30016W        W46863   1.054  17.891  11.433 -0.3592 -0.1336  0.0730
30017W        W46864  13.798   3.141   2.388  0.0147 -0.0541 -0.0345
30018W        W46865  15.600   5.853   3.509  0.0711  0.2258  0.0800
30019W        W46866   0.281  13.985  13.079 -0.0516 -0.2080 -0.1704
30020W        W46867   7.910  16.988   4.865  0.0711  0.1573  0.0506
30021W        W46868   3.365  13.881   3.326  0.1568 -0.0710  0.1716
30022W        W46869  12.476   1.772  12.568 -0.0084  0.0778  0.2466
30023W        W46870   0.713   7.807  15.942  0.0563  0.1161 -0.2583
30024W        W46871   9.975   4.687  14.548 -0.1343  0.0064  0.1881
30025W        W46872  11.011  11.445   1.225  0.1479 -0.1010 -0.0699
30026W        W46873   3.415   6.469  15.185 -0.1558  0.4174 -0.1096
30027W        W46874  16.843  15.299   0.414 -0.1492 -0.0503 -0.2974
30028W        W46875  12.158   4.603   0.045 -0.1252 -0.0304  0.1842
30029W        W46876   6.231  12.513   0.704  0.0414  0.1124 -0.1059
30030W        W46877  16.170  15.704   5.583  0.1597 -0.1330 -0.3009
30031W        W46878   9.695   9.602  15.155 -0.0643 -0.2986 -0.3698
30032W        W46879  14.819   9.211   2.063  0.0068 -0.1044 -0.3011
30033W        W46880   9.597   5.514   5.209  0.1277  0.2319  0.3249
30034W        W46881   6.422   1.923  10.262  0.0125 -0.0204  0.0346
30035W        W46882   5.246  15.945  13.467  0.1811  0.0266  0.0440
30036W        W46883  12.855   9.518  14.314 -0.0943 -0.0164 -0.1354
30037W        W46884  16.346   6.094  11.559  0.0807  0.2711  0.0355
30038W        W46885   1.699   9.105   3.262  0.2794  0.0971 -0.0715
30039W        W46886  14.752   2.353  15.691  0.0659  0.2057  0.0351
30040W        W46887  11.347   3.011   0.642 -0.2798 -0.0433  0.2506
30041W        W46888  14.530  11.610  12.418 -0.1920  0.3181  0.0693
30042W        W46889  10.309  11.917   0.830 -0.1985  0.1292 -0.0248
30043W        W46890   2.857  15.509   0.853 -0.0306 -0.1173 -0.0740
30044W        W46891   8.393  17.002   4.908  0.0425  0.2047 -0.0024
30045W        W46892   3.560  14.362  14.398  0.4459 -0.0738  0.0916
30046W        W46893  13.450   3.095   0.627  0.2727 -0.1377 -0.2304
30047W        W46894   9.589   5.352  15.306  0.3613 -0.0133  0.2437
30048W        W46895  17.612   5.003   3.548  0.0873 -0.2766 -0.0314
30049W        W46896   8.469   4.807   3.444 -0.1424  0.3979 -0.0216
30050W        W46897  10.948   6.779   3.080 -0.0576  0.0639 -0.2169
30051W        W46898   8.130  14.968  16.790 -0.1720  0.0257 -0.3316
30052W        W46899  15.748  10.094   4.332  0.3797 -0.2116  0.3533
30053W        W46900   9.328  12.982   1.152 -0.1870  0.0520  0.0679
30054W        W46901  14.287   2.498   0.860 -0.0600 -0.0167 -0.1655
30055W        W46902  12.302  13.207   0.201 -0.3411  0.0416 -0.0082
30056W        W46903   4.773  17.369  11.083 -0.0244 -0.2930  0.2240
30057W        W46904  15.885   4.237  11.657 -0.0299 -0.1223 -0.2537
30058W        W46905   1.532   7.929  13.010  0.1448 -0.0783 -0.0049
30059W        W46906  14.858  15.610   4.378 -0.0209 -0.0038  0.1300
30060W        W46907   4.846  12.540  13.468 -0.0052  0.2298 -0.3022
30061W        W46908   1.716  17.852  15.929  0.2784  0.1653 -0.0674
30062W        W46909   3.070  17.917   0.600 -0.1938 -0.3573  0.1485
30063W        W46910   3.390   7.601   6.069 -0.3663 -0.0209  0.0889
30064W        W46911  15.031   2.007   3.078  0.1485  0.0985 -0.2701
30065W        W46912  17.890   8.132   1.323 -0.1290 -0.1934  0.0018
30066W        W46913   3.890   2.210   1.245  0.3134 -0.2220 -0.0358
30067W        W46914   8.569  14.466   5.275  0.0595 -0.2317 -0.0659
30068W        W46915   7.535   2.794  12.297 -0.0824 -0.3485  0.0938
30069W        W46916  16.339   0.297  13.050 -0.0185  0.1863 -0.1734
30070W        W46917  13.291   4.115  15.801 -0.1250  0.0877 -0.1336
30071W        W46918   7.182  12.465   2.405 -0.2106 -0.3816 -0.1662
30072W        W46919  10.101   0.714  13.780  0.2261 -0.0875 -0.0059
30073W        W46920   1.698   6.123   0.931 -0.1618 -0.0971  0.3379
30074W        W46921   8.521  13.862   1.155  0.1012 -0.2945  0.3243
30075W        W46922   8.176  12.354   2.525 -0.0199 -0.2740 -0.2487
30076W        W46923  15.231   4.846  11.420 -0.1920  0.0322  0.2675
30077W        W46924   0.310   5.511   5.409  0.1592  0.1039  0.2787
30078W        W46925   0.237   9.731   2.379  0.1734 -0.1486  0.1697
30079W        W46926   0.892   0.784   2.838 -0.2153 -0.0705 -0.5160
30080W        W46927   6.651  17.145  12.624 -0.1587  0.0095  0.0889
30081W        W46928  17.129   3.378  12.792 -0.1285  0.1138 -0.2241
30082W        W46929   6.022   2.645  11.899 -0.1864 -0.0742  0.1836
30083W        W46930   5.980   3.350   3.173  0.1456  0.0562 -0.1321
30084W        W46931  11.477   9.879   2.742  0.1111 -0.3070  0.2261
30085W        W46932  12.730   8.691  11.886  0.0840 -0.3227  0.0627
30086W        W46933   9.377  17.879  12.683  0.1799  0.0497  0.0157
30087W        W46934  15.149  16.108  15.289  0.3321  0.3924 -0.1839
30088W        W46935  12.760   6.206  11.948  0.1802 -0.1133 -0.0137
30089W        W46936   4.985   0.083   2.334  0.0104 -0.1327 -0.3248
30090W        W46937   9.427  17.484  16.257  0.0566  0.3288 -0.0796
30091W        W46938   0.318   5.270   1.197  0.3068 -0.2718 -0.2014
30092W        W46939   8.456  17.680  15.139 -0.2592  0.2042 -0.0529
30093W        W46940   1.923  11.539  12.960  0.2885 -0.1129 -0.5569
30094W        W46941  16.937   7.723   1.482  0.0001  0.0245  0.1855
30095W        W46942  16.619  11.471  13.021 -0.1696  0.1034  0.3077
30096W        W46943  10.303   5.543   3.861 -0.0936  0.0743  0.0060
30097W        W46944   0.779   3.972  14.342 -0.1119 -0.1688  0.2476
30098W        W46945  13.072  17.860   2.860 -0.0296 -0.1452 -0.0858
30099W        W46946   8.187   3.222  13.607 -0.0784 -0.0161 -0.2178
30100W        W46947   6.167   0.941  11.270  0.1670  0.0183  0.1319
30101W        W46948  17.417   2.232  15.559  0.1983  0.0994  0.1683
30102W        W46949   5.188   0.551   0.563 -0.2256  0.0873  0.0910
30103W        W46950  11.888  16.523  15.962  0.0788 -0.0013  0.1705
30104W        W46951   0.249   0.496   5.682 -0.2640  0.2518 -0.0361
30105W        W46952   0.867   0.201   4.727 -0.2270  0.0829 -0.1402
30106W        W46953  17.726  11.647  11.977  0.0818 -0.1451 -0.0131
30107W        W46954   7.743   0.626  13.439 -0.2015 -0.1171  0.0701
30108W        W46955   4.133  11.458   2.344 -0.1796  0.1735 -0.0377
30109W        W46956   1.829   7.360  12.656 -0.1298 -0.0829  0.1804
30110W        W46957  17.926   5.129   5.450 -0.1484 -0.2069 -0.0775
30111W        W46958   7.576   7.440  12.205  0.1491 -0.0289 -0.1488
30112W        W46959   5.523   8.168  12.915  0.0035 -0.0519 -0.0788
30113W        W46960   6.297   7.073  16.435 -0.1110  0.1529 -0.0154
30114W        W46961   1.666   8.817   0.217  0.2365 -0.4761  0.0664
30115W        W46962   2.633   6.664   4.541 -0.1185  0.1206 -0.2583
30116W        W46963  17.197  11.456   3.121 -0.1611  0.0259 -0.2113
30117W        W46964  13.257  16.738  11.826 -0.0697  0.1727  0.1705
30118W        W46965  14.514  12.515   5.166 -0.1088  0.5295 -0.4318
30119W        W46966   1.223   0.175   1.289  0.5279  0.0493  0.0450
30120W        W46967  17.942   8.937  11.925  0.1399  0.0634  0.1483
30121W        W46968   1.012   5.035  11.638 -0.0024 -0.0450 -0.2890
30122W        W46969   2.222   3.029  14.254 -0.1517  0.0622  0.1933
30123W        W46970  14.673   8.255  14.157  0.0481 -0.0875  0.1043
30124W        W46971  13.503   5.975  15.895  0.1508  0.0949 -0.1611
30125W        W46972   5.313  17.558  14.329  0.7058 -0.1373 -0.1432
30126W        W46973   9.641  15.388  16.595 -0.0010 -0.1135 -0.2378
30127W        W46974  11.059   2.838  13.477 -0.0829 -0.3385 -0.2633
30128W        W46975   8.021  14.168   4.033  0.0685 -0.0154 -0.2056
30129W        W46976   5.525  12.178   2.038  0.3086 -0.1048  0.0459
30130W        W46977   2.922   2.798  12.115 -0.2932 -0.2519 -0.0797
30131W        W46978  17.832   7.223  13.768  0.0471 -0.1374 -0.3518
30132W        W46979  11.468  16.663  13.784 -0.0444 -0.1745  0.0582
30133W        W46980   7.752  10.255   5.410 -0.0354  0.1830 -0.1746
30134W        W46981   7.013   2.631  15.315 -0.0414  0.1961 -0.1185
30135W        W46982  12.836  15.733   4.061  0.1688  0.1320 -0.0496
30136W        W46983   8.350  14.195  16.007 -0.0443  0.0738  0.2742
30137W        W46984   4.947   8.419  12.867  0.0188 -0.1868  0.0485
30138W        W46985  15.655   2.175   0.896  0.0402 -0.0308  0.1373
30139W        W46986  14.789  16.776   2.031 -0.0165 -0.1221 -0.1121
30140W        W46987   2.296   8.523   0.822  0.1840  0.4747 -0.0052
30141W        W46988  12.532  11.521   4.854 -0.1308  0.0574 -0.1067
30142W        W46989   7.777  11.602  13.867 -0.0797  0.1602 -0.3308
30143W        W46990  17.743   3.452  16.275  0.1901  0.1019 -0.0705
30144W        W46991   4.499  11.078   5.421 -0.0811  0.0524  0.1463
30145W        W46992  10.150   7.741   1.754  0.2749  0.1526 -0.1033
30146W        W46993   8.045  16.870  15.068 -0.0179 -0.1271 -0.1325
30147W        W46994   8.676  11.224  16.187  0.0544 -0.1710 -0.3156
30148W        W46995  14.592  11.711  14.580 -0.0820  0.1763  0.2699
30149W        W46996   1.959   7.524   5.298  0.1156 -0.2260  0.0750
30150W        W46997   1.233   5.964  13.991  0.1058 -0.0293  0.0315
30151W        W46998  11.740  16.926  12.653  0.3642  0.1270 -0.2481
30152W        W46999  13.196   7.669  14.388  0.0188  0.1232 -0.0709
30153W        W47000   3.999   3.192   1.090 -0.1553  0.1550 -0.2382
30154W        W47001   6.868   8.128  16.183 -0.1383 -0.3576  0.0735
30155W        W47002  12.907  11.077  14.966 -0.2971 -0.1841 -0.0034
30156W        W47003  17.023  10.557  15.873 -0.0124 -0.1509  0.2305
30157W        W47004  10.399   5.904  12.901 -0.3871 -0.0356 -0.0679
30158W        W47005  17.586   6.506   5.441  0.2526  0.0745  0.3337
30159W        W47006  11.107   2.403  11.380  0.0185 -0.1237  0.0904
30160W        W47007   4.703   0.703   0.909 -0.0067 -0.2234  0.0892
30161W        W47008  11.687  13.366  12.037 -0.0979 -0.0166 -0.1696
30162W        W47009  11.375   4.321  13.183  0.0246 -0.1652 -0.3624
30163W        W47010   9.652  12.059   2.759  0.1173 -0.0255 -0.3639
30164W        W47011  14.883   0.125  11.487  0.0368  0.0122 -0.0568
30165W        W47012   9.578   2.852   1.480  0.2089 -0.1394 -0.1237
30166W        W47013   7.062   5.858   2.253  0.3640  0.2504  0.1517
30167W        W47014  10.629   4.560   1.904  0.0405 -0.0784  0.1033
30168W        W47015   8.670  13.471  12.164 -0.0984  0.2465 -0.0230
30169W        W47016   2.814   4.874   1.168  0.0187 -0.0344 -0.0957
30170W        W47017   3.803  14.883  15.990 -0.0905 -0.3554  0.0355
30171W        W47018  11.134  12.397   4.926  0.0393  0.0968 -0.1146
30172W        W47019   0.128  14.155   5.415 -0.1998  0.3355  0.0016
30173W        W47020   3.595   2.660   4.749 -0.3679 -0.1632  0.1526
30174W        W47021   0.409  17.204   0.160  0.0728  0.0227 -0.0053
30175W        W47022  11.758  10.276  11.861 -0.0258 -0.1425 -0.0524
30176W        W47023  13.488  17.682   1.529  0.1151 -0.1705 -0.1362
30177W        W47024  14.371   6.231  15.737  0.0330 -0.0844  0.1337
30178W        W47025   2.776  11.717   2.563 -0.2645  0.0325 -0.1958
30179W        W47026  16.523   3.165  14.944 -0.1178 -0.1715 -0.2242
30180W        W47027   3.331   0.021  16.668  0.0519  0.1977  0.3555
30181W        W47028   6.110   7.668  15.175  0.1835 -0.1666  0.0439
30182W        W47029   6.839   1.164   1.895  0.1157  0.0616  0.0120
30183W        W47030   0.178  17.351   2.150 -0.1747  0.0501 -0.0177
30184W        W47031   6.691  13.224   4.731 -0.4375  0.2271 -0.2603
30185W        W47032  13.793  15.225   2.974 -0.0010  0.0449  0.1807
30186W        W47033  12.413   8.291  16.698 -0.0705 -0.1291  0.0601
30187W        W47034  11.443  13.837  15.502 -0.2278 -0.0750  0.0585
30188W        W47035  16.519  12.633   1.340  0.1153  0.2195 -0.0210
30189W        W47036   6.218   8.336   2.472 -0.0876  0.2977 -0.3778
30190W        W47037   2.391  11.303  15.672  0.4171 -0.0912 -0.1227
30191W        W47038   2.838   1.962  12.428  0.0348 -0.0743  0.2268
30192W        W47039  17.798  15.727  15.628  0.1145  0.0193 -0.1847
30193W        W47040  10.269   9.790   4.776 -0.0307 -0.2128 -0.1605
30194W        W47041   5.650   7.021   1.341  0.1751 -0.0226  0.0838
30195W        W47042   7.656  17.952   3.716 -0.1073  0.0536 -0.3149
30196W        W47043  10.248   8.308   3.650  0.1983 -0.2557 -0.2081
30197W        W47044   2.465  14.537  12.815 -0.1094 -0.0348  0.0004
30198W        W47045  17.097  10.368   5.751  0.3164  0.0467  0.1115
30199W        W47046   6.936  11.406   2.443 -0.1352 -0.0193  0.1504
30200W        W47047   7.549  13.425  12.291  0.1903 -0.1006  0.1417
30201W        W47048  14.867   9.855   1.168 -0.0352 -0.2784 -0.1692
30202W        W47049   8.592   3.147  13.246  0.1281  0.2377 -0.2466
30203W        W47050  13.689   4.444   2.848 -0.2245 -0.2177  0.0539
30204W        W47051   1.675  17.213  11.706 -0.2240  0.1703  0.1746
30205W        W47052   1.733  14.336   4.464 -0.2575 -0.1554 -0.0795
30206W        W47053   8.358   4.227   1.662  0.1051 -0.1673 -0.1617
30207W        W47054  11.656  12.724  14.684 -0.1948  0.1153  0.2257
30208W        W47055  17.447   4.575  13.901 -0.1797  0.0917  0.1298
30209W        W47056   2.460   0.383   3.044  0.1327  0.1254 -0.2330
30210W        W47057   6.952   5.983   2.774  0.0677  0.0757  0.2312
30211W        W47058   1.810   9.239  14.494 -0.1495  0.0077 -0.1059
30212W        W47059  15.690   1.627   2.162 -0.1363  0.1820 -0.2771
30213W        W47060  16.397  14.072  15.319 -0.1392  0.1745 -0.0282
30214W        W47061   3.927  12.389   0.702  0.0463  0.2630  0.1265
30215W        W47062  14.343  12.885  15.173 -0.3342  0.1383  0.1872
30216W        W47063   4.499  11.739  13.449 -0.2327 -0.1497 -0.3485
30217W        W47064   0.440   2.991   0.701  0.0201  0.0706  0.0274
30218W        W47065   5.621   2.852   3.052  0.0160  0.1169 -0.0334
30219W        W47066   5.850  17.610   1.419  0.0873  0.2459 -0.1858
30220W        W47067  14.865  13.888  15.659 -0.0451 -0.3780 -0.0597
30221W        W47068  11.171  10.760   3.684 -0.0241  0.0560  0.2222
30222W        W47069  15.504   4.555   1.423  0.1238  0.1904 -0.2706
30223W        W47070  15.784   0.903  14.034  0.0191  0.1254 -0.1361
30224W        W47071  15.591  12.609   1.113  0.1035 -0.1198 -0.2735
30225W        W47072  17.150  17.211   0.106  0.0901  0.0443 -0.0769
30226W        W47073   0.491   6.293   1.673 -0.1745 -0.1313  0.0041
30227W        W47074  11.374   2.932   5.790  0.0178  0.0591  0.0331
30228W        W47075  14.451   5.606   2.591  0.1941  0.0068  0.4656
30229W        W47076   2.459   6.771   0.656  0.2215  0.2476  0.1497
30230W        W47077   3.229  10.667  15.268 -0.1703  0.4929  0.3125
30231W        W47078   1.555  13.718   2.975 -0.2589 -0.2401 -0.0416
30232W        W47079   7.863  15.576  15.187 -0.1859 -0.0627  0.3223
30233W        W47080  16.670   1.267  15.923  0.0796  0.2767 -0.1271
30234W        W47081   9.643  12.895   3.148 -0.3198 -0.1764  0.2538
30235W        W47082  14.661   0.408   4.337  0.1975  0.0394 -0.0734
30236W        W47083  15.453   4.783   5.125  0.0169  0.0203  0.3301
30237W        W47084   3.938  15.203  13.553 -0.0027 -0.1082  0.1424
30238W        W47085  11.156   4.356   4.345 -0.2008  0.4310  0.0170
30239W        W47086  15.232  16.931   1.766 -0.1571 -0.2618 -0.0444
30240W        W47087   7.368   4.309  16.406  0.2514  0.0119  0.5731
30241W        W47088   9.603  12.514  13.663  0.1188 -0.1292  0.1790
30242W        W47089  15.440   5.951   4.027 -0.0254 -0.0276  0.1408
30243W        W47090  16.969   2.654  13.915 -0.0682  0.0059 -0.2164
30244W        W47091   0.817   0.618   4.308  0.0995  0.1522  0.0974
30245W        W47092   7.923  17.592   1.506  0.0653 -0.1280 -0.0024
30246W        W47093   7.392  13.298   6.193  0.0269  0.4581  0.0008
30247W        W47094  17.648   2.008   3.129 -0.0852 -0.1421  0.1353
30248W        W47095   4.065  11.219  11.761 -0.1752 -0.0821  0.1894
30249W        W47096   4.870  13.649   4.422 -0.2728  0.1032 -0.1524
30250W        W47097  13.481   8.402  13.793 -0.0095 -0.2124  0.2571
30251W        W47098  17.531  12.215   5.498  0.2536  0.1567 -0.0020
30252W        W47099   1.286   8.390  14.843  0.1950  0.0086 -0.1857
30253W        W47100  15.857   8.932   2.774  0.1176 -0.2544 -0.0385
30254W        W47101  10.305   6.529  13.890  0.1907 -0.0837  0.0913
30255W        W47102  17.451   2.267   0.965  0.1947  0.0799 -0.2391
30256W        W47103  17.178   6.262   5.137  0.3106  0.2073  0.1921
30257W        W47104   2.941  15.008   0.656  0.1570 -0.0361  0.0046
30258W        W47105  13.342   9.168   0.962  0.0896 -0.4116  0.0535
30259W        W47106   6.771   5.726   5.701  0.2850  0.1687  0.0941
30260W        W47107   1.303   8.333  11.995  0.1695  0.1313  0.3176
30261W        W47108  11.025   3.124   4.824 -0.1150  0.0605  0.0787
30262W        W47109  10.173  12.342   3.476 -0.2558 -0.1439 -0.1449
30263W        W47110   5.915  13.735   1.185 -0.0048  0.4475  0.1192
30264W        W47111  11.091   2.926  15.246 -0.0990  0.1276  0.1812
30265W        W47112  10.781   7.667   3.540  0.2493  0.3427  0.0958
30266W        W47113   7.186   0.456   0.171  0.1884 -0.0238 -0.2499
30267W        W47114   0.593   5.471   4.994  0.3550 -0.0974 -0.1436
30268W        W47115   4.456  16.161  13.770 -0.0090 -0.1063 -0.0846
30269W        W47116   7.636   7.420   4.570 -0.0030 -0.0100  0.1052
30270W        W47117   3.959  14.054   3.324  0.1167 -0.1835  0.3099
30271W        W47118  15.210  11.043   5.329 -0.0031  0.1346 -0.0393
30272W        W47119  13.216   3.437   5.337  0.0724 -0.1550 -0.4414
30273W        W47120   3.272  15.547   2.766 -0.0518 -0.1774  0.0028
30274W        W47121   2.799   7.083   3.722  0.1537 -0.0858  0.1230
30275W        W47122   2.791   6.642  13.465  0.0744 -0.0086  0.1468
30276W        W47123  14.767  13.161   2.114  0.0561 -0.3536 -0.0239
30277W        W47124   1.625  17.031  12.674  0.1861  0.0784 -0.0691
30278W        W47125   8.736  13.841   5.178  0.3823  0.2200 -0.2906
30279W        W47126   7.805  13.196  11.945  0.2574  0.2187 -0.1459
30280W        W47127  16.634   2.453   3.891 -0.2722  0.2717  0.1555
30281W        W47128   3.355   5.010  15.667 -0.1465  0.2521 -0.1354
30282W        W47129   1.166  16.538  16.759 -0.0062 -0.1974  0.0325
30283W        W47130  17.940   2.383  13.593 -0.0138 -0.0001 -0.0002
30284W        W47131   3.734  10.704   4.700  0.0248 -0.2351  0.1453
30285W        W47132   6.112   4.577  13.059  0.1070  0.1007 -0.0335
30286W        W47133  13.807   6.024   5.560  0.3468  0.2332  0.0666
30287W        W47134  17.449   5.328  15.936  0.1280 -0.0092  0.0440
30288W        W47135  11.577  10.057  15.566 -0.1404  0.0627  0.1100
30289W        W47136  15.799   4.320  14.569  0.3037 -0.2040 -0.0947
30290W        W47137  11.353   4.752  13.488  0.0373 -0.1840  0.0124
30291W        W47138   9.880  14.552   1.862 -0.1011  0.1587 -0.1556
30292W        W47139   0.410   6.090  13.365 -0.1338 -0.0261 -0.4517
30293W        W47140  16.968  13.541  16.693  0.3903  0.0829 -0.1209
30294W        W47141   6.563   9.418   3.597 -0.2695  0.0316  0.0713
30295W        W47142  17.473  11.486   5.042  0.2436 -0.0183 -0.0683
30296W        W47143  15.220  10.588   1.913  0.1118 -0.1533 -0.0299
30297W        W47144  15.073   8.117  16.338 -0.1101 -0.1492  0.0289
30298W        W47145   2.725  10.997   0.368  0.1780  0.0127 -0.0667
30299W        W47146  12.115   8.540  16.403 -0.4174 -0.0404 -0.0015
30300W        W47147   2.474   6.168  16.571 -0.1524  0.0896 -0.2049
30301W        W47148   5.568   2.604  15.333 -0.0019 -0.1186 -0.0585
30302W        W47149   6.912   7.856   3.018 -0.0483  0.2766 -0.0150
30303W        W47150   6.887  10.131  13.747 -0.0054  0.1242 -0.0220
30304W        W47151  14.671   6.619   4.908  0.0345 -0.1834  0.3450
30305W        W47152   0.560   1.381  14.384 -0.1970  0.1556  0.1956
30306W        W47153  14.480  14.652   3.742 -0.2122 -0.1503  0.2904
30307W        W47154  17.779   7.661  15.737  0.1923  0.0567 -0.0996
30308W        W47155   4.516   4.239   1.820  0.3499  0.2199 -0.1460
30309W        W47156   1.384  13.706  12.084 -0.2706 -0.0072 -0.0551
30310W        W47157   6.723   0.529  16.049 -0.3511  0.0041 -0.1159
30311W        W47158   7.907   0.703   4.127 -0.2445 -0.0145 -0.0703
30312W        W47159   4.307   8.295  15.679  0.1307 -0.0141  0.0020
30313W        W47160  10.771   5.462   0.825  0.1492  0.1202  0.1694
30314W        W47161  11.864  14.989  15.809  0.1301 -0.1915 -0.0958
30315W        W47162   2.296  16.085   3.065  0.0400 -0.1833 -0.0657
30316W        W47163   6.141   7.601  13.682 -0.0716  0.1390 -0.1423
30317W        W47164   6.454   3.930   2.650  0.2936 -0.0009 -0.0066
30318W        W47165  13.628   7.869   3.774 -0.0183  0.0055  0.0495
30319W        W47166   8.690   8.209   4.200  0.0733 -0.3062 -0.0091
30320W        W47167   8.331  12.849  16.525  0.0016 -0.0492  0.0992
30321W        W47168  14.529   5.505  11.498 -0.1029 -0.1957 -0.1853
30322W        W47169   4.666   8.555  16.381  0.0268 -0.2175 -0.0203
30323W        W47170   7.431  11.237  13.738  0.2112 -0.1012 -0.2157
30324W        W47171   7.042   6.451   3.997  0.0804  0.1991 -0.0512
30325W        W47172   3.343   8.541  13.601  0.0336  0.0649  0.0077
30326W        W47173   4.983   1.397  12.424 -0.2746  0.4256  0.1780
30327W        W47174  13.073   4.707  14.685 -0.0366 -0.1145 -0.0267
30328W        W47175   1.636   4.640   2.509  0.1401 -0.3968  0.1030
30329W        W47176  13.839   0.650   5.208  0.2752 -0.0065 -0.2532
30330W        W47177  12.679  14.421  11.738 -0.1482 -0.2465  0.0461
30331W        W47178  11.229   4.629  15.523  0.0789  0.0863 -0.1509
30332W        W47179   4.836   6.504   4.113  0.0690  0.0793 -0.1806
30333W        W47180  11.209  11.029  14.854 -0.1456 -0.1485 -0.0022
30334W        W47181   4.122  13.691   2.473 -0.0811  0.1438  0.2205
30335W        W47182   2.685  12.139  15.200 -0.2327 -0.0776 -0.2329
30336W        W47183  15.235   7.072  15.015 -0.3466  0.0769 -0.1855
30337W        W47184   8.066   0.265  14.844  0.2738  0.0153  0.1444
30338W        W47185  13.857  12.172  16.455 -0.3528  0.1310 -0.1610
30339W        W47186  17.642   2.760   1.802 -0.1647 -0.4315  0.0270
30340W        W47187  11.229   4.425   0.115 -0.1484  0.0128  0.0582
30341W        W47188   8.058   6.772   3.335  0.1279 -0.1634 -0.0847
30342W        W47189  10.621   4.695  12.701  0.2756  0.0504 -0.0353
30343W        W47190   2.050   2.663   0.334  0.0224  0.2959  0.1470
30344W        W47191  15.123   7.518  12.437 -0.1508 -0.1293 -0.3779
30345W        W47192   8.943  14.267   1.421 -0.1561  0.0931  0.1288
30346W        W47193   0.525  16.180   2.331  0.2128  0.1334  0.2262
30347W        W47194  11.311   5.773  12.389 -0.0669  0.1856 -0.1242
30348W        W47195   1.280  12.113   5.325 -0.0331 -0.0595  0.1359
30349W        W47196  17.102  12.730  12.892 -0.0241  0.2993 -0.4606
30350W        W47197   7.052   8.751  14.805  0.1220 -0.2477 -0.0282
30351W        W47198  13.974  17.914  14.243  0.0629 -0.2770  0.0756
30352W        W47199   3.203   2.635  11.772 -0.2214  0.0260  0.1588
30353W        W47200   5.237   0.093   0.312  0.1098 -0.2283 -0.1739
30354W        W47201  12.936   5.488   1.154 -0.0243  0.0932  0.1137
30355W        W47202   5.901   7.364   0.874  0.0597  0.0162 -0.2381
30356W        W47203   5.065  17.389   5.592 -0.0735  0.1872  0.0031
30357W        W47204   3.082   0.415  11.391  0.0510 -0.3151 -0.0700
30358W        W47205   9.948   2.905   5.360 -0.0687  0.1380 -0.1498
30359W        W47206  17.033  12.631  14.999 -0.5175  0.0043 -0.2518
30360W        W47207   8.855   5.472  13.825  0.3741  0.1887  0.2192
30361W        W47208  12.843   5.103   4.600 -0.0489 -0.2792 -0.1636
30362W        W47209   2.787  10.213  13.019  0.0058 -0.0143 -0.0705
30363W        W47210   3.685  14.615   1.340  0.0285  0.0552  0.0585
30364W        W47211   4.252   2.608   0.243  0.1546 -0.1576 -0.0148
30365W        W47212  14.065   4.243  13.306  0.0771  0.2231 -0.0436
30366W        W47213   6.606  17.438   4.190 -0.1068  0.0606 -0.1763
30367W        W47214   9.829   3.864  13.439 -0.0035  0.2029 -0.0394
30368W        W47215   0.980   0.470   3.863 -0.0923  0.2215  0.0445
30369W        W47216   0.596   6.289   2.518 -0.5668  0.0342 -0.0382
30370W        W47217  16.810   2.762   2.039  0.0745 -0.2864 -0.0905
30371W        W47218   7.830   2.113   3.845  0.2335  0.1149  0.1993
30372W        W47219   6.389   0.768   5.413 -0.1645 -0.4983  0.1202
30373W        W47220  11.385  10.715   5.193 -0.2269  0.1226 -0.1333
30374W        W47221  17.332   3.412   2.209 -0.1550  0.0446  0.0331
30375W        W47222   1.035  13.853   2.962  0.1952 -0.3988  0.0080
30376W        W47223   9.876  13.882  12.000 -0.2041  0.1899 -0.3672
30377W        W47224  11.745   8.277   2.496  0.1269 -0.2918 -0.1124
30378W        W47225  17.229  15.593   2.217 -0.0230 -0.4867  0.1077
30379W        W47226  12.010   1.996   0.797  0.1612 -0.1084  0.0211
30380W        W47227  15.523  10.328   1.591  0.0026 -0.0661 -0.1106
30381W        W47228   3.514  16.988  11.508  0.0367  0.1110 -0.1850
30382W        W47229   9.527   9.697   5.447  0.0720 -0.0914 -0.1304
30383W        W47230   5.521  12.625  15.066  0.0621  0.1067  0.0308
30384W        W47231   6.052   0.992  14.983  0.2479  0.0793  0.4096
30385W        W47232   0.210   7.916   5.043  0.0325  0.1598  0.1639
30386W        W47233   8.973  17.196   1.046 -0.0152 -0.1672  0.3135
30387W        W47234   6.406  15.573   0.095  0.1482 -0.1621 -0.1728
30388W        W47235  17.415   8.954  15.624  0.0535 -0.5851 -0.1700
30389W        W47236  10.621  10.144   4.884  0.0148 -0.0356 -0.0777
30390W        W47237   8.894  12.271   5.739  0.0048 -0.1068 -0.0302
30391W        W47238  13.229   7.214   1.475  0.0265  0.0775 -0.0038
30392W        W47239   5.086  14.117   5.348 -0.0126  0.0287 -0.3162
30393W        W47240   5.570   2.647   2.584  0.0470  0.1798 -0.2097
30394W        W47241   7.992   7.545  14.630  0.1623 -0.3074 -0.2227
30395W        W47242   9.371  14.782  14.017  0.1231  0.2325 -0.2982
30396W        W47243  12.589  11.042  16.602  0.0150 -0.1481 -0.2995
30397W        W47244  12.070   1.346  14.906 -0.2582  0.0540 -0.2251
30398W        W47245  10.445   9.397   3.501  0.3634 -0.0101 -0.1437
30399W        W47246   2.590   7.459  10.664 -0.2800  0.0472 -0.1767
30400W        W47247   7.566  14.678  16.192  0.0558  0.1019  0.3872
30401W        W47248   4.712  15.365  14.529  0.1257 -0.1284  0.0016
30402W        W47249  14.144   7.814   2.700 -0.1772  0.1902  0.0899
30403W        W47250  14.349  17.338  12.644  0.0931  0.1710 -0.0251
30404W        W47251  14.631  10.052  12.024  0.2244  0.0534 -0.2159
30405W        W47252   0.069   4.001   4.463 -0.1369 -0.1950  0.5842
30406W        W47253   8.987  15.133   1.060 -0.1004 -0.1802 -0.2436
30407W        W47254   8.989   7.263   4.158  0.0778 -0.1437 -0.1292
30408W        W47255   1.988   2.793   5.511  0.2425 -0.0425 -0.3699
30409W        W47256  10.147   5.619   1.628  0.0994  0.0552 -0.2892
30410W        W47257   4.771   6.505   0.933 -0.0742 -0.2080 -0.0420
30411W        W47258  10.941  11.466  14.934  0.0223  0.4860  0.0922
30412W        W47259  15.073   7.005   1.995  0.2006 -0.0059  0.2477
30413W        W47260  11.748   6.075   5.738 -0.1114 -0.2247 -0.0770
30414W        W47261  12.001  14.760  13.931  0.0811 -0.0074 -0.0613
30415W        W47262   7.599   4.497   1.078 -0.1464 -0.1543 -0.0098
30416W        W47263   5.778  11.286  13.606 -0.0466 -0.2624 -0.1094
30417W        W47264   9.155  14.435  16.570  0.0309  0.0726 -0.1111
30418W        W47265   5.802  15.545  15.210 -0.3327 -0.0749  0.2870
30419W        W47266   4.208   4.143   0.010 -0.0533 -0.0024 -0.1009
30420W        W47267  13.096  13.686  13.677 -0.0734  0.1823  0.1439
30421W        W47268  11.349   9.754   0.910  0.1988 -0.2515  0.1850
30422W        W47269  16.868   1.705   0.619  0.0946 -0.1319  0.0425
30423W        W47270   2.685   5.361   0.238 -0.0118 -0.2243 -0.2528
30424W        W47271   3.257  12.709   5.864  0.1657 -0.0836 -0.0836
30425W        W47272   7.841   3.085  14.927  0.1674  0.3682  0.1757
30426W        W47273  12.842   9.217   6.217  0.0016  0.0396 -0.1102
30427W        W47274   3.135  14.390   4.018  0.0821 -0.0177  0.0042
30428W        W47275  11.309  10.222   0.609 -0.1755  0.2597  0.1785
30429W        W47276  12.674   4.339   3.935 -0.0174 -0.1202 -0.2685
30430W        W47277   6.371   6.820  14.769  0.0856  0.0001  0.0848
30431W        W47278  14.600   3.313  13.669  0.1280  0.1979  0.1108
30432W        W47279   1.912  14.566   0.250  0.0259  0.1566  0.2971
30433W        W47280  11.910  10.124   3.724 -0.4443 -0.1908 -0.2418
30434W        W47281   3.221   3.978  14.866  0.0334  0.1935 -0.0183
30435W        W47282   8.118   0.704   1.553 -0.1655  0.0584  0.2994
30436W        W47283   0.799   9.773   2.704 -0.2176 -0.2708  0.0096
30437W        W47284  15.190   2.715   1.018  0.0555 -0.1582  0.1400
30438W        W47285  15.587   2.653  15.683  0.0361  0.3506  0.0255
30439W        W47286  16.336   9.232   4.752 -0.1999 -0.0951 -0.0294
30440W        W47287   3.772   6.539   0.699 -0.0654  0.0836 -0.0663
30441W        W47288  16.870   3.080   3.281  0.0940  0.1520 -0.2717
30442W        W47289   8.581   5.848   3.259  0.1206  0.3174  0.1273
30443W        W47290   9.390   9.735  16.011  0.2041 -0.3308  0.0213
30444W        W47291  17.678   9.863   5.412  0.1589 -0.0095 -0.1003
30445W        W47292   3.489   4.372  12.583 -0.0988 -0.0920 -0.0106
30446W        W47293   1.022  12.609  12.750  0.0606  0.0668  0.2683
30447W        W47294  17.629   4.437   1.303  0.0940  0.3902  0.0435
30448W        W47295   5.397  10.188   1.154  0.0285  0.3787 -0.0336
30449W        W47296  17.507  11.948   2.259 -0.2319  0.2785 -0.0211
30450W        W47297   7.374   4.597  15.266 -0.0089 -0.1018 -0.1131
30451W        W47298   2.365   5.143   5.314 -0.1639 -0.0351 -0.0559
30452W        W47299  14.938   0.570  12.412 -0.1635 -0.0092 -0.1767
30453W        W47300  16.001   7.127   2.719 -0.1806  0.1304 -0.1410
30454W        W47301   7.185  16.173   0.872 -0.1474  0.2074  0.0381
30455W        W47302   8.177  15.868  11.822 -0.0984 -0.1968 -0.2877
30456W        W47303  17.665   2.385  10.982 -0.4901  0.0943 -0.0223
30457W        W47304   3.994  17.824  14.059  0.1162  0.1219  0.0460
30458W        W47305  11.259  15.196   3.532  0.0237  0.1656 -0.0526
30459W        W47306   5.023  16.071   5.253  0.1553 -0.4063 -0.2109
30460W        W47307  14.315  15.489  16.152 -0.2758  0.1748  0.1409
30461W        W47308   2.065  10.184   2.545  0.0364 -0.1070 -0.2511
30462W        W47309   0.925   4.077  13.841 -0.4160 -0.0549 -0.1307
30463W        W47310  12.048   5.393  13.251  0.1271 -0.1805  0.0763
30464W        W47311  13.881   7.804  12.841  0.1156 -0.0856 -0.0152
30465W        W47312   3.981   5.709  15.153  0.0909 -0.2302 -0.0741
30466W        W47313  12.921   2.094   1.117  0.0217 -0.0166  0.0684
30467W        W47314   3.988   5.440  15.639 -0.1065  0.1406  0.0041
30468W        W47315   1.335  13.424   0.650  0.0759  0.0480 -0.1748
30469W        W47316   7.178   5.475  12.402  0.0610 -0.4699 -0.3304
30470W        W47317  10.277  14.853   5.685 -0.3228  0.0185 -0.1694
30471W        W47318   7.603   4.333   2.544  0.0037 -0.2191  0.0366
30472W        W47319  16.691   1.821  13.746 -0.1095  0.1074  0.1677
30473W        W47320   5.016   6.832   2.223  0.1928  0.0578  0.0393
30474W        W47321  12.773   9.903  12.753 -0.0771  0.1373 -0.0502
30475W        W47322   5.401   1.530  13.454 -0.2458  0.2287  0.2130
30476W        W47323   9.069  11.214   2.640 -0.0754 -0.2444 -0.4618
30477W        W47324   7.931  17.174  13.296  0.0976  0.1133  0.0428
30478W        W47325  16.944   9.624  15.864 -0.0564  0.0859 -0.2484
30479W        W47326  12.938   7.159   3.139  0.1767 -0.2076  0.1331
30480W        W47327   2.889   2.712   0.798 -0.0945 -0.3234  0.2396
30481W        W47328  16.748  16.100   0.931 -0.2373 -0.1243  0.1873
30482W        W47329  12.217  17.181  12.528 -0.1665 -0.0277  0.1143
30483W        W47330   6.571   7.511   5.931  0.1267 -0.2461 -0.1054
30484W        W47331  16.192  17.847  13.828 -0.0098  0.2423 -0.0775
30485W        W47332  15.606   3.639   1.423  0.0453 -0.1356 -0.3431
30486W        W47333  12.537  17.681   3.931  0.0117 -0.3445  0.2102
30487W        W47334   7.064   8.932   1.558 -0.2722  0.1984 -0.2090
30488W        W47335  12.437   7.815   0.593 -0.2465  0.2299 -0.1113
30489W        W47336  13.842   0.507   3.067  0.0974 -0.3065 -0.0929
30490W        W47337   0.178   8.717  15.552 -0.0695  0.0168 -0.2398
30491W        W47338   3.289   9.080   0.600 -0.2446 -0.1000  0.1092
30492W        W47339  13.708  13.255  12.488  0.1858 -0.1680  0.0588
30493W        W47340   9.806  11.367   1.703 -0.1238 -0.0016 -0.3583
30494W        W47341   3.401   9.301   2.723  0.2119 -0.2374  0.1242
30495W        W47342  11.321  10.814  11.359 -0.0125  0.1375 -0.2893
30496W        W47343   8.459   2.260   0.661 -0.0009 -0.0710  0.1613
30497W        W47344  16.199  12.429   5.951 -0.0326 -0.0685 -0.1126
30498W        W47345  13.089  15.423   4.517  0.1767  0.0656  0.1401
30499W        W47346   5.859   9.434   2.265  0.3819 -0.3499 -0.2287
30500W        W47347  17.171   8.463  14.846 -0.1203  0.0795  0.1590
30501W        W47348  17.380  13.789  14.657 -0.0009 -0.0643  0.2406
30502W        W47349   3.651   2.291  14.195 -0.1209 -0.1681 -0.1210
30503W        W47350   9.825   5.347   3.489 -0.2864 -0.3810 -0.0233
30504W        W47351  10.365   0.729  13.359  0.0819  0.3922  0.0955
30505W        W47352  13.165  12.561   1.645 -0.3555 -0.0916 -0.2468
30506W        W47353   9.932   2.620   3.300  0.3619  0.1121 -0.3139
30507W        W47354   9.685   0.569  13.489 -0.0642  0.0110  0.2407
30508W        W47355  16.945   3.460   0.678 -0.0097 -0.2070  0.2764
30509W        W47356   3.154   1.954  15.441 -0.1339 -0.3054 -0.0141
30510W        W47357   7.143   8.286   2.896 -0.1118 -0.0180 -0.0712
30511W        W47358  13.768  10.641  14.343 -0.1963 -0.0074 -0.0238
30512W        W47359   8.382   8.343  13.491  0.1874  0.0429 -0.0475
30513W        W47360   7.587  15.785   4.566 -0.1400  0.2999 -0.3494
30514W        W47361  13.587  14.064   4.779 -0.0404  0.0261 -0.2071
30515W        W47362   2.127  13.309   1.771  0.1893  0.1696 -0.0621
30516W        W47363   5.762  13.134   4.873  0.0357  0.1549  0.2199
30517W        W47364  10.943   9.995   3.147 -0.3877  0.0473 -0.2013
30518W        W47365   6.646   3.898  15.393 -0.3047 -0.1826 -0.0740
30519W        W47366  13.866  16.077  11.798  0.2068  0.0596  0.0360
30520W        W47367   3.994   5.060   3.907 -0.2000  0.1115  0.0501
30521W        W47368   4.650   1.021  11.308  0.0671 -0.1443 -0.2470
30522W        W47369   9.167  16.532  11.186  0.3169 -0.0711  0.0517
30523W        W47370   2.159  17.360   5.047 -0.2145  0.0898  0.0240
30524W        W47371   1.884  10.311   0.618 -0.0007 -0.0861  0.0243
30525W        W47372   1.448  11.498   4.745 -0.0494  0.2762  0.2113
30526W        W47373   5.477  17.616   2.758  0.3837 -0.1519 -0.2121
30527W        W47374   5.860   7.700  15.658  0.2984 -0.2415 -0.0055
30528W        W47375   9.555  14.423   6.262 -0.2192  0.0004  0.1391
30529W        W47376   8.838  10.358   5.094 -0.0884 -0.0360 -0.0406
30530W        W47377  11.114   6.014   0.284  0.0434  0.2896  0.1249
30531W        W47378   6.662   0.089  14.329  0.2439  0.2714 -0.0692
30532W        W47379   9.417   0.937  13.245 -0.0354 -0.0244  0.2018
30533W        W47380  11.029   9.718   2.747  0.0935  0.0657 -0.0963
30534W        W47381   2.649   8.094  15.286  0.0711  0.1182 -0.0168
30535W        W47382   3.359  10.114  15.475  0.2799  0.2164  0.0543
30536W        W47383  15.979  12.974   0.894 -0.0900  0.0329  0.3318
30537W        W47384  17.301   6.832   4.227  0.3634  0.1603 -0.0092
30538W        W47385   7.721  10.259  14.203 -0.0991  0.0031  0.2235
30539W        W47386  15.686  13.649  16.337 -0.1629  0.2406 -0.0324
30540W        W47387   1.181   8.909  12.997  0.1227  0.0217 -0.1963
30541W        W47388   3.724   6.780   5.481 -0.0614  0.2289  0.0619
30542W        W47389  11.942  10.152   0.511  0.1522  0.0027  0.0791
30543W        W47390   7.579  12.623   4.755  0.2336  0.1294 -0.2175
30544W        W47391  16.163  14.653  13.548 -0.0917 -0.1872 -0.0799
30545W        W47392   4.142   2.844  12.083 -0.0748  0.0693 -0.0736
30546W        W47393  16.077   7.017   0.881 -0.1067  0.0316  0.0901
30547W        W47394   0.007   1.387  12.418  0.1358 -0.1222 -0.1347
30548W        W47395  11.769  15.991   3.874 -0.0938 -0.2060  0.0031
30549W        W47396   9.157  17.008   4.346 -0.3845 -0.0817  0.0035
30550W        W47397   5.106   4.869   1.491  0.1599 -0.0489 -0.0539
30551W        W47398  12.580  16.384   2.475  0.1041 -0.0473  0.1278
30552W        W47399   7.601   9.396  14.194  0.0472  0.1780 -0.0801
30553W        W47400   5.148   7.244  15.407  0.2668  0.0949 -0.3229
30554W        W47401   9.204  14.826   2.102 -0.0055 -0.2731 -0.3619
30555W        W47402  14.175   8.595  14.951  0.1446  0.0002 -0.0167
30556W        W47403   3.421  13.822  12.338 -0.1419 -0.0375  0.0105
30557W        W47404   8.972   5.337   1.948 -0.0383  0.0792  0.1666
30558W        W47405  13.724  17.344   5.764 -0.0534 -0.0812  0.1780
30559W        W47406   6.720   6.889  13.428 -0.0753 -0.3450 -0.2637
30560W        W47407   1.545   1.642   4.033  0.0532  0.2370  0.1694
30561W        W47408  12.478   2.885   5.568  0.1208  0.2046 -0.0468
30562W        W47409   2.585  17.775  13.056 -0.2069  0.1590  0.4410
30563W        W47410   2.666   3.973  12.424 -0.1670  0.0848 -0.2183
30564W        W47411   7.679  14.713   0.774 -0.1967  0.1261  0.1833
30565W        W47412   9.920   7.202   5.322  0.0889 -0.1608  0.0489
30566W        W47413   0.965   6.438   1.584  0.0836 -0.0818 -0.0358
30567W        W47414   2.962  14.203   5.755 -0.2721  0.0944 -0.0235
30568W        W47415  12.810  10.143   4.348  0.1878  0.1325  0.3137
30569W        W47416  16.097  11.229  14.417 -0.3329 -0.1308 -0.1772
30570W        W47417   9.240   0.028  13.734 -0.2935  0.1666  0.2963
30571W        W47418  15.808  13.052  13.618 -0.0979 -0.0811  0.0268
30572W        W47419  11.726   2.276  11.865 -0.1950  0.1409  0.1686
30573W        W47420  14.855  10.328  16.034 -0.0863 -0.1392  0.1604
30574W        W47421  16.383   5.201  13.690 -0.2262 -0.2754 -0.0964
30575W        W47422   4.552   6.652  12.821  0.0152  0.0251  0.1193
30576W        W47423  14.943  15.350  13.492 -0.1797 -0.0817 -0.1829
30577W        W47424  14.548   4.996   2.481 -0.1259  0.2360  0.0630
30578W        W47425  17.924  17.320   4.871 -0.0729 -0.2453  0.0737
30579W        W47426  15.686   6.746   5.191 -0.0939  0.0540  0.0437
30580W        W47427  11.242   6.932   4.497  0.2260 -0.1565  0.3129
30581W        W47428   5.555   1.649   0.978  0.0290  0.0422  0.1420
30582W        W47429  13.268   7.977   4.111 -0.2265 -0.2641  0.1614
30583W        W47430  16.950   5.386  16.534  0.1270  0.0017  0.2451
30584W        W47431  13.659  12.659  16.515 -0.1395 -0.0546  0.0513
30585W        W47432   4.001   6.303   3.683  0.1619 -0.0305 -0.1260
30586W        W47433  17.147   2.373   0.217 -0.1890 -0.2328 -0.0321
30587W        W47434  10.128   3.427   2.762  0.2284 -0.0833  0.2814
30588W        W47435  14.239   7.781  16.557 -0.0790 -0.2412 -0.0358
30589W        W47436   9.977  16.378  12.189  0.0665  0.1095 -0.4287
30590W        W47437   2.553   2.606  13.531 -0.1458  0.1037 -0.2737
30591W        W47438   5.157  13.665   4.956 -0.0779 -0.0239  0.0302
30592W        W47439   3.382  17.460   3.559 -0.2144 -0.1285 -0.0119
30593W        W47440   9.728  11.448  12.225 -0.3060  0.0927  0.2426
30594W        W47441   2.827   7.233   1.995 -0.1120 -0.0566  0.1159
30595W        W47442   3.286   6.078   3.475 -0.0959 -0.0225 -0.0171
30596W        W47443  16.557   9.816  16.214 -0.0762  0.0279  0.0667
30597W        W47444   6.950   8.365   3.761  0.2544  0.0158  0.1676
30598W        W47445   3.977   5.642   4.903 -0.0582  0.0809  0.1610
30599W        W47446   7.577  13.147   1.248 -0.1936 -0.1820  0.1898
30600W        W47447   5.770  11.759   0.705 -0.0043  0.0297  0.3871
30601W        W47448   2.630  12.263   3.497 -0.0546 -0.1519  0.1510
30602W        W47449  12.460   1.027   3.306 -0.1340 -0.3580 -0.2759
30603W        W47450  10.653  17.837  13.831 -0.1853  0.0262  0.0720
30604W        W47451   0.589   2.403   3.358  0.2095  0.0670 -0.1455
30605W        W47452   1.402   4.940  16.723  0.1272 -0.3249 -0.1075
30606W        W47453  12.913  15.647  16.580 -0.1251  0.2063  0.2076
30607W        W47454  15.546  14.988   0.469  0.1931 -0.0126  0.1338
30608W        W47455   3.592  10.519   0.539  0.1227  0.1328 -0.1787
30609W        W47456  17.450  16.955   1.204  0.1024  0.0792 -0.1444
30610W        W47457  10.973   4.158   0.609 -0.2447  0.1532 -0.4195
30611W        W47458   0.482   3.494  11.813  0.1469  0.1447  0.0373
30612W        W47459  12.506   5.310  13.018  0.1280 -0.2310  0.0724
30613W        W47460  17.764  17.414   1.358  0.2905  0.0119  0.0681
30614W        W47461  10.860   2.840  11.443 -0.1499  0.0707 -0.0742
30615W        W47462   9.854  11.446   4.395  0.0216 -0.1889  0.0609
30616W        W47463  12.382   8.897  16.115  0.1966 -0.4270 -0.0945
30617W        W47464   2.093  12.523  14.330 -0.0357  0.1156  0.0302
30618W        W47465   2.185  14.869   5.533 -0.1208  0.2258 -0.3008
30619W        W47466  16.853  15.936   1.387  0.3867 -0.0488 -0.1584
30620W        W47467   2.550   7.443   2.342 -0.3485  0.0119 -0.0185
30621W        W47468   6.379   7.870   4.236  0.4019  0.1294 -0.2328
30622W        W47469   3.303  11.448   3.267 -0.1780  0.0277  0.0982
30623W        W47470  15.692  11.165  11.806 -0.0375 -0.0036 -0.0166
30624W        W47471  16.556   4.998  12.600  0.1580 -0.0664  0.2035
30625W        W47472   7.024  16.080  12.247  0.3753 -0.1174  0.3668
30626W        W47473   7.127  13.518   1.102  0.1954 -0.2224 -0.0477
30627W        W47474  14.934   1.073   3.525 -0.1581 -0.1629 -0.1022
30628W        W47475   4.079  10.196  13.031 -0.0858  0.1089  0.2416
30629W        W47476  15.291   6.194  11.725  0.1523  0.1889 -0.1233
30630W        W47477   6.452  11.441   0.668 -0.1659  0.1182  0.0582
30631W        W47478   7.911   1.488   2.767  0.3268 -0.3059 -0.1887
30632W        W47479   2.323  13.812  14.733  0.1080  0.3467 -0.0512
30633W        W47480   0.063   9.665  16.671 -0.1041 -0.0272  0.2121
30634W        W47481  14.909   1.540  12.149 -0.1781 -0.1396  0.1167
30635W        W47482   7.452  17.655  14.738 -0.3643  0.1567 -0.2243
30636W        W47483   0.082  14.504   3.085  0.0507  0.2348 -0.1112
30637W        W47484   6.254   3.894   5.684  0.2301 -0.0099 -0.0408
30638W        W47485  11.729   5.827  11.963  0.3186 -0.0619 -0.1069
30639W        W47486  12.937   2.817  14.101  0.1545 -0.0950  0.1478
30640W        W47487   7.673  12.193  12.632 -0.1650  0.1611  0.0870
30641W        W47488   7.567   1.245   5.372  0.0105 -0.0782 -0.0404
30642W        W47489  15.881  12.610  14.778 -0.0114  0.0084 -0.1321
30643W        W47490  10.923   4.388   2.317  0.3874  0.1784 -0.0898
30644W        W47491   5.676   4.980   5.888 -0.5087 -0.1703  0.3167
30645W        W47492   3.152   7.625   5.583 -0.0933  0.1121 -0.2130
30646W        W47493  13.078   2.756   3.627 -0.0480  0.0597 -0.2352
30647W        W47494   2.498   5.633   3.523 -0.1475  0.0079  0.3315
30648W        W47495   2.601   9.179  16.009  0.0160 -0.0179 -0.0685
30649W        W47496   6.585   8.121   0.593  0.0642 -0.2456  0.1891
30650W        W47497   8.236  14.335   0.065  0.1153 -0.2820 -0.2477
30651W        W47498  11.649  11.065   4.845 -0.2002 -0.3211 -0.2015
30652W        W47499   9.971   9.182   1.359  0.0478  0.1728 -0.1240
30653W        W47500   7.883   0.494   0.722 -0.2006 -0.0816 -0.2868
30654W        W47501  10.691  11.038  14.891  0.1441 -0.2590  0.3227
30655W        W47502   6.665   6.160   2.097 -0.0488 -0.0042 -0.0359
30656W        W47503  17.263   2.182   3.359 -0.0795  0.0968  0.2283
30657W        W47504  14.965   2.941   1.836  0.1164  0.2051  0.0128
30658W        W47505   2.573   8.893  13.962  0.0653  0.0347 -0.1646
30659W        W47506   2.494  15.285   2.909  0.2693  0.0047 -0.0738
30660W        W47507   1.686   4.920  15.667 -0.2099 -0.1613  0.3541
30661W        W47508  10.167  10.659   0.371 -0.0472 -0.3270  0.0545
30662W        W47509  14.204   0.622   4.076 -0.1202  0.1143  0.0836
30663W        W47510  14.880   5.335   3.834 -0.0256 -0.0319  0.3491
30664W        W47511  16.028   7.220  12.116 -0.1135 -0.2549 -0.3157
30665W        W47512  15.466   3.059  13.225 -0.2196 -0.0672 -0.0838
30666W        W47513  11.581  13.856  11.859 -0.3051 -0.0206  0.0590
30667W        W47514   7.204  15.426   4.860  0.2144  0.1155  0.2737
30668W        W47515  11.196  14.358   0.923  0.1100 -0.0149  0.3013
30669W        W47516  14.195   7.036  15.436 -0.0305 -0.1571  0.0008
30670W        W47517   4.197   0.776  12.740 -0.1552  0.0609  0.0394
30671W        W47518  17.651  12.586   4.197 -0.0962 -0.0307  0.2513
30672W        W47519  10.960  15.195  15.920  0.0419 -0.1376  0.0632
30673W        W47520  12.959   1.967  16.670 -0.0771  0.1607 -0.3054
30674W        W47521   5.806   3.724   4.852 -0.0350 -0.1758 -0.3115
30675W        W47522   0.603   3.433  16.488 -0.2283 -0.0673  0.3090
30676W        W47523  14.858  11.621  16.327  0.0147 -0.0804  0.1435
30677W        W47524  16.327   0.937  11.451 -0.2942  0.3139 -0.3043
30678W        W47525  12.111  13.871  12.152 -0.3754  0.0508 -0.0844
30679W        W47526   1.467  12.917  13.801 -0.0856 -0.0674  0.1607
30680W        W47527  16.826   3.759  11.613  0.0129  0.3556  0.1223
30681W        W47528  10.211   3.966   3.826 -0.1464 -0.4175  0.0838
30682W        W47529   7.636  11.660   3.812 -0.0869  0.0543 -0.2428
30683W        W47530  10.181   0.966  12.175 -0.2382  0.1007 -0.1139
30684W        W47531  16.296  14.575   2.854 -0.0754 -0.0813 -0.0759
30685W        W47532   3.727   3.833  12.745 -0.0755 -0.2774  0.0126
30686W        W47533   4.875  13.185   0.584  0.1311  0.0295  0.1264
30687W        W47534   5.651  10.308   5.424 -0.0122 -0.0935  0.0458
30688W        W47535  12.814  14.604  13.586 -0.0550  0.0775  0.0207
30689W        W47536  10.849   6.637  14.084 -0.3086 -0.0010 -0.1047
30690W        W47537  15.311  12.319   4.955 -0.1685  0.2709 -0.1397
30691W        W47538  14.208   2.100   0.554 -0.1740 -0.1156 -0.0406
30692W        W47539  10.432   2.912   1.046 -0.0793  0.1618 -0.1063
30693W        W47540   4.354  16.592   0.152 -0.1062  0.1041 -0.2289
30694W        W47541  15.610   6.355   5.530  0.0484 -0.1588 -0.1110
30695W        W47542  13.043  13.255   4.019  0.0225  0.1056 -0.0061
30696W        W47543  15.125   7.583   4.223  0.0721 -0.1392 -0.0369
30697W        W47544   4.484   7.147   0.734  0.1796  0.2200  0.0260
30698W        W47545   5.848   9.543   5.763 -0.0301  0.1594 -0.1845
30699W        W47546  10.430  17.443   1.224  0.0593 -0.0694 -0.1919
30700W        W47547  16.839  16.489  14.927  0.0589  0.0634 -0.0915
30701W        W47548  17.766  17.216   1.835  0.2180 -0.1386 -0.2096
30702W        W47549  13.838   3.395   5.498  0.0236  0.2839 -0.2209
30703W        W47550   6.299   8.566  12.300  0.0537 -0.1483 -0.4335
30704W        W47551   4.555   6.765  15.542 -0.1652  0.0130  0.0902
30705W        W47552   5.488   5.539   0.438 -0.0916  0.2345  0.0203
30706W        W47553  12.997   4.965  13.464 -0.3108 -0.0076 -0.0243
30707W        W47554  16.202  12.414  15.116  0.0644  0.2255  0.0764
30708W        W47555   6.020   1.534   4.763 -0.1391 -0.2367  0.2579
30709W        W47556   3.207   0.361  16.190  0.1952 -0.1521 -0.1079
30710W        W47557  12.313  17.571  13.625 -0.3716 -0.0106  0.0842
30711W        W47558   8.818  13.857   4.699 -0.3704 -0.2437 -0.2296
30712W        W47559   4.336  13.879  16.223  0.2333  0.2819 -0.0870
30713W        W47560  16.583   0.337  15.965 -0.2085 -0.2459  0.2222
30714W        W47561   2.104  11.059   2.143  0.1660  0.0304  0.0020
30715W        W47562  11.442  16.042  16.515  0.1284  0.0888 -0.1348
30716W        W47563   4.751   0.072   2.833 -0.0760 -0.0758 -0.4665
30717W        W47564  13.276   4.200  13.864  0.1058 -0.1383  0.0390
30718W        W47565   3.138  15.021   5.581  0.1550 -0.0592 -0.1049
30719W        W47566   8.582   9.150   0.062  0.1719  0.0244 -0.1759
30720W        W47567  16.034   4.397  13.096  0.3477  0.2628 -0.0004
30721W        W47568   2.908   7.984   1.359  0.2188  0.1657 -0.1547
30722W        W47569   2.509   5.778   1.100 -0.0022 -0.2267 -0.1488
30723W        W47570  14.067   7.035   0.982  0.0660 -0.2015 -0.1311
30724W        W47571  17.944   5.562   1.559 -0.0025  0.1242  0.0760
30725W        W47572   7.001   7.587   0.137  0.3266  0.0468 -0.1272
30726W        W47573  13.082   2.278   2.134 -0.0088  0.3622  0.0123
30727W        W47574   4.241   1.538  14.717 -0.0025 -0.1209  0.0214
30728W        W47575   2.157   2.595  13.227  0.0990 -0.0345  0.0129
30729W        W47576   5.769   5.355   1.734 -0.1705  0.0317 -0.0219
30730W        W47577  15.587   5.129  13.262 -0.2831 -0.1031  0.3043
30731W        W47578   8.459   9.774   4.335  0.2297 -0.1227 -0.0086
30732W        W47579  14.507   4.089  16.001  0.0867  0.0086  0.2658
30733W        W47580   1.778   4.117  10.875 -0.2006 -0.1431 -0.0224
30734W        W47581   9.993   3.788   0.173 -0.0658  0.1444  0.1547
30735W        W47582   6.711  11.585   3.345 -0.1223 -0.1935 -0.0577
30736W        W47583  10.232   5.896   4.633 -0.1744  0.0238  0.1139
30737W        W47584  10.027   4.233   1.178  0.0881 -0.1190  0.0532
30738W        W47585   2.727   8.131   2.940 -0.0857  0.0651  0.1900
30739W        W47586  17.023  14.851   4.661  0.0326  0.3737  0.1314
30740W        W47587   3.955  12.312  14.621  0.3006  0.1115 -0.0603
30741W        W47588  14.458  17.543   0.742  0.1091 -0.0057  0.0944
30742W        W47589   8.449  12.574   0.368 -0.2517  0.1370  0.0651
30743W        W47590  10.792  11.882  16.660  0.0214 -0.1714  0.2020
30744W        W47591  11.529   3.635  16.471 -0.1373 -0.1416  0.0541
30745W        W47592  12.730   7.951   4.880  0.1475 -0.0593  0.0046
30746W        W47593   5.684  16.976  12.777 -0.4083 -0.0179  0.0464
30747W        W47594  15.195   3.920   0.164 -0.0894 -0.0579  0.0218
30748W        W47595   6.247   2.698   2.695  0.0057  0.0238  0.1110
30749W        W47596  13.689   7.567   1.863 -0.3463  0.0636  0.1144
30750W        W47597   0.231   9.446   1.190 -0.1952 -0.2010 -0.1573
30751W        W47598   9.393   6.699  12.033 -0.2533  0.1678 -0.0679
30752W        W47599   6.089   4.902  15.376 -0.1624  0.1969  0.1617
30753W        W47600  14.754  11.044   3.311 -0.0813 -0.1963 -0.2515
30754W        W47601  17.110   3.411  11.881 -0.0998 -0.0589  0.1144
30755W        W47602  15.117   2.013   1.562  0.0498 -0.0751 -0.1465
30756W        W47603  14.579  13.933  16.635 -0.0026 -0.0703 -0.1116
30757W        W47604  17.306   7.101   4.630  0.0359  0.1844 -0.1515
30758W        W47605   4.679   4.130  14.133  0.0202 -0.3291 -0.0231
30759W        W47606   7.393   2.714  14.935 -0.0003 -0.1298 -0.3018
30760W        W47607   8.493   9.525   5.266 -0.0019 -0.1998 -0.3042
30761W        W47608   0.853   7.204   4.619 -0.1012  0.1193  0.0928
30762W        W47609   3.627   4.463  15.683  0.0521 -0.1260 -0.3642
30763W        W47610  16.513  12.784   2.852  0.1663 -0.1249  0.0400
30764W        W47611   4.078   2.586  12.568 -0.0110  0.0327  0.1823
30765W        W47612   3.348   1.038  11.214  0.1567 -0.0936 -0.1235
30766W        W47613   7.810   3.114  16.232  0.0510 -0.2696  0.0954
30767W        W47614  10.746   5.023   3.070  0.2812 -0.0040 -0.1174
30768W        W47615  10.610  17.796   2.169  0.1557  0.1034 -0.0340
30769W        W47616   9.197   7.832   2.098  0.0055  0.0733 -0.2153
30770W        W47617  12.376  11.356   1.165 -0.1214  0.0348 -0.1640
30771W        W47618   6.251  16.495  11.469 -0.0955 -0.1594  0.0351
30772W        W47619   4.138  16.108  15.008  0.0483  0.2727 -0.2148
30773W        W47620  11.191  14.682   1.723 -0.0838 -0.1608  0.0893
30774W        W47621   4.283  15.792  13.523 -0.0914 -0.1588  0.0890
30775W        W47622   6.512  17.056   1.753 -0.2466  0.2552  0.1210
30776W        W47623  16.778   3.733  13.598  0.1067 -0.3024  0.0856
30777W        W47624  14.505   1.550   5.662  0.1024  0.1222 -0.4376
30778W        W47625  16.137  14.505  16.134  0.2215 -0.0269  0.0165
30779W        W47626   1.027  10.804   4.781 -0.0653 -0.1179  0.0316
30780W        W47627  17.333   0.578   5.277 -0.0295  0.0656 -0.0311
30781W        W47628   0.887   7.663  14.635 -0.2716  0.1688  0.0334
30782W        W47629  11.575   6.448   1.921  0.0522  0.5367 -0.0115
30783W        W47630   1.805  16.384   1.319  0.0741  0.2724  0.1100
30784W        W47631  17.815  12.522   1.493 -0.1883 -0.1040 -0.1358
30785W        W47632  11.263  11.481  13.126 -0.2435 -0.2805 -0.1449
30786W        W47633   3.613   1.911   0.868 -0.0605 -0.2655 -0.2589
30787W        W47634  15.596   8.911  14.259 -0.2048  0.1012  0.2259
30788W        W47635  13.616   0.461   0.148 -0.1629 -0.2429  0.0172
30789W        W47636   8.059   5.707   0.893 -0.0438 -0.1309 -0.1220
30790W        W47637   8.694  10.840   2.655  0.1198 -0.1849  0.1158
30791W        W47638  13.902  14.289  13.652  0.3126 -0.3641 -0.1500
30792W        W47639  16.853   1.193  12.187  0.1062  0.0917 -0.0707
30793W        W47640   5.946  13.337  15.633  0.0720  0.0909  0.0763
30794W        W47641  14.525   1.099   5.502  0.2530  0.2254 -0.1483
30795W        W47642  16.615  15.409  11.965  0.1834  0.2456 -0.2612
30796W        W47643   0.289  14.129  12.459 -0.1482 -0.0508 -0.3966
30797W        W47644  16.928   0.264   5.015 -0.1377 -0.0808  0.0122
30798W        W47645   8.347  14.080  14.492  0.2826  0.3112  0.0215
30799W        W47646   8.662   8.857  12.842 -0.2885  0.2075  0.0730
30800W        W47647   9.156   2.360   2.209 -0.0157  0.3586 -0.0739
30801W        W47648   3.116   0.481   2.040 -0.1667 -0.1233 -0.1499
30802W        W47649   7.826   6.741  16.565  0.1363  0.0775 -0.1250
30803W        W47650   6.092   6.149  13.403  0.1531 -0.0035  0.0430
30804W        W47651  14.704  14.908  12.800 -0.1559  0.0811 -0.0627
30805W        W47652   5.555  15.223  15.594  0.3248 -0.1677 -0.1675
30806W        W47653   4.771   6.784   1.356 -0.1106 -0.2528  0.3215
30807W        W47654   6.211   9.029  15.217 -0.0426  0.0483  0.3145
30808W        W47655   0.756   1.495   4.968  0.0258 -0.1629 -0.0806
30809W        W47656   0.554  11.067   3.169  0.0410 -0.2286 -0.2721
30810W        W47657   4.917   4.956   2.410  0.2105 -0.0179 -0.0052
30811W        W47658  17.176   1.087   0.075 -0.0211 -0.0698 -0.1234
30812W        W47659   2.101  15.064  14.455 -0.0479  0.0565  0.0447
30813W        W47660  15.407  11.437  14.385  0.1972 -0.1262  0.1954
30814W        W47661   9.465  15.221   3.569 -0.0081  0.0294  0.2152
30815W        W47662  10.906  15.602   1.384 -0.0093  0.1577 -0.1761
30816W        W47663  14.513   9.659   0.328  0.0003  0.1930 -0.0226
30817W        W47664   5.068  17.291   1.193  0.0614  0.1100 -0.2090
30818W        W47665  13.800   4.726   1.111  0.3301  0.1867  0.2604
30819W        W47666  14.252   2.869  14.011  0.0582  0.1884  0.0742
30820W        W47667   0.539  11.550  14.889 -0.1255 -0.1391  0.0046
30821W        W47668  15.247  17.048  13.114  0.0127 -0.2511  0.0640
30822W        W47669   1.090  12.120  16.324  0.1074 -0.1659 -0.4659
30823W        W47670  12.373  11.085   1.901 -0.0867 -0.0234  0.0196
30824W        W47671  17.540  15.464  14.165  0.3164 -0.0147  0.1761
30825W        W47672   5.503   8.585   0.388  0.0546 -0.0668  0.1565
30826W        W47673   3.105  14.239  14.463 -0.3550  0.0371  0.1649
30827W        W47674  16.023   4.646  14.264  0.1179  0.0083  0.0362
30828W        W47675   5.544  14.759   3.538 -0.0211 -0.3328 -0.1448
30829W        W47676  12.145  15.497  13.384  0.1167 -0.2218 -0.2222
30830W        W47677  14.694  13.028   5.058  0.1909  0.3273 -0.0044
30831W        W47678  15.863   8.143  13.709  0.1314 -0.1491  0.2511
30832W        W47679   4.952   4.655  13.136  0.0283  0.1878 -0.0481
30833W        W47680  16.445  17.547   1.942  0.2470 -0.0541 -0.0221
30834W        W47681   1.949   9.118  16.731 -0.0400  0.0738  0.0478
30835W        W47682  11.180   2.306  13.438  0.0067  0.0490  0.0959
30836W        W47683   8.931  10.530  13.782  0.0434 -0.3753 -0.1410
30837W        W47684   4.995   9.978  12.759 -0.0267  0.0265 -0.1583
30838W        W47685  13.320   7.018   3.423  0.4562 -0.3056  0.1924
30839W        W47686   4.719  10.830  15.095  0.2803  0.0809 -0.1350
30840W        W47687  14.020   9.841   3.375 -0.0905  0.2862  0.0281
30841W        W47688   4.546   1.512  11.100 -0.2381  0.2309  0.0056
30842W        W47689  13.511   7.030   3.874 -0.3190 -0.2393  0.0028
30843W        W47690  13.244   2.952  16.663  0.1350 -0.3695 -0.0749
30844W        W47691   2.049   8.718  15.319  0.1377 -0.0791 -0.0354
30845W        W47692  11.891   8.352  12.957 -0.2814  0.0779 -0.0883
30846W        W47693  11.451   3.874   2.969  0.0361 -0.0925  0.3218
30847W        W47694   3.715   0.548  13.554 -0.2946  0.0021  0.3803
30848W        W47695   3.487  14.233  10.951  0.0326  0.2266  0.0637
30849W        W47696   2.243   2.136   2.414 -0.0106  0.1468  0.5301
30850W        W47697   5.279  11.413  13.762 -0.1691 -0.2473 -0.0634
30851W        W47698  12.668  16.773   5.535  0.0729 -0.1785  0.1587
30852W        W47699   3.034   3.170   2.505 -0.2350 -0.1265  0.3560
30853W        W47700   3.619   7.674  16.771  0.0644 -0.1052 -0.1396
30854W        W47701   8.633  15.265   0.142 -0.1172 -0.0303  0.1329
30855W        W47702  16.836  12.822  14.567  0.1032 -0.0310 -0.0737
30856W        W47703   8.503  17.952   5.064  0.0989 -0.0547  0.1334
30857W        W47704  17.692  15.769   0.700  0.1133  0.1014  0.1920
30858W        W47705   9.292   9.603   0.645  0.0013 -0.0726 -0.1323
30859W        W47706   5.647   0.183  15.183 -0.1715 -0.1607 -0.0295
30860W        W47707   5.644   1.946  12.290  0.2968 -0.2176  0.0434
30861W        W47708  16.888   0.798   0.562 -0.1732 -0.0552  0.1090
30862W        W47709  17.214  14.961   2.779 -0.0103  0.2322 -0.0708
30863W        W47710   0.262  12.079   4.943 -0.2227 -0.0589 -0.1681
30864W        W47711  14.087   2.977  15.519  0.1029 -0.1006 -0.0508
30865W        W47712   7.286  17.338  11.525 -0.1808 -0.0559  0.0110
30866W        W47713   4.020  15.933  10.361  0.2154  0.0076  0.0061
30867W        W47714  14.861   1.378   0.291 -0.1154  0.3517  0.2364
30868W        W47715  14.312  17.036  15.244  0.0743 -0.0768  0.0140
30869W        W47716   0.836  10.974  14.384  0.0971 -0.0998  0.0039
30870W        W47717   6.075  15.208  15.519 -0.2543  0.2705 -0.0699
30871W        W47718   6.747   5.075   1.593 -0.2425  0.0654 -0.2119
30872W        W47719   9.718   0.494  16.555 -0.1652 -0.0617  0.0012
30873W        W47720  11.345   9.573   1.904 -0.0277  0.0016 -0.1203
30874W        W47721   0.584   6.749  15.073  0.0682 -0.2221 -0.0543
30875W        W47722  16.298   0.953  16.658  0.1828 -0.0052  0.3502
30876W        W47723   2.506  12.759  16.518 -0.0211  0.3478 -0.2031
30877W        W47724  16.081   7.072  13.066 -0.2179  0.0556 -0.1065
30878W        W47725  11.846  13.136   1.912 -0.1475 -0.1178 -0.1218
30879W        W47726   7.835  13.764   1.033 -0.2264 -0.3086  0.0444
30880W        W47727  12.795   0.538  12.784 -0.1041 -0.2228 -0.4040
30881W        W47728   0.576   7.870  11.865 -0.1557 -0.1409 -0.1458
30882W        W47729   4.125  14.676  12.923  0.1405 -0.1022 -0.0012
30883W        W47730   9.702   6.449  14.668 -0.0220 -0.2483  0.1612
30884W        W47731   4.238  14.915  14.487 -0.0980 -0.3539  0.0659
30885W        W47732  13.437   9.150   2.687 -0.5943 -0.2194  0.2417
30886W        W47733  11.503   5.383   1.537  0.0290  0.0822 -0.0192
30887W        W47734  17.213   5.970   5.547 -0.0539  0.2239 -0.0298
30888W        W47735  17.593   5.788  11.838  0.0355  0.1051 -0.3231
30889W        W47736   9.839  15.846   4.946  0.2554 -0.2322 -0.1733
30890W        W47737  15.953   9.940   2.148 -0.2219  0.2086 -0.1434
30891W        W47738  12.457   7.748   1.112  0.0946  0.0547  0.4380
30892W        W47739  10.323   5.178   5.339 -0.3572  0.0334  0.1094
30893W        W47740  13.625   1.519  14.879  0.1003  0.0310  0.1662
30894W        W47741  17.391  16.410   2.616 -0.0617  0.1477  0.3897
30895W        W47742  13.989   8.873   4.506  0.0488  0.2256 -0.3502
30896W        W47743   6.825  12.816   3.439 -0.0739 -0.1723 -0.0722
30897W        W47744   1.085   7.926  12.236  0.1571 -0.0448  0.1667
30898W        W47745   3.332  16.209   3.281 -0.0062  0.1163 -0.0310
30899W        W47746   6.223   5.494   0.942 -0.0560  0.0089 -0.0478
30900W        W47747   0.082  12.024  16.349 -0.2977 -0.0285  0.4238
30901W        W47748  17.897  13.128  13.873 -0.3227 -0.4791 -0.0233
30902W        W47749  10.119   2.225  16.180 -0.2446  0.1759 -0.1790
30903W        W47750  10.631  12.797   1.443  0.1321  0.3345 -0.0992
30904W        W47751  11.454  17.650  12.911  0.2986 -0.2329 -0.0477
30905W        W47752  13.046  10.039  13.372 -0.2500 -0.0856 -0.0538
30906W        W47753   4.554   8.300   4.489 -0.1727 -0.1147 -0.1319
30907W        W47754   2.251  11.030   1.681 -0.0149 -0.0121 -0.1372
30908W        W47755  11.902  16.446   3.249  0.0209 -0.1690 -0.1207
30909W        W47756   3.847   2.447  12.162  0.4542  0.4645  0.0542
30910W        W47757  11.335  16.494  16.269 -0.1064 -0.0679 -0.0280
30911W        W47758  13.733   5.783   4.582  0.2493  0.2891 -0.1429
30912W        W47759   6.110  13.641  16.007  0.2048 -0.4301  0.0428
30913W        W47760  10.249   2.966   2.900 -0.0062 -0.1157  0.3494
30914W        W47761  13.087  15.595   3.249 -0.0454 -0.1339  0.0018
30915W        W47762  14.308   7.213  14.860  0.0434 -0.0328  0.0507
30916W        W47763  14.686  15.887   0.938  0.0670 -0.0200  0.0046
30917W        W47764   7.285   6.083   0.273 -0.1036 -0.1307 -0.2019
30918W        W47765  10.435  15.613   3.561  0.0476  0.3067  0.1813
30919W        W47766   0.430   3.470   1.794  0.1156 -0.1045  0.0901
30920W        W47767   3.683   8.291   0.727  0.2492  0.0375  0.2563
30921W        W47768  10.429  12.024  12.017  0.0405 -0.0339 -0.0557
30922W        W47769   0.519  10.541   4.740  0.0402  0.1061  0.0727
30923W        W47770   5.229   3.543   3.750 -0.0668  0.2050 -0.1815
30924W        W47771  12.918   5.558  16.512 -0.4232 -0.0568 -0.3433
30925W        W47772  12.658   6.163  13.044 -0.2638  0.0022 -0.1971
30926W        W47773  14.838  10.364  15.511 -0.0261 -0.0657 -0.0773
30927W        W47774  17.164   7.891   2.103 -0.2038 -0.1650 -0.1672
30928W        W47775  10.236  13.333  13.583 -0.2065 -0.2362 -0.2412
30929W        W47776   9.785   1.062   2.299  0.2849 -0.1116 -0.2733
30930W        W47777  10.339  14.628  16.469  0.0022  0.2544 -0.2716
30931W        W47778  12.307   4.067  12.942 -0.1580 -0.1577  0.2168
30932W        W47779  14.851  11.823   5.593 -0.1196  0.2002  0.0066
30933W        W47780  17.569   3.246   1.776 -0.0023 -0.1254 -0.3482
30934W        W47781  17.349  11.140   2.644  0.0752  0.1017 -0.2084
30935W        W47782   8.703  13.397  13.583  0.1031  0.1680 -0.1418
30936W        W47783  11.605  13.337  15.321  0.1658 -0.0775  0.1559
30937W        W47784  10.965   2.559   2.546 -0.1550  0.0481 -0.1530
30938W        W47785   1.961   4.958   2.096 -0.0228  0.0330  0.0714
30939W        W47786   8.603   7.153  16.128  0.1211 -0.1028  0.0348
30940W        W47787   2.336  13.453  15.355 -0.0105 -0.0340 -0.0890
30941W        W47788  14.774   1.344   4.563 -0.0453 -0.2972  0.2247
30942W        W47789   8.573  12.628   5.524  0.4295 -0.0463 -0.0539
30943W        W47790   2.221  17.323   3.408 -0.1258 -0.4101 -0.2359
30944W        W47791   2.631   5.624   6.049  0.3207  0.0654 -0.2461
30945W        W47792   8.345  13.560   1.806 -0.1722 -0.0741 -0.1444
30946W        W47793  14.857  16.835  13.908  0.1266  0.1882  0.2153
30947W        W47794  10.621  15.679   0.591 -0.0848  0.1528  0.0090
30948W        W47795   6.930  15.640   2.038  0.0465 -0.1816 -0.0394
30949W        W47796   6.395  16.944   0.747 -0.1153  0.3314  0.0601
30950W        W47797   8.423   3.336   1.713  0.1185  0.2431  0.0938
30951W        W47798  17.006  17.236   5.080 -0.1064 -0.2294 -0.1016
30952W        W47799   2.585   2.255  13.178  0.0755 -0.0391 -0.0709
30953W        W47800  17.810   4.388  16.207 -0.0242 -0.1421 -0.2501
30954W        W47801   8.106   0.370   1.159 -0.2866 -0.1865 -0.2279
30955W        W47802   4.156   2.816   3.707  0.2728  0.1377 -0.0110
30956W        W47803  13.439  16.653   4.096 -0.3545 -0.3522  0.1751
30957W        W47804   6.538   1.777   2.853  0.2628  0.3096  0.2628
30958W        W47805   7.822   1.215  13.583  0.0648  0.0783 -0.1887
30959W        W47806  13.071   0.849  13.670  0.2173  0.2408  0.1223
30960W        W47807   1.972   9.809   0.458  0.2344  0.2702  0.0799
30961W        W47808   2.735  12.958   2.311  0.0496 -0.1316 -0.3328
30962W        W47809   9.937   2.087  14.260 -0.2054  0.1088 -0.0911
30963W        W47810  15.485   4.107   0.950 -0.1355  0.2636 -0.0474
30964W        W47811  12.165  10.492   2.372  0.1144  0.0986 -0.0309
30965W        W47812   3.840   3.417   1.561  0.3046 -0.1634  0.0045
30966W        W47813  16.086   7.255   2.238 -0.0385  0.2946 -0.2378
30967W        W47814   4.111   1.102   1.164  0.0441  0.0606  0.0626
30968W        W47815  17.228   1.135   3.541  0.1878 -0.1654  0.3112
30969W        W47816  13.201   6.517   4.591 -0.1490 -0.2032  0.2794
30970W        W47817  17.657   4.538  11.974 -0.1306 -0.0625 -0.1953
30971W        W47818   2.280   8.796  12.842 -0.0591  0.0657 -0.2868
30972W        W47819   7.340  16.252  11.888 -0.1097  0.3941 -0.2978
30973W        W47820   0.810   4.201   6.089  0.0161 -0.2929  0.0663
30974W        W47821  11.657   1.420  12.232 -0.0673  0.2629  0.0161
30975W        W47822   3.246   3.554  11.240  0.0435 -0.3779 -0.0196
30976W        W47823   2.134  10.464  14.088 -0.0982 -0.1749 -0.0595
30977W        W47824   8.568   6.305  16.083 -0.0364  0.4634  0.2010
30978W        W47825  12.830  15.089  13.404  0.2405  0.2389  0.1109
30979W        W47826  11.844   2.020   5.139  0.4576  0.1389 -0.1466
30980W        W47827  17.687   0.346   4.486  0.0460  0.0758 -0.1886
30981W        W47828   0.153  13.868   0.496  0.0903  0.0283  0.0251
30982W        W47829   2.068   7.652   2.542 -0.0240  0.1142  0.0098
30983W        W47830   1.194   3.581   1.752 -0.0274 -0.0267  0.1208
30984W        W47831   5.805   7.866   0.825 -0.2969  0.0397  0.2143
30985W        W47832   2.322   9.416  13.192  0.3863  0.0792 -0.0115
30986W        W47833   1.676   4.112   2.440  0.1048 -0.3746 -0.0602
30987W        W47834  12.595   2.880   1.440  0.0026 -0.2787 -0.3401
30988W        W47835  13.856  10.785  13.871  0.1117 -0.0067  0.3714
30989W        W47836  16.831  16.913   0.359 -0.1653  0.0597 -0.1210
30990W        W47837   8.018  13.617   5.959  0.0425 -0.2107  0.0084
30991W        W47838  16.954  12.892   0.799  0.0131 -0.2641  0.0536
30992W        W47839  10.744   1.587  12.309 -0.0168 -0.0316 -0.1714
30993W        W47840  13.313   3.067  15.482 -0.0751 -0.0693  0.3677
30994W        W47841  10.323  13.609   0.399 -0.0530 -0.0560  0.4008
30995W        W47842   0.654   7.850  13.647 -0.1536 -0.0246  0.3229
30996W        W47843   5.197  13.122  12.755 -0.1423 -0.0852 -0.2236
30997W        W47844  10.691   5.060   1.694  0.1434  0.0607 -0.1612
30998W        W47845   5.113   7.602   1.421  0.5321 -0.1009  0.2200
30999W        W47846  10.091  15.020   1.056  0.0789  0.4334 -0.1014
31000W        W47847   1.545  15.918  13.623 -0.0348 -0.0001  0.0992
31001W        W47848  15.937  12.937  15.190  0.1260 -0.3743 -0.0535
31002W        W47849  11.786  16.586   0.484 -0.2413  0.1944  0.0813
31003W        W47850  10.505   4.797  11.704 -0.1364 -0.1724 -0.1383
31004W        W47851   6.827   2.497   4.724  0.1935  0.0098 -0.2973
31005W        W47852  14.080   6.715   3.207  0.1178  0.0503 -0.4189
31006W        W47853  10.010   9.875   2.732  0.2014 -0.0266  0.1809
31007W        W47854   5.974   3.388  13.496  0.0350 -0.0571 -0.0938
31008W        W47855  16.554   1.113   4.628  0.0629 -0.0910  0.1613
31009W        W47856   1.307  12.111   2.319  0.0775 -0.2517 -0.0057
31010W        W47857   2.247  15.490   1.281 -0.1270  0.1595 -0.0768
31011W        W47858   3.346   0.609  12.290 -0.1396 -0.2513 -0.0505
31012W        W47859  12.417   5.966  14.343  0.1374 -0.0766 -0.0935
31013W        W47860  15.518   0.548   1.630  0.0097  0.0924  0.0686
31014W        W47861   2.472   7.352  16.369  0.2135 -0.1228  0.0613
31015W        W47862  10.870   8.137   5.471  0.3923 -0.0568 -0.2666
31016W        W47863  12.726  10.461  15.030  0.0313  0.0276 -0.0763
31017W        W47864  13.884   7.751  12.115 -0.0738  0.1135  0.0573
31018W        W47865   0.786   1.638   0.683 -0.1523 -0.1515 -0.1608
31019W        W47866   4.732   4.842  11.842 -0.0798 -0.1647 -0.1288
31020W        W47867   7.470   8.211  14.273  0.2748  0.3274 -0.0248
31021W        W47868   1.482   1.830   5.643 -0.0841  0.1681  0.1827
31022W        W47869   2.089   1.256  12.988  0.0249  0.2633  0.0103
31023W        W47870   4.143  17.630  10.278  0.1499  0.0942 -0.2080
31024W        W47871   3.853  13.328   2.747  0.1557  0.2502  0.1056
31025W        W47872  17.121  10.927  15.428 -0.0579 -0.1785  0.1863
31026W        W47873   4.163   0.622   0.893 -0.1885  0.3109 -0.0993
31027W        W47874  17.426  11.301  15.649  0.0623 -0.0517  0.0739
31028W        W47875   2.694   4.293  16.563 -0.2251 -0.2448  0.0733
31029W        W47876   2.453   9.016   3.975  0.2926 -0.2024 -0.3234
31030W        W47877   6.001  16.252  11.147  0.0434  0.0908  0.0052
31031W        W47878  13.809   3.572   0.158 -0.2195 -0.5069  0.2244
31032W        W47879   7.913   1.139   1.439 -0.0826 -0.0449 -0.0266
31033W        W47880   9.984   0.163  16.356  0.2576  0.0049  0.0508
31034W        W47881   4.974  11.822   3.805 -0.1776  0.1555 -0.2873
31035W        W47882   2.943   7.039   0.827  0.0457  0.0936  0.1384
31036W        W47883   1.794   1.299  13.471  0.2812 -0.0463 -0.3556
31037W        W47884  16.707   2.283   1.233 -0.0050  0.0004 -0.0912
31038W        W47885   2.747  15.963  12.346  0.2016  0.0564 -0.1204
31039W        W47886   1.411  11.303   1.578 -0.0551  0.2220  0.0857
31040W        W47887   1.052   2.405   3.178  0.1288 -0.0026 -0.0022
31041W        W47888   8.216   9.824  15.630  0.0429  0.1023 -0.2553
31042W        W47889   1.775  14.130   1.188 -0.0176 -0.1452  0.0096
31043W        W47890  17.254  12.388   2.704 -0.0016  0.4326 -0.2200
31044W        W47891  11.448  14.262   2.876 -0.2060 -0.0333 -0.1171
31045W        W47892  16.934   0.118  16.750  0.5137 -0.0895  0.0621
31046W        W47893  10.214  16.760  16.102 -0.0957  0.0173  0.2168
31047W        W47894   1.318   1.797   2.188 -0.1618 -0.1669  0.2624
31048W        W47895  14.588   9.063   1.484  0.0285  0.0777 -0.3292
31049W        W47896  11.778   5.846   4.574 -0.0871  0.2599 -0.0803
31050W        W47897   6.747   0.705   1.025  0.0709  0.1571  0.1485
31051W        W47898  13.278  17.111   4.015  0.1398 -0.0613  0.0611
31052W        W47899  16.146   3.325   2.614 -0.0298  0.1173 -0.0405
31053W        W47900   8.601   3.660   4.739  0.0571 -0.0218 -0.2500
31054W        W47901   7.740   7.917   0.717 -0.1115  0.4270  0.0301
31055W        W47902   7.979   2.768  12.639 -0.0912 -0.0665  0.0827
31056W        W47903  16.160   2.590  11.332 -0.1542  0.2466  0.1728
31057W        W47904   0.918   0.432  16.725 -0.1037  0.0179  0.1382
31058W        W47905   1.966   9.522  12.170 -0.0024 -0.0642  0.1919
31059W        W47906   6.923   0.275  12.848 -0.0361  0.0490 -0.2436
31060W        W47907   3.382   2.781   3.460 -0.2310  0.0096 -0.0909
31061W        W47908  15.601   9.008  16.776  0.1012 -0.0469  0.1835
31062W        W47909   7.437   9.726   4.022  0.0042 -0.0651  0.1136
31063W        W47910  12.115   9.765   3.429 -0.1261 -0.1529 -0.0573
31064W        W47911   2.803   0.085  12.001 -0.0586 -0.0499 -0.0407
31065W        W47912  14.033  14.165  12.578 -0.0632 -0.1840 -0.0143
31066W        W47913   2.483   5.700   4.339 -0.0537  0.1040  0.2024
31067W        W47914  13.370   3.308   0.122  0.4916  0.1142 -0.2509
31068W        W47915  10.731   7.037   6.093 -0.2740  0.0301  0.1744
31069W        W47916   0.943  14.662   0.005 -0.2415  0.2037  0.0212
31070W        W47917  13.143   8.995  16.664  0.0384  0.1209  0.2344
31071W        W47918  14.502  16.648   3.767 -0.0957 -0.0254  0.0151
31072W        W47919  14.934  17.716   6.226  0.1199  0.2829 -0.0046
31073W        W47920  14.937  14.155  16.307  0.0863 -0.0003 -0.2065
31074W        W47921  14.224   9.962  12.281  0.2334 -0.2366 -0.1544
31075W        W47922   2.470   6.955   5.829  0.2935  0.2920 -0.0726
31076W        W47923   2.170  13.015  13.368  0.0671 -0.1067 -0.0331
31077W        W47924   7.054  10.819  15.341  0.2326 -0.0650  0.1863
31078W        W47925  11.300  10.363  16.048 -0.1736 -0.0028  0.1565
31079W        W47926  11.265  10.524  15.052  0.0794  0.0861 -0.1555
31080W        W47927   9.566  17.488  13.236  0.2076  0.0599  0.1786
31081W        W47928   2.850   5.965   3.924  0.0506 -0.1983  0.2373
31082W        W47929  10.678   3.446  12.480 -0.3586 -0.3267 -0.2667
31083W        W47930  17.680   3.056   2.261  0.3341 -0.0547  0.0399
31084W        W47931   3.867   4.269   0.400 -0.0596 -0.1262 -0.1518
31085W        W47932   3.039  15.162  14.875 -0.2947  0.1513  0.0089
31086W        W47933   1.568  12.894  12.639  0.1546  0.0763 -0.0250
31087W        W47934   6.968   5.689  16.019 -0.0332  0.0164  0.0227
31088W        W47935  12.875   4.545   0.397 -0.0163 -0.1607 -0.2631
31089W        W47936   7.408  15.757   4.122 -0.0696  0.1923  0.0854
31090W        W47937  16.607  11.422  13.527  0.1357 -0.0138  0.4061
31091W        W47938   3.914   4.867   5.187 -0.0091  0.1545 -0.2028
31092W        W47939  13.313   7.280   0.913  0.1186 -0.3298  0.0682
31093W        W47940  11.117  17.553  12.292  0.1170  0.2069  0.0284
31094W        W47941  16.008   9.662  16.104 -0.0687 -0.2138 -0.0901
31095W        W47942   0.878   9.216   0.341  0.2617  0.3956 -0.0350
31096W        W47943  17.808   9.167  15.373 -0.1395 -0.0972 -0.2653
31097W        W47944   7.883   6.324  15.351 -0.0754  0.0050 -0.1981
31098W        W47945  14.958   6.605   1.688  0.1394 -0.0031  0.2279
31099W        W47946   8.696  11.530   0.123 -0.2909  0.0640 -0.0484
31100W        W47947   5.240  13.989   2.206  0.1711  0.0818 -0.3834
31101W        W47948   8.551   4.045  15.492 -0.0921 -0.1658 -0.1259
31102W        W47949  11.673   3.646  13.003  0.0824 -0.0791 -0.0349
31103W        W47950  15.049   3.391   4.145  0.5590  0.1700  0.1639
31104W        W47951  15.619  16.673   5.467 -0.1378  0.1683 -0.0748
31105W        W47952   3.347   0.701  15.027  0.2335  0.5502 -0.0073
31106W        W47953  14.948   3.469   0.324 -0.0700 -0.0385  0.0881
31107W        W47954  14.399   4.391   1.163 -0.2858 -0.1042 -0.3567
31108W        W47955   5.558  11.425  16.538 -0.0693 -0.2166  0.0144
31109W        W47956   2.644  17.620  11.115 -0.2193 -0.3172 -0.0082
31110W        W47957  13.504   0.216  13.334  0.0538 -0.1318 -0.1092
31111W        W47958   8.164  11.501   3.181 -0.1764  0.0704 -0.2160
31112W        W47959  17.167  14.465   0.272 -0.0502  0.0203 -0.1301
31113W        W47960   3.434  17.154   1.038  0.1782  0.1041  0.2992
31114W        W47961  12.178   2.001   6.043  0.0223 -0.0421 -0.0490
31115W        W47962   2.731  11.047  16.025 -0.1923  0.0167 -0.2130
31116W        W47963  16.605  17.430  13.115 -0.0863  0.0741  0.0042
31117W        W47964   8.798   1.523  14.759  0.2322  0.1354 -0.1282
31118W        W47965  16.842   3.308  12.287 -0.0946  0.1762 -0.1450
31119W        W47966  11.577  12.190  15.673 -0.1372  0.2156 -0.0194
31120W        W47967   6.264   7.084  12.135 -0.1329 -0.2644  0.1096
31121W        W47968  10.339  14.341   0.094 -0.1985 -0.1437 -0.2844
31122W        W47969   9.622  16.436   5.594 -0.1157 -0.0303  0.0470
31123W        W47970  17.569   4.701   0.328  0.1576 -0.0632  0.1927
31124W        W47971   4.968   9.929   1.497  0.2989  0.1439 -0.0116
31125W        W47972  10.516   5.010  14.740 -0.2252  0.3704  0.0042
31126W        W47973  10.868   3.972  15.239  0.1275 -0.1283 -0.0696
31127W        W47974   7.404   5.376  16.598 -0.0549 -0.1450  0.1064
31128W        W47975  10.036   6.464  12.058 -0.1510  0.1483  0.0114
31129W        W47976  17.859   9.523  13.604  0.0019  0.0364  0.0532
31130W        W47977   9.389  17.383  12.541  0.0619 -0.2080 -0.0583
31131W        W47978  10.354   6.683  16.101  0.1758 -0.1499  0.0775
31132W        W47979  12.877  15.479  14.339 -0.4034 -0.1792  0.2066
31133W        W47980   2.333  11.329   2.880 -0.0774  0.2297 -0.3258
31134W        W47981   4.656  12.726   3.036 -0.1091 -0.1551 -0.1810
31135W        W47982  14.723  16.823   4.664  0.0847  0.0430 -0.0517
31136W        W47983  16.121  10.070  15.680 -0.1605 -0.1675  0.1017
31137W        W47984   6.749  11.288  13.299 -0.0035  0.0323 -0.1542
31138W        W47985   5.063   1.608   4.972  0.1484 -0.2179 -0.1497
31139W        W47986  12.074  16.750  16.394  0.2693 -0.1764  0.0846
31140W        W47987   7.564   9.261   4.390 -0.1667 -0.1037 -0.0667
31141W        W47988   1.826  15.088   2.082 -0.1129 -0.2537  0.1679
31142W        W47989  14.490  17.920  16.451  0.2203 -0.2328  0.0466
31143W        W47990   5.328   4.501   4.374  0.1619  0.2615 -0.2289
31144W        W47991  12.291  17.901  15.880  0.2128 -0.2350 -0.2286
31145W        W47992  14.035  15.496  12.413  0.0236  0.0964 -0.0673
31146W        W47993   7.269  17.911   4.044  0.0959 -0.2634 -0.0355
31147W        W47994   8.478   9.331  12.131 -0.0910 -0.1275  0.1535
31148W        W47995   9.353  16.202  13.717 -0.1775  0.2787 -0.0216
31149W        W47996  11.184   5.820  12.983 -0.2018 -0.0880 -0.1048
31150W        W47997   9.489  14.679   3.265 -0.2880 -0.2247 -0.1557
31151W        W47998  16.399   9.429  15.946  0.0711  0.3139 -0.2566
31152W        W47999   5.481   1.925  14.217 -0.1206 -0.2010 -0.2916
31153W        W48000  15.637  10.675   0.193  0.1568  0.3022  0.2586
31154W        W48001   4.892  11.938   1.505  0.0720  0.0300  0.2016
31155W        W48002   4.609  13.673  15.411 -0.1752 -0.0370 -0.0164
31156W        W48003   3.376   6.490  12.703 -0.0294  0.2045 -0.1810
31157W        W48004  17.067  11.263  12.915 -0.1318 -0.1185 -0.0989
31158W        W48005   5.501  16.641   2.420 -0.1120  0.0408  0.2710
31159W        W48006   3.554   5.771   1.957  0.0272  0.0609  0.1702
31160W        W48007  11.832   8.772  16.050 -0.3743  0.0821 -0.2269
31161W        W48008   1.776   8.921   2.818 -0.2499 -0.0329  0.1387
31162W        W48009   3.652  13.575   3.581 -0.2434  0.1097 -0.0531
31163W        W48010   4.322   8.913  14.559  0.1120  0.1035 -0.0233
31164W        W48011   0.508  12.671   0.287  0.0264 -0.2057 -0.1733
31165W        W48012   8.097   5.904   4.244  0.1833 -0.4419  0.1141
31166W        W48013   3.374   3.513   1.561 -0.2509  0.0237 -0.1731
31167W        W48014  15.615   4.623   4.019  0.1422  0.0449  0.2952
31168W        W48015  17.845   1.526   3.032 -0.0628 -0.0234  0.1055
31169W        W48016   0.926  11.836  14.923 -0.0127 -0.3957  0.2740
31170W        W48017   1.165   0.904   2.389 -0.0981  0.0315  0.0478
31171W        W48018   4.193   4.990  14.238 -0.0767  0.0946  0.1708
31172W        W48019  12.206   7.072  15.456  0.2988  0.0725 -0.1741
31173W        W48020  10.399   2.624   2.528  0.0936 -0.0888  0.1502
31174W        W48021   0.705  10.593  16.165  0.2631  0.1757 -0.0368
31175W        W48022  12.978   1.974   0.508  0.0856  0.1280 -0.2958
31176W        W48023  17.847  17.074  16.230  0.1211  0.0932  0.2222
31177W        W48024   3.563   8.719  15.640  0.0731  0.0561 -0.0512
31178W        W48025   0.332   2.550   2.455  0.0958 -0.0513  0.0368
31179W        W48026   6.911  17.448  13.274  0.0335  0.1115 -0.0270
31180W        W48027   5.805   5.794   1.967  0.0277  0.0358 -0.0599
31181W        W48028  17.353   6.943  16.420  0.0868 -0.0026 -0.1577
31182W        W48029  17.371   4.269   0.573 -0.0425 -0.0187  0.0181
31183W        W48030   8.214  13.134   4.252  0.1289  0.1146  0.0853
31184W        W48031   6.303   3.891   1.320  0.0872 -0.2325  0.1170
31185W        W48032   7.201   7.285   4.435  0.0715  0.0582  0.0857
31186W        W48033   6.358   1.524   5.972  0.4160  0.1330 -0.0813
31187W        W48034  13.105   2.919   1.711  0.0768  0.0838 -0.3479
31188W        W48035   8.391   5.058  12.411  0.1001  0.0771 -0.2585
31189W        W48036   9.395   5.004   1.765 -0.0219 -0.0603 -0.2475
31190W        W48037   9.819   8.708  15.408  0.0328 -0.0806 -0.0486
31191W        W48038   5.228  11.954   6.642 -0.1305  0.1418 -0.1109
31192W        W48039  12.921  16.146  13.170  0.1403  0.4423  0.2475
31193W        W48040   8.514   1.536   1.941 -0.1895  0.2426 -0.0272
31194W        W48041   9.652  11.220   3.387  0.0490 -0.1048  0.0520
31195W        W48042   1.522   5.138   2.519  0.1287  0.0294 -0.0744
31196W        W48043  15.576   8.124   2.938  0.1307  0.2708  0.0525
31197W        W48044   5.406   6.415  14.538 -0.1562  0.1010  0.0868
31198W        W48045   6.445   9.998  13.138 -0.1926 -0.1101  0.0501
31199W        W48046   8.810   8.982  12.311 -0.1795 -0.0792  0.5161
31200W        W48047   8.004   5.878  12.714  0.1753 -0.1775 -0.0705
31201W        W48048   5.665  10.735   0.888  0.4621 -0.0637 -0.2001
31202W        W48049  13.913   4.518   0.276 -0.0395 -0.3179  0.3438
31203W        W48050  11.631  14.755   4.860 -0.0538  0.1197 -0.0935
31204W        W48051   6.237   4.112   4.304 -0.3155 -0.1009 -0.0084
31205W        W48052   6.934   9.530  15.627  0.0813 -0.0504  0.0915
31206W        W48053   6.491  15.272   4.563 -0.1298  0.1279 -0.0855
31207W        W48054  15.083  13.193  14.844 -0.0922 -0.0278 -0.2283
31208W        W48055   6.809  14.732   3.895 -0.2851 -0.0204 -0.1973
31209W        W48056   4.495   1.803   0.497 -0.1539  0.2226 -0.1183
31210W        W48057   0.063   1.441   1.001  0.2187 -0.0498 -0.1763
31211W        W48058  16.373   2.012   0.196 -0.0456  0.4423 -0.0215
31212W        W48059  14.990   4.775  16.462  0.2472  0.0927  0.0131
31213W        W48060  14.040  13.497   3.336 -0.2579  0.1032  0.3959
31214W        W48061   5.109   2.957   3.852  0.4211  0.0046 -0.0424
31215W        W48062  12.065   1.577   1.128  0.1537  0.2045  0.0336
31216W        W48063  14.244   3.320   3.947 -0.2849  0.0027  0.2378
31217W        W48064   2.801   0.116   1.991 -0.3767  0.2009  0.0689
31218W        W48065  16.186   2.065  16.125 -0.0668  0.2582 -0.1430
31219W        W48066  14.634  14.465   1.209  0.0623 -0.3579 -0.0868
31220W        W48067   0.883   7.298   0.586 -0.0039  0.0915  0.1668
31221W        W48068  11.144   3.462   0.787 -0.0943  0.2907 -0.2671
31222W        W48069  16.762   7.262   1.446  0.1093 -0.0956 -0.1406
31223W        W48070   0.262  15.346  15.597  0.0962 -0.0255  0.1365
31224W        W48071  12.817   9.243  11.334 -0.2525  0.1414 -0.1366
31225W        W48072  15.753  14.644   4.038 -0.0162 -0.0671 -0.1391
31226W        W48073  13.657  15.413  14.896  0.0952 -0.0294  0.2798
31227W        W48074  13.679   6.509   0.423 -0.0319  0.1159  0.1456
31228W        W48075  14.673   2.823  14.732  0.0559  0.0795  0.0577
31229W        W48076   3.830  15.195   4.189 -0.0180 -0.0614  0.2411
31230W        W48077   0.500  17.268   4.133 -0.3712  0.1085 -0.0469
31231W        W48078   0.785  14.923  14.262  0.1775  0.0078 -0.1404
31232W        W48079   5.050   0.964  16.661  0.0318 -0.0701 -0.3771
31233W        W48080  17.806   1.714   4.690  0.0591  0.3403 -0.3368
31234W        W48081  11.982   6.798  15.923  0.1460  0.0401 -0.3057
31235W        W48082   5.228   2.196   5.739 -0.2767 -0.0450 -0.0563
31236W        W48083   2.921   4.162  12.819 -0.2524 -0.1156 -0.1576
31237W        W48084   8.553  13.841   3.883 -0.1091  0.0470  0.2102
31238W        W48085   4.777   9.014  12.368  0.0670 -0.0261 -0.0131
31239W        W48086   2.958   0.977  11.565 -0.1644 -0.4334 -0.1307
31240W        W48087  13.418  15.142   1.731 -0.3426  0.2700  0.1377
31241W        W48088  10.336   6.692   4.788  0.0737  0.2282  0.3407
31242W        W48089   2.250   7.911   5.220  0.0399 -0.2736 -0.1151
31243W        W48090   7.546   5.551   2.042  0.0333  0.0181  0.0493
31244W        W48091  15.099   7.867  12.821 -0.0426 -0.1398  0.1238
31245W        W48092  17.443   1.337  15.354 -0.2046 -0.0968 -0.1016
31246W        W48093  16.867   8.066   4.818 -0.2053  0.3532 -0.1997
31247W        W48094   7.267   7.386  15.574  0.1097 -0.0412 -0.1897
31248W        W48095   0.832   5.934  15.456  0.1405  0.3203  0.0212
31249W        W48096   9.101  15.563   3.471  0.0760 -0.2555 -0.1449
31250W        W48097   6.363   3.954   0.787 -0.0858 -0.2095  0.1063
31251W        W48098  13.081   5.667  10.993 -0.0588  0.2018  0.1662
31252W        W48099   9.345  15.363   5.025  0.0100  0.2862  0.0232
31253W        W48100   8.434   1.894   3.914  0.1198 -0.2593  0.1009
31254W        W48101  11.015   2.686  11.919  0.0039  0.0553 -0.0402
31255W        W48102   9.923   9.753   5.128  0.0068 -0.0013 -0.1559
31256W        W48103   8.950   1.498   5.147  0.1655 -0.1031 -0.0647
31257W        W48104  16.999   7.265  14.062  0.1564  0.0093  0.1331
31258W        W48105   3.123  17.939   3.645  0.1193 -0.4110 -0.1290
31259W        W48106  13.966   5.970  15.608 -0.0345  0.0763 -0.4273
31260W        W48107  15.712   4.693   0.092 -0.0567  0.1061 -0.0896
31261W        W48108  10.446  13.474   0.881 -0.3288 -0.1684 -0.1203
31262W        W48109   7.097  16.710   4.714 -0.1475 -0.0403 -0.2807
31263W        W48110   3.043   9.602   1.907  0.1024 -0.1790  0.3153
31264W        W48111   8.459   4.795   2.518 -0.3525 -0.3390 -0.1573
31265W        W48112   1.798  11.625   2.818  0.0211  0.5256 -0.1509
31266W        W48113  11.726   1.624  14.623  0.0572 -0.3269 -0.1485
31267W        W48114  17.188   4.728  13.309 -0.1571 -0.0332  0.2730
31268W        W48115   5.845   5.221  12.550  0.3426  0.1355 -0.0429
31269W        W48116  10.472  12.872  12.488  0.1891 -0.2026  0.0941
31270W        W48117   4.744   7.319  12.015 -0.1401  0.0300 -0.0895
31271W        W48118   3.750   1.557   5.425  0.0024 -0.4236 -0.0712
31272W        W48119  17.610  13.771  15.943 -0.0580  0.1496  0.1872
31273W        W48120  10.443  11.531  11.915  0.2173  0.0084  0.1666
31274W        W48121   2.300   1.502  14.998 -0.1115  0.2573 -0.2908
31275W        W48122  10.242  15.828  15.781  0.1635 -0.0543 -0.1758
31276W        W48123   9.667   0.850  11.197  0.0447  0.3733  0.3162
31277W        W48124   3.092  12.936   4.215  0.1258 -0.1827 -0.1420
31278W        W48125  13.382   8.300   4.529 -0.1559  0.0848  0.3383
31279W        W48126  12.975  12.144  16.770 -0.2661  0.0478  0.2618
31280W        W48127   3.144  14.170   0.207  0.3279  0.1241  0.2095
31281W        W48128   3.646  16.759  12.864 -0.0812 -0.1143 -0.1630
31282W        W48129   3.142  12.393   3.032 -0.2392 -0.1374  0.3828
31283W        W48130   9.376  16.573  13.352 -0.0186 -0.1674 -0.0419
31284W        W48131  14.936   9.722   2.795  0.3061  0.3341 -0.0643
31285W        W48132  15.085  12.101  16.286  0.1654  0.0871 -0.1263
31286W        W48133   4.186   7.918  12.497  0.0277  0.1199 -0.0216
31287W        W48134   3.232  15.321  15.453 -0.0289 -0.0475  0.0714
31288W        W48135   5.017  14.199  15.451 -0.3599  0.3228 -0.1592
31289W        W48136  15.295   5.462  15.665  0.2116 -0.0729 -0.1422
31290W        W48137   4.345  11.430  13.860  0.0913 -0.1922 -0.0771
31291W        W48138   7.118   0.742   1.797  0.3490  0.1984  0.1717
31292W        W48139   8.513  16.618  12.169  0.1558  0.2920  0.0756
31293W        W48140   8.174   3.398   2.615 -0.1718  0.0650 -0.3051
31294W        W48141  16.112   4.955  12.847 -0.0691 -0.2613  0.1366
31295W        W48142   2.494  17.847   5.921 -0.0252  0.1834 -0.0232
31296W        W48143   8.916  11.342  14.046  0.3365 -0.3249  0.0539
31297W        W48144   7.763   8.353  12.218  0.0460 -0.0057 -0.2089
31298W        W48145   7.757   7.169   3.610  0.0981  0.1474  0.1237
31299W        W48146  12.940  17.695   4.763  0.0264 -0.1495 -0.0216
31300W        W48147  16.428   5.701   3.969  0.3660  0.1593  0.2744
31301W        W48148   1.310   4.956  14.099  0.0799  0.1929  0.2318
31302W        W48149   2.986  15.351   4.802 -0.1466  0.2865 -0.0756
31303W        W48150   1.281  13.184  13.429  0.2266  0.1510  0.0993
31304W        W48151   3.595   3.871  11.550 -0.3150  0.1023 -0.0306
31305W        W48152   5.492   5.913  15.714  0.1497  0.0838  0.0783
31306W        W48153   1.305   5.390  16.194  0.2567  0.2760  0.2466
31307W        W48154   4.148  15.626   6.209 -0.0337 -0.1311 -0.1573
31308W        W48155   6.919   0.973   1.433  0.1053 -0.1218  0.2925
31309W        W48156   2.864   6.312  15.457 -0.1446  0.2833 -0.2309
31310W        W48157   1.368   6.891   2.969  0.1777 -0.1638 -0.2249
31311W        W48158   2.758  17.108  15.985  0.0446 -0.0389 -0.1713
31312W        W48159  12.203   7.264  15.936 -0.3999  0.0904  0.0371
31313W        W48160   2.139   6.631  16.013 -0.1369 -0.0470 -0.0519
31314W        W48161  10.523  17.855  13.084  0.1680 -0.3740  0.1440
31315W        W48162   1.662   7.961  13.944  0.2109 -0.2644 -0.1304
31316W        W48163   7.253   0.496  13.206 -0.0442 -0.0051 -0.0569
31317W        W48164   1.090  12.365  13.286  0.2008  0.0907 -0.0782
31318W        W48165   9.827  14.049   3.830  0.2379 -0.1784  0.1918
31319W        W48166   8.284  14.642  15.791 -0.0593 -0.1323  0.1139
31320W        W48167  12.138   7.127  13.797  0.0918 -0.0090  0.2427
31321W        W48168  11.801  17.151   4.052  0.0435 -0.2194  0.3929
31322W        W48169  12.044  11.823   0.401  0.1074  0.1817  0.3242
31323W        W48170   5.151  13.566   0.595 -0.0626  0.0491  0.1115
31324W        W48171  11.167  12.380  15.426 -0.1676 -0.0566 -0.0485
31325W        W48172   4.165   4.275   0.849  0.1853  0.3122 -0.3042
31326W        W48173  17.046   3.804   4.354 -0.3367 -0.0144 -0.1333
31327W        W48174  14.758  12.576   1.316  0.0877  0.2506  0.2851
31328W        W48175  16.286   4.459   0.900 -0.0840 -0.1773 -0.2220
31329W        W48176   0.701   5.681   3.779 -0.1738  0.4027  0.1093
31330W        W48177  12.992  12.212   4.928 -0.0022 -0.2281 -0.0962
31331W        W48178  16.163  16.437  16.634  0.2008 -0.1105  0.0446
31332W        W48179  16.805   7.739   4.190 -0.0414 -0.0372  0.2748
31333W        W48180  11.538   2.642  15.484 -0.0685  0.1580  0.3229
31334W        W48181   7.659   9.102  12.380 -0.0525  0.3178  0.2475
31335W        W48182   8.063  11.436  13.047 -0.2214 -0.1754  0.2805
31336W        W48183   7.014   3.497  13.772  0.3091  0.1995 -0.0992
31337W        W48184   0.116  15.968   2.127  0.0478 -0.3811  0.0142
31338W        W48185   5.974   4.478  15.616  0.2515  0.0045 -0.1708
31339W        W48186  15.722  17.084   2.345  0.1795  0.1479 -0.1451
31340W        W48187  11.719   2.392  15.101  0.3062  0.0518  0.1995
31341W        W48188  16.305  14.096  15.904  0.1402  0.2679 -0.2222
31342W        W48189   6.429  13.011  14.775  0.1888  0.2011  0.0435
31343W        W48190   6.869  13.357  14.644  0.0855  0.1741 -0.2739
31344W        W48191   9.423   3.580  14.328 -0.1152  0.2963 -0.1348
31345W        W48192   4.522   2.019  13.267 -0.0928  0.0146 -0.0651
31346W        W48193  14.878   6.551   3.673 -0.1519 -0.1866 -0.1016
31347W        W48194  14.940  12.156   1.504 -0.0621  0.0660 -0.0645
31348W        W48195  10.793   0.938  15.831 -0.1493 -0.1473 -0.2627
31349W        W48196  14.611  13.399  16.640  0.2233  0.3287  0.2319
31350W        W48197  14.046   3.517  15.664  0.3067 -0.2607  0.4464
31351W        W48198   6.068   1.814  12.591 -0.1093 -0.5020 -0.1162
31352W        W48199   1.735  17.759  14.920  0.1629  0.0458  0.1956
31353W        W48200  11.361  10.548   1.544 -0.0977  0.0233 -0.1572
31354W        W48201  13.704   0.036  13.845  0.1834  0.0821 -0.1010
31355W        W48202  12.200   6.369  16.084 -0.1067 -0.1429  0.0483
31356W        W48203  10.429   2.817  14.582  0.0139 -0.1639  0.0023
31357W        W48204  16.558   6.893  15.401 -0.1908 -0.1365 -0.0337
31358W        W48205  17.243  10.158  16.506  0.0475 -0.4757 -0.0126
31359W        W48206  11.394   0.415   5.466  0.3226  0.2378  0.2123
31360W        W48207  10.026  13.402  11.806 -0.0073  0.1365 -0.3145
31361W        W48208  11.703  15.751   6.459  0.1889 -0.1752  0.0844
31362W        W48209  17.668   2.861   5.461 -0.1561  0.0910 -0.0127
31363W        W48210   7.495   4.503   3.065  0.3251  0.2280 -0.0680
31364W        W48211   3.835   0.922  14.047  0.0440  0.2171 -0.2308
31365W        W48212   6.879   3.154   3.042 -0.0961 -0.1044 -0.2112
31366W        W48213  16.984   2.834  10.958 -0.2094  0.2348 -0.1544
31367W        W48214   4.603   5.501  13.382  0.4310 -0.0267 -0.5661
31368W        W48215  10.379  12.709   3.790 -0.0724 -0.1091  0.3638
31369W        W48216  17.255   4.676   0.806  0.0720  0.1083  0.1005
31370W        W48217   4.767   9.390  15.424 -0.1931  0.1746  0.0728
31371W        W48218   5.702   4.835   4.164 -0.0787  0.1828 -0.0613
31372W        W48219   3.481  10.624   1.136 -0.1010 -0.2893  0.0365
31373W        W48220  10.481  11.445   1.145 -0.0900  0.4246 -0.0640
31374W        W48221   7.616  13.831   2.762  0.1981 -0.0462 -0.0938
31375W        W48222   5.578   3.136   3.593  0.0815 -0.1714  0.0212
31376W        W48223   9.153   0.249   5.343 -0.0293  0.1443  0.2158
31377W        W48224  16.313   1.781  11.585 -0.0813 -0.0911 -0.0644
31378W        W48225  13.922   7.855   1.439  0.0098 -0.1681  0.2533
31379W        W48226   3.427  17.708   1.163  0.0430 -0.1080  0.0411
31380W        W48227   0.197   7.087  11.577 -0.0289  0.0315  0.0214
31381W        W48228  15.062   6.281   1.220 -0.2948 -0.1954 -0.0294
31382W        W48229  15.196   9.797   0.587 -0.1762 -0.2227  0.1088
31383W        W48230   6.174   1.378  12.421  0.0001 -0.1272 -0.0957
31384W        W48231  13.533   3.638   5.810 -0.2609  0.0211  0.2650
31385W        W48232   9.215   2.216   2.848 -0.1294  0.1415  0.0810
31386W        W48233   0.853   9.581  11.433 -0.0018 -0.1670  0.1153
31387W        W48234   7.028  16.884   1.563 -0.0328 -0.4255  0.0484
31388W        W48235  17.447  12.471   3.742  0.1071 -0.0314 -0.1649
31389W        W48236  15.173  15.381  15.015  0.0075 -0.1488 -0.2598
31390W        W48237   2.803   8.320   0.750 -0.1920 -0.2992 -0.0155
31391W        W48238   5.281   8.882   4.882 -0.0496  0.1320 -0.5310
31392W        W48239   8.624   2.763   0.037 -0.0474 -0.1074 -0.2915
31393W        W48240   4.831   7.237  14.802  0.1487  0.1221 -0.0150
31394W        W48241  15.245   9.475   0.989 -0.2238  0.1365 -0.0365
31395W        W48242   9.638   0.118   0.226 -0.0363 -0.3219  0.3420
31396W        W48243  10.235  11.046  16.331 -0.2687 -0.0772 -0.1205
31397W        W48244  12.504   7.754  12.177 -0.0493  0.0686  0.0366
31398W        W48245  13.221  14.029   3.326  0.0926 -0.1506  0.0596
31399W        W48246   8.727  16.436   5.052  0.0581  0.2552  0.4036
31400W        W48247   8.978  14.722   4.815 -0.0166  0.0690 -0.0036
31401W        W48248   3.029   0.852   4.264  0.1123  0.3075 -0.0182
31402W        W48249   2.081  13.807   4.550  0.0306 -0.1281  0.0109
31403W        W48250   8.154   6.716   5.642  0.1354 -0.2987  0.0642
31404W        W48251   8.467  14.257   0.503 -0.0198 -0.1668  0.1842
31405W        W48252  11.087   0.335   5.889  0.1583 -0.1175  0.1062
31406W        W48253   2.471  15.971  15.188 -0.0655 -0.0868 -0.0636
31407W        W48254   8.096  10.797  12.938  0.1228  0.4277  0.1352
31408W        W48255   5.616  13.312  16.005 -0.2100 -0.0434  0.1520
31409W        W48256   9.192   4.247   4.553 -0.0522  0.0651 -0.0813
31410W        W48257  13.873   6.263  16.000  0.1647 -0.2518  0.0447
31411W        W48258   8.026  17.952  11.534 -0.0768  0.1354 -0.3332
31412W        W48259  13.955   8.340   1.385  0.1656  0.0701 -0.0633
31413W        W48260   4.328   5.391   2.269  0.1338  0.0345 -0.0944
31414W        W48261  12.926  14.501   2.701 -0.3965 -0.3106  0.3700
31415W        W48262   3.421   3.107  13.146  0.1299  0.0240  0.1592
31416W        W48263   3.840  15.754   4.987 -0.0723  0.0525  0.1140
31417W        W48264   6.655  10.976   2.362 -0.0684 -0.1648  0.3381
31418W        W48265   1.552  10.497   1.125  0.2319 -0.4610 -0.1807
31419W        W48266   5.564   1.105  13.311  0.0478  0.0318 -0.1821
31420W        W48267  12.001  13.683  16.436 -0.0714 -0.4263  0.3269
31421W        W48268   9.354  10.615  11.730  0.0125 -0.2031  0.2511
31422W        W48269   0.837  17.472   1.511 -0.2644 -0.2109 -0.0697
31423W        W48270  16.024  10.568   4.481 -0.0896  0.3640  0.2174
31424W        W48271   2.157  14.039  14.167 -0.2317  0.1001  0.0461
31425W        W48272   5.507  17.108   2.695  0.0428  0.0487 -0.0612
31426W        W48273   1.388  16.293  11.908  0.1352  0.0395 -0.2278
31427W        W48274  16.943  11.403   4.236 -0.2371  0.0343 -0.0513
31428W        W48275   6.707   8.065   1.112  0.1138 -0.1156  0.0282
31429W        W48276  12.238   6.735   4.444 -0.2173  0.2981  0.0975
31430W        W48277  14.204   3.049  13.026  0.1595 -0.0308 -0.2926
31431W        W48278  17.617   3.575  13.867 -0.2015  0.1457 -0.0065
31432W        W48279  10.001   1.331  12.582 -0.1599  0.1673  0.1288
31433W        W48280   4.161  17.933  14.986 -0.0643 -0.3070 -0.0985
31434W        W48281   6.257   7.830   2.808  0.0233  0.0721 -0.0063
31435W        W48282   6.565  10.258  14.955 -0.2064 -0.2830  0.0945
31436W        W48283  11.268  16.597  15.263  0.0113 -0.2261 -0.1570
31437W        W48284   5.215  12.241   5.320  0.0889  0.1600  0.3141
31438W        W48285   1.299  10.122  12.063  0.0709 -0.0236  0.0386
31439W        W48286   2.150  13.778   4.086  0.1650 -0.2387  0.2556
31440W        W48287  13.402  14.938  15.592 -0.0664  0.2373  0.0508
31441W        W48288   8.191  17.715   3.002  0.2270  0.0071 -0.2045
31442W        W48289  11.299  10.024   2.246  0.0780  0.2389  0.1056
31443W        W48290   9.467  15.924   3.543  0.4010  0.2207  0.2130
31444W        W48291   1.143  11.352  15.825  0.1623 -0.4178 -0.1333
31445W        W48292   4.371  11.440  11.428  0.0440 -0.1164  0.0030
31446W        W48293  12.003  10.121  12.929  0.1123  0.1545  0.1504
31447W        W48294   1.960   3.928  13.785  0.0496  0.1792 -0.0524
31448W        W48295   7.434   7.987  13.286  0.1279  0.1538 -0.1535
31449W        W48296  12.078  13.586  13.209 -0.2158 -0.0941 -0.0632
31450W        W48297   2.183   9.734   2.321 -0.0413 -0.0286 -0.1745
31451W        W48298  13.062   6.361  13.294  0.1240 -0.0083 -0.0022
31452W        W48299  11.161  10.751   4.689 -0.0499 -0.0010  0.0089
31453W        W48300   1.974   7.572  14.226  0.1448 -0.1953  0.1531
31454W        W48301   2.185  12.203   2.810 -0.2574  0.2188 -0.1081
31455W        W48302  16.971   5.545  15.909 -0.2865 -0.1158  0.0909
31456W        W48303   9.809  15.057  14.389 -0.0611  0.0542 -0.3138
31457W        W48304   3.305  14.228   6.117  0.2149 -0.4440 -0.1934
31458W        W48305  17.170  15.846   4.040 -0.1524  0.2053  0.3814
31459W        W48306   7.670   8.809   0.418  0.1750 -0.1354  0.1905
31460W        W48307  11.357   0.392  14.337  0.1231  0.1875 -0.1913
31461W        W48308  12.736   3.796   2.764 -0.1752 -0.1082 -0.1436
31462W        W48309   0.986   6.569   3.839  0.0365 -0.2147  0.0117
31463W        W48310  10.865   8.667   1.507  0.1939 -0.0813  0.1598
31464W        W48311   9.491   1.140   4.492 -0.0389 -0.2855 -0.0741
31465W        W48312   0.455   4.378  12.191 -0.0775 -0.3338  0.3529
31466W        W48313  13.965  15.073  14.185  0.2053 -0.2747 -0.0259
31467W        W48314  12.464  15.939  13.404 -0.1743 -0.3956 -0.2254
31468W        W48315   4.557   0.118  13.662  0.1400 -0.5126  0.0441
31469W        W48316  17.792  12.098  15.404  0.2712 -0.3241  0.1760
31470W        W48317  14.263   3.958  12.871 -0.0700 -0.0224  0.2302
31471W        W48318   2.125   3.470  13.159  0.0862 -0.3221 -0.1545
31472W        W48319   4.157  11.467  12.869 -0.2888  0.1823  0.0211
31473W        W48320   1.672  15.361   4.790  0.0906 -0.0322  0.2762
31474W        W48321  11.544  11.665  13.660 -0.1167  0.1636  0.1182
31475W        W48322   9.580  10.513  13.952 -0.1893  0.3053 -0.1750
31476W        W48323   9.821   5.725   4.373 -0.1233 -0.0482  0.1872
31477W        W48324   9.365  12.039   3.225 -0.0889  0.1470  0.2781
31478W        W48325   5.460   8.563   5.861 -0.1361  0.0597 -0.0781
31479W        W48326   9.162  16.515   4.280  0.1021 -0.1484  0.0345
31480W        W48327  10.435   3.571  11.488  0.3052 -0.2429  0.0597
31481W        W48328   0.181   7.412   4.279 -0.1395  0.0267 -0.0731
31482W        W48329   6.271   8.321   0.081 -0.0478  0.0607 -0.1164
31483W        W48330  12.329   4.282  12.310 -0.2106 -0.0222  0.0367
31484W        W48331   4.802  10.407   2.428 -0.0672 -0.0203 -0.3083
31485W        W48332   1.596   3.346   0.482  0.1902  0.1113 -0.1636
31486W        W48333  12.888   9.062   2.051  0.1775 -0.0022  0.0642
31487W        W48334   8.310   2.390   3.835  0.2268 -0.0255 -0.0453
31488W        W48335  16.126   1.919  12.216 -0.3296 -0.1125 -0.0652
31489W        W48336   1.636   9.236   4.905 -0.2408  0.1903 -0.1084
31490W        W48337  13.852  10.140   5.461 -0.1142  0.1703 -0.1825
31491W        W48338   6.535   1.906   5.701  0.1736  0.1914 -0.1969
31492W        W48339   0.636   5.525   2.059  0.1807  0.0029 -0.1676
31493W        W48340   9.142  16.726  14.439  0.0125 -0.2949 -0.0073
31494W        W48341   4.875   3.452   4.632 -0.0802 -0.0806  0.0156
31495W        W48342   0.267   1.891  11.764  0.0155  0.1455 -0.2326
31496W        W48343   6.653   9.088  12.875  0.1009 -0.2268 -0.2004
31497W        W48344   3.928  10.676   2.988 -0.0451 -0.0575  0.1882
31498W        W48345  14.458  17.945  14.808 -0.2750 -0.2304 -0.1005
31499W        W48346   3.749   9.846  11.962  0.0891  0.2122  0.3572
31500W        W48347  13.603  11.773  16.250 -0.0726  0.3463 -0.1269
31501W        W48348  13.570  12.742  15.614  0.0766 -0.0398  0.0148
31502W        W48349  13.930  15.953   4.802  0.0030 -0.0642 -0.1187
31503W        W48350   2.956  17.054   2.291 -0.0415  0.1063  0.0772
31504W        W48351  12.633   6.747   0.489 -0.0456  0.0718 -0.1709
31505W        W48352  16.795  15.846   1.900 -0.0430 -0.0806  0.5642
31506W        W48353   4.923  11.769   2.535  0.1679  0.0665  0.0914
31507W        W48354   9.506   5.270  11.782  0.0577  0.2046 -0.4748
31508W        W48355  12.010  12.469  16.414 -0.1753 -0.1013  0.1968
31509W        W48356  10.766   9.704  12.547  0.1511 -0.0826 -0.0409
31510W        W48357   9.016  15.461  14.855  0.0017 -0.1067 -0.1911
31511W        W48358   6.693  16.536   1.734 -0.2257 -0.1168  0.0119
31512W        W48359  16.404  15.488  15.309  0.1077  0.2577  0.2408
31513W        W48360   2.962  14.807   4.245 -0.3002 -0.1775 -0.0816
31514W        W48361   8.579   5.160   0.651  0.0506 -0.0091 -0.1411
31515W        W48362   7.567  10.675  11.830  0.1233 -0.2340 -0.1993
31516W        W48363   1.379   9.050  14.052 -0.2904  0.0584  0.0089
31517W        W48364  10.719  15.633  13.211  0.2861 -0.1403 -0.1501
31518W        W48365   8.550  10.646  12.018 -0.2429 -0.0434 -0.1100
31519W        W48366  13.182   3.104  14.488 -0.1388 -0.0080  0.1801
31520W        W48367   7.681   4.759   5.080  0.2594  0.0717  0.1947
31521W        W48368   5.135  14.155   0.101  0.1548  0.0641  0.1250
31522W        W48369   5.973   2.303  15.316 -0.1770 -0.0120 -0.0595
31523W        W48370   8.740   6.482   1.425 -0.1434  0.2759 -0.4166
31524W        W48371   6.844  15.829  13.107  0.0953  0.2810 -0.1746
31525W        W48372  12.614   5.676  13.892 -0.2408 -0.1376  0.0694
31526W        W48373   4.022  15.959   0.616  0.1959  0.0047 -0.1926
31527W        W48374  17.649   5.719  12.336 -0.1085 -0.0023 -0.1504
31528W        W48375  11.534   8.646   0.199  0.1457 -0.0368 -0.1045
31529W        W48376  14.138   3.792   0.524 -0.1157 -0.0034 -0.0663
31530W        W48377  10.447   1.332   1.983 -0.0102  0.3141 -0.4971
31531W        W48378   8.085  13.885   1.505  0.0526  0.3511 -0.0190
31532W        W48379  12.967   9.083   1.401 -0.0536 -0.2812 -0.1231
31533W        W48380   4.937  15.252   4.026 -0.1526  0.1462 -0.4182
31534W        W48381  17.558  10.520   4.983  0.1063  0.0413  0.1088
31535W        W48382   1.404   0.579  16.522  0.0570 -0.1061 -0.3273
31536W        W48383   8.602   4.889  14.067  0.1482  0.0336 -0.2180
31537W        W48384   9.113   5.560  16.057 -0.0074  0.2375  0.0691
31538W        W48385  13.780  12.802   3.741 -0.1814 -0.2122  0.0675
31539W        W48386   8.913   6.346   1.950  0.2110  0.0919  0.0015
31540W        W48387  16.168  11.380   0.093  0.0841  0.0509  0.3985
31541W        W48388  12.633  14.015  13.742  0.0760 -0.0265  0.2396
31542W        W48389   5.996  17.590  14.729 -0.1133  0.2308  0.0174
31543W        W48390   3.050  17.746  13.290 -0.0790 -0.0833 -0.3049
31544W        W48391   5.810  11.817   1.851  0.2352 -0.1714  0.0902
31545W        W48392  16.599   1.600  12.977  0.3204  0.0538 -0.0076
31546W        W48393   9.395   4.415  15.215  0.3262 -0.0940  0.0709
31547W        W48394  12.608   5.162  16.436  0.1675  0.3336  0.0751
31548W        W48395  12.041   4.496  14.226  0.0198 -0.1563  0.0300
31549W        W48396  14.513   3.567   5.544 -0.1791 -0.0742 -0.0991
31550W        W48397  10.917  15.314  12.821  0.1270  0.1002  0.1079
31551W        W48398   9.560   6.109   2.971  0.3971 -0.1534 -0.2339
31552W        W48399  15.879   2.656  16.212  0.0436 -0.1530  0.2422
31553W        W48400  12.908   9.098  15.246  0.3089 -0.1164  0.1382
31554W        W48401  10.814  17.367   2.062 -0.0506 -0.2291  0.3149
31555W        W48402   2.754   9.969   0.390  0.0021  0.0354 -0.4389
31556W        W48403   5.661   3.121   5.620  0.1446 -0.2750  0.4211
31557W        W48404  12.644   5.589   1.515  0.1058  0.2392  0.1669
31558W        W48405  17.848   3.333   5.513  0.0253 -0.0815 -0.0641
31559W        W48406  10.828  15.874   1.814  0.1850  0.1003 -0.0449
31560W        W48407  16.235   3.566  16.084 -0.1833 -0.1270  0.3217
31561W        W48408   1.132   5.106  13.656  0.2406  0.0600  0.0729
31562W        W48409   1.352   5.760   2.414  0.3266 -0.0583  0.0893
31563W        W48410   3.720  13.306   4.048 -0.0268 -0.0658  0.1454
31564W        W48411  14.854   4.130   0.978 -0.1256  0.1188  0.4887
31565W        W48412  14.006  14.944  11.653 -0.0826  0.0230  0.0247
31566W        W48413   1.309  14.454  15.349 -0.2468  0.2455  0.2930
31567W        W48414   7.550  15.041   3.414  0.3192 -0.0687  0.2984
31568W        W48415   9.215   9.016  14.899 -0.2215 -0.0606  0.1737
31569W        W48416   3.151  12.351  16.078 -0.0394 -0.3021 -0.1744
31570W        W48417  14.251   2.657  15.886 -0.2247  0.2064  0.2270
31571W        W48418  12.387  14.516  16.020  0.1169  0.0940 -0.1633
31572W        W48419   4.867   6.929   2.748  0.0410 -0.0902  0.1078
31573W        W48420  15.733  15.484  13.907  0.2824  0.0319  0.1515
31574W        W48421   3.250   0.557   1.125 -0.1558 -0.3059 -0.0025
31575W        W48422   4.325   6.780   1.077  0.2983 -0.1714  0.1141
31576W        W48423   6.795   8.941  14.017 -0.1409 -0.0331 -0.2868
31577W        W48424  10.600   8.846  15.635 -0.1384 -0.0733 -0.1161
31578W        W48425  10.487  15.585  14.640 -0.0032 -0.0600 -0.0306
31579W        W48426   5.790   7.319   3.511 -0.0417 -0.0544 -0.0562
31580W        W48427  16.861   5.686   3.588 -0.2120 -0.0668 -0.2337
31581W        W48428   9.009  13.280   5.969  0.2209  0.3325 -0.1951
31582W        W48429   4.722  10.874   4.285 -0.1461  0.1190 -0.2024
31583W        W48430   5.501  16.943   1.950  0.1593  0.0591  0.2162
31584W        W48431  13.586   4.724   1.559  0.0540 -0.0237 -0.1523
31585W        W48432  16.108   3.192  12.560 -0.0227  0.3101 -0.0392
31586W        W48433  16.525   2.125  12.920  0.1754 -0.0975  0.0625
31587W        W48434  17.871   0.060   5.065  0.0215 -0.1345  0.0364
31588W        W48435   1.392   3.741  15.059 -0.0779  0.4841 -0.0057
31589W        W48436   0.229   0.267  13.088 -0.2396 -0.0358 -0.0139
31590W        W48437   6.749  17.165  14.796  0.0952  0.0553  0.2518
31591W        W48438  17.722  15.021  16.354 -0.1041 -0.1723  0.1083
31592W        W48439   5.263  14.581   5.385  0.2845 -0.0156  0.1800
31593W        W48440   6.090   4.451  12.030 -0.1850  0.0219  0.3151
31594W        W48441  13.793   2.119   2.909  0.0386  0.0713  0.0581
31595W        W48442   3.423   5.767   5.326 -0.1609 -0.1001  0.0404
31596W        W48443   1.277  12.703  16.459  0.3100  0.2207  0.0320
31597W        W48444   0.731   7.008   3.807  0.0600 -0.0604  0.0309
31598W        W48445   2.647  14.025   3.897 -0.1765 -0.0588 -0.1526
31599W        W48446   2.938   5.316  14.002 -0.2238  0.0094 -0.0965
31600W        W48447  14.049   7.609  13.879 -0.0759  0.1133  0.3784
31601W        W48448   2.124   3.965  12.155 -0.0020  0.1490  0.0587
31602W        W48449   8.354  10.189   1.450 -0.0826 -0.1222 -0.1911
31603W        W48450  11.947   1.340   2.209 -0.0787 -0.1740 -0.0988
31604W        W48451  12.169  17.923   4.327 -0.1500  0.1085  0.1433
31605W        W48452  15.570  16.573  13.254  0.3186 -0.1278  0.0398
31606W        W48453  17.574  16.310  12.303  0.0312  0.0900 -0.1269
31607W        W48454   5.392   3.938   5.120  0.0608  0.1960 -0.1631
31608W        W48455   5.600   3.419   5.254  0.1781 -0.1108 -0.0641
31609W        W48456   6.415  10.717  14.689 -0.0998  0.0281  0.0343
31610W        W48457  14.435   5.370  13.879 -0.0342  0.3617 -0.1840
31611W        W48458  16.379   1.545   0.659 -0.2105  0.1519 -0.0393
31612W        W48459  11.676   7.588  12.670  0.1157  0.1248  0.0027
31613W        W48460   7.862   1.959   1.397  0.0569 -0.1397  0.2120
31614W        W48461  11.695  13.025   0.199  0.0933 -0.0511 -0.0615
31615W        W48462   3.694   3.172   3.882 -0.2621 -0.0625  0.0618
31616W        W48463   1.400   0.676   1.503 -0.1209  0.3298  0.1415
31617W        W48464  15.243   2.675  12.961 -0.1813 -0.0417  0.1075
31618W        W48465   3.864   3.640   1.123 -0.0317 -0.1100 -0.0748
31619W        W48466  14.196  16.721   1.143 -0.3776 -0.2097  0.1933
31620W        W48467  14.169  14.197   0.024  0.1613  0.0818  0.0622
31621W        W48468  16.275  15.378   1.148 -0.2777  0.2580 -0.2139
31622W        W48469   9.822   6.290  13.534  0.0184  0.1947  0.3767
31623W        W48470   5.986   5.888   4.507 -0.1948 -0.0222  0.0287
31624W        W48471   2.910  13.823   4.861 -0.1794  0.0685  0.0835
31625W        W48472   5.542   6.242   1.107 -0.0211  0.1397  0.1300
31626W        W48473  16.074  16.856   2.651  0.0765 -0.2263  0.0244
31627W        W48474   9.445   1.542  12.064  0.0762  0.0291 -0.0841
31628W        W48475  10.777   3.802   0.914  0.1492  0.2502 -0.1210
31629W        W48476   8.902  11.818   6.438 -0.3506 -0.0306 -0.2104
31630W        W48477   5.769   1.269  15.252 -0.0138  0.0917 -0.2414
31631W        W48478  16.527  17.826   0.550 -0.1626 -0.0805 -0.1041
31632W        W48479  10.933  16.407  14.493 -0.1219 -0.0355 -0.3027
31633W        W48480   2.958   1.180   3.937 -0.0223 -0.0937 -0.1912
31634W        W48481   4.181   9.669  12.321  0.2562 -0.0830 -0.0040
31635W        W48482  15.738  11.674   1.507  0.1425 -0.2484 -0.1067
31636W        W48483   5.529  14.295  14.679 -0.3916  0.0948 -0.1453
31637W        W48484   6.513  13.238   1.898  0.0123  0.2473  0.0039
31638W        W48485   8.009  15.657   0.683  0.2989  0.0564 -0.0295
31639W        W48486  17.899  11.080  16.308  0.1071  0.0387  0.0407
31640W        W48487   0.300  16.958   1.851  0.0610 -0.0103 -0.0094
31641W        W48488  15.228   4.773  11.927 -0.1709 -0.1146 -0.1157
31642W        W48489   9.543  10.484   3.111 -0.0833 -0.0972  0.1363
31643W        W48490  16.044   2.743   5.095 -0.1681 -0.0517  0.2841
31644W        W48491   8.178   7.118  16.550  0.0393 -0.0817 -0.0347
31645W        W48492  15.811   0.881  16.473  0.1716  0.0147  0.1875
31646W        W48493   5.973  11.787  11.888 -0.0189 -0.0818  0.1206
31647W        W48494  11.728  14.584  16.579 -0.1874 -0.4049 -0.1502
31648W        W48495   4.449   5.914  13.785  0.0209  0.0529  0.0178
31649W        W48496   0.955   1.272  14.047 -0.3181 -0.2525 -0.2991
31650W        W48497  17.732   5.103   1.579  0.0602 -0.0459  0.2058
31651W        W48498   7.928   4.783   2.752 -0.1847 -0.1085 -0.2640
31652W        W48499   9.252   1.425  14.899 -0.3420 -0.1797  0.1183
31653W        W48500   5.824   5.446   5.203 -0.0450 -0.0919  0.0102
31654W        W48501  16.247   6.284  14.768  0.1082 -0.0507  0.0703
31655W        W48502  11.458   0.530  12.738 -0.0856  0.2084 -0.1955
31656W        W48503   2.426  16.878  12.439 -0.2293 -0.1080  0.0070
31657W        W48504   0.557  12.726  12.391  0.2337  0.3573  0.0644
31658W        W48505   8.225   9.827  12.054  0.0878  0.2694 -0.1753
31659W        W48506  13.825  12.619   5.278  0.1451  0.1161  0.1019
31660W        W48507  12.750   5.129  14.704 -0.2956 -0.1288  0.1086
31661W        W48508   0.559  17.936  11.583  0.1421 -0.1467  0.0875
31662W        W48509   6.707   2.741  13.610  0.0514 -0.1169  0.1913
31663W        W48510  11.738  16.810   3.655  0.1462  0.1170 -0.0572
31664W        W48511   5.300  16.662  16.219 -0.0704 -0.1251  0.0888
31665W        W48512   6.641  17.202  16.245  0.2684 -0.0189  0.3286
31666W        W48513  17.839   4.256   2.683  0.0515 -0.0258  0.3392
31667W        W48514   8.566   7.656  15.954 -0.2437  0.1258  0.5294
31668W        W48515   9.161   7.257  15.293 -0.0088  0.0729  0.0866
31669W        W48516  11.257   9.119   0.375  0.2677 -0.2649  0.1247
31670W        W48517   8.913  10.552   6.091  0.0410  0.0663 -0.1192
31671W        W48518   9.478  15.463  14.549  0.1267 -0.0189  0.0432
31672W        W48519  16.295   4.225  15.495 -0.0113  0.1637 -0.0623
31673W        W48520   7.543  14.145   1.724  0.0433 -0.0427  0.1238
31674W        W48521  14.332  15.446  12.814  0.3052  0.2659 -0.4404
31675W        W48522  14.111   8.748  13.182  0.0196  0.3618 -0.3793
31676W        W48523  10.583  11.451   2.092 -0.1650 -0.2017  0.1410
31677W        W48524  17.385  12.716  14.155  0.1765  0.0792 -0.0327
31678W        W48525   1.774  17.657   3.204  0.3213 -0.2684  0.1290
31679W        W48526   6.745   5.152   3.689 -0.0593  0.2443 -0.0161
31680W        W48527  12.131  11.557   3.920  0.0470 -0.0567  0.0197
31681W        W48528   8.701  10.081   6.008 -0.0878  0.1734  0.1103
31682W        W48529  11.517   1.485   3.525  0.1075  0.1831 -0.0086
31683W        W48530  10.638  16.865  15.940 -0.0622  0.0370 -0.0227
31684W        W48531   5.284  13.829   3.646 -0.1214 -0.1088  0.2559
31685W        W48532   4.306  11.547  14.775 -0.2229 -0.2501  0.2553
31686W        W48533   7.724  15.760   2.443 -0.1355  0.0224  0.1092
31687W        W48534   4.588   8.570   4.043 -0.1010 -0.0132 -0.1631
31688W        W48535   1.760  11.753  11.954  0.1687  0.1475 -0.0463
31689W        W48536   5.284  12.457   3.887 -0.2904 -0.2539 -0.1011
31690W        W48537  15.514   3.890  12.055  0.0124  0.0729 -0.0088
31691W        W48538   0.125   9.111   3.818 -0.1749  0.1020 -0.3054
31692W        W48539  17.642  14.648  12.521  0.1751  0.3896 -0.0797
31693W        W48540  16.993   8.345   3.405 -0.3242 -0.0811 -0.5576
31694W        W48541  12.145  15.587   4.517  0.1201  0.0918  0.1179
31695W        W48542  12.765  17.202   4.060 -0.1152  0.2265 -0.2611
31696W        W48543   6.142  10.931  11.956  0.2561  0.3724 -0.0285
31697W        W48544   5.176  15.204   1.958 -0.0184  0.0692  0.1023
31698W        W48545  16.073  12.879   2.446 -0.0880 -0.1484 -0.0515
31699W        W48546  11.137   1.884  13.158  0.0348 -0.4369 -0.1629
31700W        W48547   2.772   1.361  15.188 -0.0739 -0.1813  0.2934
31701W        W48548   1.423   6.074  15.535  0.0381  0.2456  0.0273
31702W        W48549  15.362  10.016  14.206  0.0155  0.0278  0.1712
31703W        W48550  10.964   2.396   4.174  0.3208 -0.2141 -0.1786
31704W        W48551  13.515   3.970   0.767 -0.2041 -0.1378  0.3291
31705W        W48552  12.972  13.421   3.557  0.0075 -0.0369  0.1540
31706W        W48553  13.049  10.917  11.923  0.4545 -0.0165 -0.1541
31707W        W48554  11.803   4.973  12.069  0.4093  0.2078  0.0746
31708W        W48555   0.377   2.400   0.058  0.3069  0.0102  0.1216
31709W        W48556   8.296   8.049  16.083  0.0182 -0.3627  0.1441
31710W        W48557  17.002  15.307   1.851 -0.2386  0.0856 -0.0150
31711W        W48558   7.862   6.538   3.754  0.1397 -0.0177  0.0514
31712W        W48559   1.716   6.017  11.364  0.0880  0.1948 -0.4046
31713W        W48560  10.372   6.810  12.117  0.0732  0.0254  0.2808
31714W        W48561   1.526   2.960   5.498  0.1468 -0.1587  0.2915
31715W        W48562   6.892   0.300   3.965 -0.0524 -0.2819  0.1226
31716W        W48563  10.796   9.281   2.622 -0.0781  0.0253 -0.1054
31717W        W48564   7.047   5.857  16.677 -0.0114  0.2215 -0.0191
31718W        W48565  15.639   9.555   4.381 -0.0984  0.4139 -0.2659
31719W        W48566   5.021  11.646  14.588  0.0994  0.1351 -0.1344
31720W        W48567   8.868  13.268  14.067  0.2564  0.0605  0.0080
31721W        W48568   3.092   6.596  13.909  0.0902 -0.1062 -0.1727
31722W        W48569   8.393   5.153  12.875  0.1361 -0.0597  0.0730
31723W        W48570  15.979   3.017  11.644  0.0543 -0.2259  0.2291
31724W        W48571  13.575  10.345  13.548 -0.0039 -0.1650  0.1660
31725W        W48572   7.850  17.370  14.924  0.0208  0.2175 -0.1372
31726W        W48573  16.803   0.541  12.884 -0.0865  0.0631 -0.2183
31727W        W48574   9.719   7.550   1.521 -0.1508  0.0120 -0.5198
31728W        W48575  17.240  16.669  12.994  0.1580  0.0504  0.0265
31729W        W48576   4.271  17.078  10.147 -0.1543 -0.0868  0.0451
31730W        W48577  15.468   4.372  15.043 -0.0387  0.2121 -0.0349
31731W        W48578   0.715   5.872   5.341  0.1995 -0.0969 -0.0321
31732W        W48579   7.723   9.111  11.848 -0.1205  0.1295  0.1930
31733W        W48580  12.184   7.418   1.968  0.0192  0.0729  0.1138
31734W        W48581   3.867   7.353  13.825  0.2740  0.0444 -0.0372
31735W        W48582  16.038   9.069  13.341  0.1465  0.1419 -0.2015
31736W        W48583   8.975   8.115  11.804 -0.1055  0.2485 -0.4551
31737W        W48584   1.140  10.367  14.952 -0.0573 -0.1041 -0.2477
31738W        W48585  10.832  11.032   0.957  0.0031 -0.1348 -0.2510
31739W        W48586  10.843  12.817  14.157 -0.2573 -0.1884 -0.1189
31740W        W48587  17.851   7.995   2.032  0.2047 -0.2550 -0.1051
31741W        W48588  17.692  16.789   3.504 -0.1919  0.4470  0.0810
31742W        W48589   1.271  16.954   1.951 -0.0520  0.1143 -0.3528
31743W        W48590  15.278   6.479  12.993 -0.0857 -0.0270  0.0900
31744W        W48591   7.650   1.283   0.066  0.0709  0.0073 -0.0442
31745W        W48592  16.064   8.265   1.006 -0.0387 -0.1592 -0.1667
31746W        W48593  17.132   8.844  14.522 -0.1105 -0.3053 -0.0549
31747W        W48594  11.902  17.863  14.253  0.0547  0.2034 -0.1823
31748W        W48595  13.964   2.844   6.476  0.0071 -0.1000 -0.1331
31749W        W48596  13.880   0.712  14.504  0.0609  0.2535  0.1194
31750W        W48597   2.013   9.939  11.704  0.1850 -0.1171 -0.0101
31751W        W48598  13.375   3.962  16.667  0.0236  0.0743  0.1032
31752W        W48599  14.617   5.346  15.208 -0.2892  0.2186  0.1919
31753W        W48600   3.594   7.643   4.331 -0.2702 -0.0245 -0.1644
31754W        W48601   2.799  11.330  16.514 -0.3952 -0.1605 -0.0121
31755W        W48602   8.767  15.964  12.979 -0.1069 -0.2838 -0.2350
31756W        W48603  17.894   1.977  12.437  0.2526 -0.0200 -0.3309
31757W        W48604  14.046  14.903   3.564  0.1016  0.1504 -0.4555
31758W        W48605   4.613   8.146   1.066 -0.2036 -0.3105  0.1585
31759W        W48606  10.047  11.537  16.558 -0.0485 -0.0626  0.0250
31760W        W48607  11.342   6.071   4.543 -0.1482 -0.2392  0.3384
31761W        W48608  14.668   3.992   1.426  0.1803  0.1449 -0.1168
31762W        W48609  13.864  16.795   3.129  0.0664 -0.1902  0.5582
31763W        W48610  13.120  13.055   0.867  0.0381  0.1297  0.2440
31764W        W48611   1.076  13.789  13.031 -0.0321  0.0517  0.0869
31765W        W48612   0.443  13.432  16.548  0.0377 -0.0966  0.2927
31766W        W48613  15.100  15.233   1.910 -0.1504 -0.1438 -0.0407
31767W        W48614   8.877   9.063   5.108 -0.1263  0.2812 -0.0561
31768W        W48615  11.705   5.426  12.316 -0.0922 -0.1618  0.1317
31769W        W48616   8.284   4.097   5.026 -0.2475 -0.1600  0.0802
31770W        W48617  10.198  17.598  14.511 -0.0062  0.0407 -0.0367
31771W        W48618   9.450   9.181  11.526 -0.0154 -0.0909 -0.1288
31772W        W48619  16.499   9.928  14.876 -0.2995 -0.3029  0.0561
31773W        W48620   5.629  12.808  16.028  0.0497 -0.0790  0.1666
31774W        W48621  12.136  16.260   5.265 -0.1576  0.0751 -0.1182
31775W        W48622   6.808   9.134   0.675  0.1605 -0.0300 -0.1349
31776W        W48623  15.218   2.838   0.552 -0.1454  0.1147 -0.1891
31777W        W48624  11.818  15.103  11.769  0.0991 -0.1654  0.1242
31778W        W48625   6.200  17.001   4.748 -0.3472  0.3360  0.0100
31779W        W48626   3.162   2.703  12.908 -0.1009  0.6167  0.1956
31780W        W48627  16.110   7.332   3.984  0.2632 -0.2463 -0.0758
31781W        W48628  10.728   4.414   4.736  0.0696  0.1232  0.2420
31782W        W48629  12.973  16.505   1.059  0.2984  0.2149 -0.2032
31783W        W48630  15.006   4.443   1.418  0.0923  0.0282 -0.1078
31784W        W48631  17.125  16.660   5.198 -0.0793 -0.0330  0.1559
31785W        W48632   6.273   9.389   4.656  0.0154 -0.1174  0.2800
31786W        W48633   1.244  15.870  15.993  0.0295 -0.3046  0.3540
31787W        W48634   6.542  12.233  16.583 -0.3540  0.0231 -0.1761
31788W        W48635  11.988   7.961   0.738 -0.0998 -0.1510 -0.2125
31789W        W48636   1.501   9.865  15.631 -0.0597  0.1522 -0.0322
31790W        W48637   1.601   9.172   5.809  0.0117 -0.0064  0.0925
31791W        W48638   3.166  13.619  16.157  0.0454  0.5144  0.2769
31792W        W48639   1.284   9.169   1.274 -0.0136 -0.0711  0.4305
31793W        W48640  11.812   2.298  13.979  0.0097  0.2962  0.1013
31794W        W48641   1.687  17.635  14.080 -0.3098  0.2546  0.0321
31795W        W48642   3.955   1.935   4.532 -0.0347  0.3487 -0.0264
31796W        W48643   3.617   9.969  13.385 -0.2732 -0.0097 -0.2692
31797W        W48644  12.735  10.525  13.971  0.1846 -0.1579 -0.0845
31798W        W48645   2.469   6.383  11.823  0.2817  0.2034  0.0571
31799W        W48646  12.672   3.854  13.999 -0.0930 -0.1795  0.0311
31800W        W48647   6.100  14.277   0.316  0.0542 -0.0930  0.1140
31801W        W48648   7.919   8.281   4.214  0.1135  0.0995  0.0250
31802W        W48649  10.774   5.873  15.196 -0.3724  0.0669  0.0039
31803W        W48650   0.405  10.291  15.914 -0.0886  0.1323  0.0960
31804W        W48651   2.248   1.195   3.057 -0.3175  0.0025  0.2834
31805W        W48652   9.856   0.258   0.622  0.1344  0.1293  0.1035
31806W        W48653  10.992  12.909  15.097 -0.1063  0.3790  0.1260
31807W        W48654   9.297   5.404  12.609 -0.1086  0.1470  0.1644
31808W        W48655   7.249  17.109  11.946  0.1433  0.1838 -0.2098
31809W        W48656   1.560   2.265   3.604 -0.1678  0.0391  0.2635
31810W        W48657  11.556  15.129  14.028 -0.0994 -0.4535 -0.0925
31811W        W48658   7.586   3.521   5.221  0.1358 -0.0467 -0.0424
31812W        W48659  16.634  12.939   1.704  0.2574  0.0374 -0.0322
31813W        W48660   1.071  12.405   4.970  0.0268 -0.2902  0.1660
31814W        W48661   5.123  10.465  12.896 -0.0004  0.3733 -0.2850
31815W        W48662  14.763  12.063  14.272 -0.1026 -0.0307 -0.1356
31816W        W48663  16.311  10.832  11.382 -0.0480 -0.0119 -0.0808
31817W        W48664   5.807   4.213   3.536  0.4396  0.1084  0.2315
31818W        W48665   9.161  11.486  13.117  0.0618 -0.3387 -0.1710
31819W        W48666   5.209   3.413   0.094  0.0889 -0.1116  0.1396
31820W        W48667   0.420  16.088  16.388 -0.0305  0.0225 -0.0605
31821W        W48668   7.316   1.617   5.665 -0.0680 -0.1134 -0.1141
31822W        W48669   0.662  11.712   2.122  0.1084  0.1546 -0.1595
31823W        W48670  15.742   0.574  15.185 -0.0027 -0.2521 -0.1097
31824W        W48671   1.385   9.511  16.511 -0.1737  0.1115  0.0218
31825W        W48672   1.948   3.393   0.173  0.1152  0.0882 -0.2071
31826W        W48673   2.149   2.255   4.288 -0.1100  0.2724 -0.1115
31827W        W48674  11.478  13.552   1.775  0.4751 -0.3161  0.3179
31828W        W48675   9.166   5.822  12.281 -0.3304 -0.1552 -0.0623
31829W        W48676  13.135   9.304  12.789  0.1267 -0.0419 -0.1515
31830W        W48677   6.136  10.547  15.763  0.0930  0.0526  0.1285
31831W        W48678  16.249   0.678   5.542 -0.0325 -0.0928 -0.0608
31832W        W48679  14.422   1.112   3.366 -0.1610 -0.0429  0.0838
31833W        W48680   2.266   2.869  14.800  0.2117  0.1458 -0.0189
31834W        W48681   9.592   0.607   4.623 -0.0273 -0.1923 -0.0072
31835W        W48682   6.475   8.360   5.985  0.0683 -0.0819 -0.0779
31836W        W48683   8.015  13.328   5.015 -0.0463  0.4699 -0.0420
31837W        W48684   5.130   6.495   1.653  0.0414 -0.0125 -0.1711
31838W        W48685  13.596   5.620   4.141 -0.0923  0.1330 -0.0811
31839W        W48686   7.781   6.136  15.810  0.1401  0.0662  0.2168
31840W        W48687   4.910   8.146  15.020 -0.1711  0.1374  0.0413
31841W        W48688  17.021  13.767   2.322  0.0114  0.0160  0.4926
31842W        W48689   2.951   4.485  14.077 -0.2379 -0.1204 -0.0624
31843W        W48690  10.857  13.288   5.006  0.3420 -0.4739 -0.1132
31844W        W48691  17.719  10.164  12.626 -0.2621 -0.3953 -0.0360
31845W        W48692  10.650  16.217   5.191 -0.0235 -0.2337  0.2092
31846W        W48693  11.351  12.843   3.132 -0.1698  0.2072 -0.0824
31847W        W48694   3.461  13.001   2.783 -0.0411  0.1682 -0.0795
31848W        W48695   6.311   4.477   0.766  0.0124  0.0074  0.4063
31849W        W48696   7.548  13.475   2.423 -0.0793  0.3060 -0.0271
31850W        W48697   3.909  16.214  16.444  0.0311 -0.0341  0.0109
31851W        W48698   7.264   1.754   2.373 -0.1911  0.0541 -0.0759
31852W        W48699  16.790  13.106  15.100 -0.1353 -0.0471 -0.0435
31853W        W48700  15.236   2.189  12.635 -0.1299  0.2158  0.0629
31854W        W48701  10.528  15.900   4.454 -0.0622 -0.2033  0.1087
31855W        W48702   2.877  16.135   1.492  0.3319  0.2728 -0.1189
31856W        W48703   1.849  17.153  15.708 -0.2950  0.0461  0.0879
31857W        W48704   2.613   7.033  16.010  0.0111 -0.2807 -0.0719
31858W        W48705  12.998   8.813   0.420  0.0760  0.1728 -0.0528
31859W        W48706   3.396  11.722   3.645 -0.1325  0.1969 -0.0991
31860W        W48707  15.850   2.865   1.637  0.0202 -0.1690 -0.2772
31861W        W48708  12.203  16.942   1.241 -0.2092 -0.0783  0.4219
31862W        W48709  13.053  17.091   6.252 -0.0548 -0.1525 -0.4254
31863W        W48710   8.919   8.431  15.390 -0.0390  0.3236  0.0320
31864W        W48711   4.414   7.538  12.299 -0.2837  0.0174  0.0914
31865W        W48712   2.144   5.822   4.736  0.2430 -0.2188 -0.3146
31866W        W48713   5.677   6.395  11.851 -0.0899  0.0416  0.0158
31867W        W48714  12.719   7.603  14.409 -0.0688  0.0465  0.1180
31868W        W48715   8.624   7.941   3.090 -0.3748 -0.0870  0.2501
31869W        W48716   5.012  10.853  13.624 -0.0390  0.0319  0.1131
31870W        W48717  11.110  12.479  15.948  0.2000 -0.1603 -0.2752
31871W        W48718   4.114  15.164  13.070  0.0138 -0.1252 -0.0689
31872W        W48719  16.899  12.599   0.375 -0.1077 -0.2720  0.1113
31873W        W48720   6.925  11.472   0.401  0.0591  0.2819  0.0707
31874W        W48721  10.712   9.539   4.890 -0.2327 -0.0556  0.0833
31875W        W48722   0.095  11.977  14.825  0.0606 -0.0258 -0.1488
31876W        W48723  16.824  14.559   1.969 -0.0297  0.0026  0.1036
31877W        W48724   0.788  17.632   4.798  0.1189 -0.0342 -0.2186
31878W        W48725   2.150  15.813  12.869  0.2000  0.0517 -0.0018
31879W        W48726   8.325  10.276  13.216  0.2723  0.0515  0.0337
31880W        W48727  14.699   1.858  12.535  0.0979  0.0331 -0.3692
31881W        W48728   9.058   5.891  14.564 -0.1931  0.2197 -0.1040
31882W        W48729   6.087   2.033   4.703 -0.1958 -0.1150  0.1674
31883W        W48730  14.445   9.216   3.833 -0.1738 -0.1786  0.2676
31884W        W48731   8.526  12.424   5.083 -0.1989  0.0023 -0.0907
31885W        W48732   1.151   1.307   1.011  0.0180 -0.0592  0.1007
31886W        W48733   3.259  17.858  11.708 -0.0965  0.0347  0.0955
31887W        W48734   2.865  14.359   1.807 -0.0698  0.1048  0.0514
31888W        W48735   8.502   0.669   0.904 -0.0499 -0.1894 -0.1452
31889W        W48736   6.243   9.741   3.111  0.0660 -0.0599  0.0726
31890W        W48737   5.618   2.156  16.582 -0.1744 -0.3614 -0.1560
31891W        W48738   2.179  16.655   2.727  0.1999  0.1281  0.1643
31892W        W48739  12.930  10.285   3.621  0.0493 -0.1022  0.0694
31893W        W48740  16.159  13.525   4.599  0.0238 -0.0204 -0.3537
31894W        W48741   4.882  12.863   2.071 -0.3610 -0.0810 -0.1180
31895W        W48742  12.292   1.399   0.122  0.3160 -0.0944  0.1038
31896W        W48743   3.559  15.990   2.871  0.0831  0.1049 -0.0921
31897W        W48744   8.726  11.922   5.183  0.2492 -0.0487  0.1228
31898W        W48745  15.889  14.762  15.336  0.0213 -0.3201 -0.0352
31899W        W48746  17.654   1.041  14.964  0.1439 -0.1618 -0.1902
31900W        W48747  17.400  12.283   3.216  0.0289  0.1475  0.3380
31901W        W48748  15.920  11.713   0.409  0.1730 -0.1112 -0.1504
31902W        W48749   5.782   8.233  16.271 -0.3388  0.0808 -0.0915
31903W        W48750   0.211   6.954  14.671  0.0910 -0.0474 -0.2435
31904W        W48751   3.955  13.788   4.119  0.1022  0.0098 -0.1081
31905W        W48752  12.652   7.862   0.079 -0.0412  0.0928 -0.0640
31906W        W48753  15.317   9.986   0.997 -0.1012 -0.0448  0.0081
31907W        W48754  12.598  15.517  15.826 -0.0658 -0.2023 -0.1776
31908W        W48755   0.549   6.608   3.553 -0.1077 -0.1587  0.1075
31909W        W48756   2.941   8.722   3.811 -0.0671 -0.1314 -0.2798
31910W        W48757   3.467   0.523   4.218 -0.0453  0.0621 -0.1296
31911W        W48758   1.992   7.953  13.256  0.0779 -0.1331  0.0054
31912W        W48759   7.372  13.283  15.779  0.0654 -0.2430 -0.0452
31913W        W48760   0.307  11.320   2.101 -0.0448 -0.2913 -0.1046
31914W        W48761  17.119   7.860   5.901 -0.0263 -0.0132  0.2641
31915W        W48762   9.784   5.239  16.079  0.0185 -0.1241 -0.1477
31916W        W48763  12.914   2.059   4.423 -0.0841  0.1150 -0.0773
31917W        W48764  11.305  17.536   2.192 -0.1302 -0.1814 -0.0381
31918W        W48765   1.407  13.008   4.995  0.0144 -0.0664 -0.2066
31919W        W48766   5.050   8.036   4.641 -0.3301 -0.0619  0.0111
31920W        W48767   3.634   5.683   1.365  0.2616  0.2557  0.0305
31921W        W48768  16.353  11.950   0.757  0.3181 -0.0915 -0.0985
31922W        W48769   5.291   6.730   5.351 -0.0510 -0.1629 -0.0063
31923W        W48770  13.539   2.315  16.025  0.0653  0.0906  0.4338
31924W        W48771   5.720   2.842  16.031 -0.1796  0.2025  0.2321
31925W        W48772   8.374   1.244  15.559  0.0643 -0.0887 -0.2813
31926W        W48773  10.087   8.477   2.068 -0.2121 -0.1199 -0.0515
31927W        W48774   8.656  16.130  16.272 -0.0954  0.1854  0.1841
31928W        W48775   7.402  17.543   3.671  0.1077 -0.2154  0.1253
31929W        W48776   4.082  10.217  15.536  0.0294  0.0998 -0.2753
31930W        W48777   4.185   9.803   3.834  0.0626  0.2580  0.0421
31931W        W48778  10.814   8.225   4.980 -0.3854  0.2312  0.2159
31932W        W48779   3.700   2.639   5.297 -0.0697 -0.0355  0.2188
31933W        W48780   0.582   0.994  11.498 -0.2382 -0.2410 -0.0181
31934W        W48781   4.415   8.332   5.001  0.3144 -0.1062 -0.0806
31935W        W48782  16.279  15.358   3.762 -0.0781  0.1325  0.1517
31936W        W48783   0.462   8.106   1.320 -0.1702  0.0026  0.1309
31937W        W48784  16.979   0.963  13.174  0.1399 -0.1570 -0.0440
31938W        W48785   0.997   3.894  13.337  0.1273 -0.2043 -0.1174
31939W        W48786  16.094   9.596  14.839 -0.0745 -0.0687 -0.3422
31940W        W48787  13.376  13.652  12.802 -0.1678 -0.1409 -0.2508
31941W        W48788   9.396   8.464   3.564  0.1705 -0.3026  0.0708
31942W        W48789   7.430   6.832   0.039 -0.0837 -0.0874  0.0482
31943W        W48790  10.404   1.183   4.887 -0.2868 -0.1166  0.4088
31944W        W48791   1.291  11.624  14.189 -0.0785  0.2178  0.2043
31945W        W48792   8.643   8.241  12.803  0.0272 -0.0186  0.0738
31946W        W48793   1.529   8.499   0.708  0.1422 -0.2043 -0.1160
31947W        W48794  13.085   1.004   1.652 -0.1913  0.0187  0.1066
31948W        W48795   1.685  15.419   0.415  0.0333  0.0374 -0.0200
31949W        W48796  17.744   5.423   3.305 -0.0884  0.0684 -0.0711
31950W        W48797  15.792  17.895   3.296 -0.1618 -0.2239 -0.1151
31951W        W48798   5.553   2.274   4.518 -0.1453 -0.2346 -0.3152
31952W        W48799   4.338  12.849   4.627  0.0032 -0.3523 -0.1252
31953W        W48800  12.638  10.122   1.780  0.0150  0.0152 -0.2451
31954W        W48801  13.838  10.726   2.097  0.2616  0.1867  0.0276
31955W        W48802  11.041   6.565   0.065 -0.0704  0.1478  0.4696
31956W        W48803   9.281   9.381  15.655 -0.0549 -0.3496  0.0566
31957W        W48804  13.557   5.334   3.309  0.4483  0.0565 -0.0142
31958W        W48805  13.150  12.463   4.438 -0.2206 -0.0042 -0.1842
31959W        W48806  13.932   6.770  15.078  0.1967  0.1051 -0.0398
31960W        W48807  16.448  13.676   2.154 -0.1931 -0.1338  0.1268
31961W        W48808  11.010   8.131   3.257  0.3912  0.0847 -0.1196
31962W        W48809  17.295  14.083  14.211 -0.3436  0.2909  0.1664
31963W        W48810  12.384   5.198  14.279 -0.0365 -0.0277 -0.0790
31964W        W48811  11.733   0.526  15.123 -0.1847 -0.0750  0.2596
31965W        W48812  10.306  10.356  12.927 -0.0984  0.1404 -0.4533
31966W        W48813  13.157   8.972   5.629  0.0404 -0.1409  0.1695
31967W        W48814  10.044   4.295  13.294  0.1765  0.0601 -0.2325
31968W        W48815   7.368  10.228   1.302  0.3349  0.0634 -0.3064
31969W        W48816   8.890   3.738  15.277 -0.2717 -0.0635 -0.0730
31970W        W48817   1.418   6.964   2.486 -0.2267 -0.0610  0.2702
31971W        W48818   5.872   6.860  13.778 -0.0068  0.0944  0.2509
31972W        W48819   3.257   2.344  12.145 -0.1888 -0.1523 -0.2515
31973W        W48820   5.779   4.487   5.383  0.2941  0.2424 -0.0302
31974W        W48821  13.942  11.339  13.818 -0.2530 -0.3588  0.1872
31975W        W48822  15.480   7.899  13.918 -0.0797  0.2890  0.1074
31976W        W48823  11.973  14.170   4.194  0.1387  0.2823  0.3650
31977W        W48824   8.314   6.659   0.058  0.1278 -0.3538  0.1384
31978W        W48825  14.225  11.356  16.497 -0.3563  0.2005  0.3517
31979W        W48826   0.150   5.586   0.837  0.1093 -0.0343  0.0292
31980W        W48827  13.583   9.001   4.933 -0.0265  0.1268  0.0670
31981W        W48828  10.214  11.868   2.197 -0.0065 -0.1829 -0.0899
31982W        W48829   6.238  12.484   5.939  0.1466  0.0379  0.0101
31983W        W48830   0.895  13.003   4.924  0.1102 -0.1801  0.1218
31984W        W48831   1.219   1.004   4.298 -0.2773  0.2643  0.0500
31985W        W48832   0.394   9.803  13.609 -0.1501 -0.2457  0.0117
31986W        W48833   3.053  15.859  13.708 -0.1479  0.1276  0.0989
31987W        W48834  15.231  10.836   3.402 -0.0907 -0.1537  0.1983
31988W        W48835   6.750   4.932  14.697  0.0342  0.4211 -0.3212
31989W        W48836  13.156   1.600   3.724 -0.0649  0.1915 -0.4539
31990W        W48837  17.118   7.254   1.920  0.1433 -0.0170 -0.0319
31991W        W48838   9.007  16.288  11.585  0.1726 -0.1069  0.0348
31992W        W48839  14.544   7.613   0.270 -0.2793 -0.2584 -0.0822
31993W        W48840   0.056   1.319  13.505 -0.1384 -0.1147  0.0795
31994W        W48841  10.750   4.435  15.428  0.1248 -0.1830  0.0928
31995W        W48842   7.939   5.956   2.038 -0.0197 -0.1788  0.2913
31996W        W48843   9.519  10.152  13.482  0.1296 -0.0787  0.1060
31997W        W48844   9.045   0.107  12.273 -0.0518 -0.0920  0.3211
31998W        W48845   1.362  12.226   1.740  0.1220  0.0955  0.0907
31999W        W48846   7.654  12.338   3.047 -0.3409 -0.1521  0.3900
32000W        W48847   4.100  13.699   1.496  0.0733 -0.1828  0.0069
32001W        W48848   7.021   6.854   4.239 -0.2845 -0.1576  0.1253
32002W        W48849  13.713  16.308   2.366 -0.1509  0.1739 -0.2944
32003W        W48850   5.982  12.650   4.799 -0.0511  0.0128 -0.0701
32004W        W48851   4.453  12.541  12.343  0.0259 -0.1098 -0.0842
32005W        W48852   7.000  16.771  14.897  0.0327 -0.0051  0.0357
32006W        W48853  14.752  14.410  15.313 -0.1883  0.3586  0.3267
32007W        W48854  16.994   4.910   5.088  0.1485  0.3027  0.1745
32008W        W48855  14.454   6.119  16.535  0.3462  0.0795 -0.1027
32009W        W48856  10.028  13.153   0.301 -0.1888 -0.1114 -0.1843
32010W        W48857  11.750  13.118   3.304 -0.0745  0.0405 -0.0011
32011W        W48858   3.228  13.050   1.751  0.0951  0.0473  0.2812
32012W        W48859  10.224   9.093  12.868  0.1684 -0.0995 -0.0083
32013W        W48860   5.646   1.109  14.288  0.0455 -0.0269  0.0043
32014W        W48861   5.105   7.819  16.056  0.1059 -0.0492  0.2446
32015W        W48862   1.119  13.248  11.996 -0.2792 -0.2377  0.1744
32016W        W48863   5.669   5.120  14.933  0.0391 -0.0622 -0.1845
32017W        W48864  14.925   7.284   0.431  0.1931 -0.0217  0.3398
32018W        W48865   2.977   8.303  16.352  0.1855  0.2818  0.3292
32019W        W48866   0.485  17.241   3.302 -0.3757  0.0704  0.0758
32020W        W48867  13.576  13.056   0.994 -0.0883  0.0164  0.0738
32021W        W48868  14.588  16.416   1.078  0.2342  0.0863  0.0450
32022W        W48869  10.248  16.407   4.459 -0.0426 -0.3507 -0.3025
32023W        W48870   0.547  12.159  15.010 -0.1364  0.0128  0.0555
32024W        W48871   6.590   7.934  13.795  0.1861  0.0855  0.1359
32025W        W48872  10.523  12.468  14.019  0.1716  0.2149 -0.1926
32026W        W48873   1.644  10.275  14.351 -0.1048  0.0373 -0.0068
32027W        W48874  15.775  12.958  12.023 -0.2705  0.0710 -0.2108
32028W        W48875   7.471  14.855   1.239 -0.1445 -0.1233  0.0413
32029W        W48876  16.891   6.640  16.583 -0.1398  0.3775  0.0893
32030W        W48877   0.641   5.341   0.859  0.2114 -0.2401  0.0118
32031W        W48878   2.894   4.875  15.128 -0.0173 -0.3673  0.0926
32032W        W48879   0.909  10.061   3.437 -0.2838 -0.1217  0.0473
32033W        W48880   7.469  11.759   1.290  0.2197  0.0596 -0.1123
32034W        W48881   8.195  17.570   5.021 -0.0689  0.0655 -0.0747
32035W        W48882   6.616   2.240  16.691  0.1693 -0.0367  0.0416
32036W        W48883   7.708   2.978  11.825  0.1566  0.1488 -0.1049
32037W        W48884  12.169   9.238   4.781  0.1578 -0.2402  0.1216
32038W        W48885   1.420  15.286   3.930  0.2718  0.1211 -0.2727
32039W        W48886  10.667  16.202   2.863 -0.0258 -0.2009 -0.2427
32040W        W48887  13.205   4.469   5.712 -0.1440  0.1348  0.0926
32041W        W48888   5.270   2.978   5.210 -0.1407  0.0681  0.0355
32042W        W48889   6.262   4.701  16.007 -0.1695 -0.0476 -0.1220
32043W        W48890   7.665   2.388   1.555  0.1215  0.0102  0.0616
32044W        W48891  17.657   4.020  14.132  0.0288 -0.2633 -0.0664
32045W        W48892  15.182  12.243   4.508  0.2999  0.0143 -0.0343
32046W        W48893   3.328  11.778   1.394  0.0927  0.1498  0.0012
32047W        W48894   2.930  11.450   1.210  0.0577  0.1178 -0.1705
32048W        W48895  13.189   5.860  13.261 -0.1516 -0.0605  0.1652
32049W        W48896   5.394  12.878   3.047 -0.3401  0.0043 -0.1779
32050W        W48897   9.810   6.800  15.389  0.1630 -0.0459  0.0822
32051W        W48898   4.537  15.637  12.353 -0.0943 -0.2915  0.0254
32052W        W48899  16.477  10.552  12.864 -0.1708  0.0071  0.0770
32053W        W48900   5.996   1.369  14.682 -0.0079 -0.2018 -0.0487
32054W        W48901  15.187  13.747   5.127 -0.0642  0.0844 -0.1857
32055W        W48902  16.573  17.628  16.633  0.0848 -0.1436  0.2425
32056W        W48903  16.530   1.932   0.899  0.0299 -0.3397 -0.2289
32057W        W48904  15.436  12.674   4.610 -0.2976 -0.1172  0.0336
32058W        W48905  12.635   0.536   3.317 -0.0456 -0.1342  0.4036
32059W        W48906   4.620   6.368  13.460  0.0621  0.1881 -0.0646
32060W        W48907  10.131   3.340   3.249  0.0012 -0.1426  0.0107
32061W        W48908   0.646   6.541  12.699  0.0863 -0.0547 -0.1410
32062W        W48909   8.588   3.274   3.592  0.1920  0.0689  0.1286
32063W        W48910  15.581  11.169   1.707  0.2656 -0.6719  0.0719
32064W        W48911   1.719   1.366   5.144 -0.2027  0.0387  0.1187
32065W        W48912  10.958  16.425  13.617  0.1821 -0.1988  0.0185
32066W        W48913   4.556  12.323   3.314  0.1354 -0.0967  0.2525
32067W        W48914  12.405  14.275   2.566  0.0365  0.3446 -0.2762
32068W        W48915  17.122  15.367  12.291  0.0115  0.0469 -0.0755
32069W        W48916   6.581   2.725   3.066  0.1830  0.0985 -0.3416
32070W        W48917   0.702  14.186  15.368  0.1033  0.2161 -0.0723
32071W        W48918   9.971   7.945  15.991  0.1002  0.0828  0.1224
32072W        W48919  14.754   8.580   1.941  0.1443 -0.0989 -0.0982
32073W        W48920   0.344   0.419  15.460  0.0932  0.3097 -0.1401
32074W        W48921  10.407   5.789  11.921  0.2511 -0.2577  0.3282
32075W        W48922  17.253  14.784   1.878 -0.2750  0.0995  0.2618
32076W        W48923  14.152  17.554  13.939  0.2360  0.0789  0.0938
32077W        W48924   0.834  17.225   1.027  0.1190 -0.2910  0.0503
32078W        W48925   9.386  17.399   3.386 -0.1274 -0.1544 -0.4380
32079W        W48926  15.623  12.308   1.542  0.0745  0.0560  0.3452
32080W        W48927   7.770   8.029  15.928  0.2164  0.0485 -0.1590
32081W        W48928   1.179   0.154  12.790 -0.2251 -0.1570  0.2507
32082W        W48929   9.584  14.000  15.300  0.1197  0.1779  0.0870
32083W        W48930  16.291  15.883   1.184  0.1939 -0.0436  0.2391
32084W        W48931   6.203   9.531  15.471  0.1473  0.1982 -0.0448
32085W        W48932  10.152   3.215  12.864  0.4217  0.0180  0.1320
32086W        W48933   4.058   2.553  16.160  0.2436 -0.2872 -0.1167
32087W        W48934   8.890   6.163  13.210  0.0614 -0.0206  0.1614
32088W        W48935  10.989  17.168  16.292 -0.0285  0.3847  0.1116
32089W        W48936   4.218  17.019   0.549 -0.3949 -0.1034 -0.1732
32090W        W48937   4.450  15.908   1.547 -0.0414 -0.3793  0.0536
32091W        W48938  16.509  17.944   4.207 -0.3409  0.3893  0.2457
32092W        W48939  11.860   7.665  12.190  0.2283  0.1397  0.1880
32093W        W48940   0.125  12.252   0.531  0.0721  0.1468  0.0047
32094W        W48941  10.805   0.838  10.342 -0.1631 -0.1134 -0.0123
32095W        W48942  12.787  15.616  13.091 -0.2288 -0.0233 -0.0743
32096W        W48943   7.990   0.402   0.072 -0.1917 -0.1803 -0.0929
32097W        W48944  11.005   9.808  13.895 -0.0713 -0.0412  0.3947
32098W        W48945   6.816  10.747   3.402 -0.0795 -0.2077  0.0380
32099W        W48946   5.299   8.179  14.291 -0.3113 -0.1165  0.1839
32100W        W48947   8.999   0.180  12.862 -0.2488 -0.1084  0.1687
32101W        W48948  15.352   1.193   2.693 -0.0841 -0.0961  0.0759
32102W        W48949   1.743  14.890   4.376  0.2442  0.1171 -0.1076
32103W        W48950   7.130   3.143  12.444  0.0792 -0.1704  0.0495
32104W        W48951  12.209   0.601  16.481  0.0728  0.0692 -0.1999
32105W        W48952  15.668  13.506   5.884 -0.0650 -0.1219 -0.0064
32106W        W48953   6.207   1.033   3.069  0.2928 -0.0999  0.1169
32107W        W48954   7.033   3.415  11.886 -0.2192 -0.0609 -0.1958
32108W        W48955   4.975   5.475   4.759  0.0115  0.0810  0.0309
32109W        W48956   1.614   2.393   4.521  0.1012 -0.0620 -0.0425
32110W        W48957   9.012   3.596   0.095  0.1308  0.0988 -0.0914
32111W        W48958   1.307  16.011   0.013 -0.0322 -0.1785  0.2609
32112W        W48959  10.793  10.219  16.113 -0.2106 -0.0055 -0.2258
32113W        W48960  16.783  10.427   1.379 -0.2089 -0.1706  0.0199
32114W        W48961   4.905   3.929   3.062  0.1240 -0.0600 -0.1992
32115W        W48962  10.021  15.326  11.877  0.1387 -0.1969 -0.1649
32116W        W48963  12.507   9.227   1.711 -0.0775  0.2399 -0.0095
32117W        W48964  16.709   6.523   3.050 -0.1621  0.2856  0.1493
32118W        W48965   8.431  15.245  16.412  0.0415 -0.0451  0.3693
32119W        W48966   9.902  15.200   4.898  0.1990 -0.1013  0.3264
32120W        W48967  14.002   7.223  12.214 -0.3062 -0.2721  0.2064
32121W        W48968   5.740  11.125  14.266 -0.0156 -0.1953  0.1112
32122W        W48969  10.203  12.263   1.192  0.1714  0.2633  0.0454
32123W        W48970   4.079   8.137   4.656  0.0058  0.2094  0.0141
32124W        W48971  13.077   0.185  14.526  0.3468 -0.1045 -0.1731
32125W        W48972   1.429   3.977  13.106 -0.0214 -0.2348 -0.0963
32126W        W48973  13.322  12.698  14.876 -0.2998 -0.0115  0.0884
32127W        W48974   3.981  14.251  12.613 -0.0135 -0.0686 -0.3688
32128W        W48975   0.407   1.388   2.322 -0.1561 -0.4659  0.1428
32129W        W48976  10.213  11.142   0.010 -0.1272 -0.0026 -0.3603
32130W        W48977  11.233   8.365  13.337 -0.3083 -0.0028 -0.0309
32131W        W48978  10.987   1.846  13.700  0.0328  0.0044 -0.0452
32132W        W48979   0.731  16.508  16.230  0.2063  0.2977  0.1347
32133W        W48980   6.384  12.295   0.278 -0.4328  0.1577 -0.2041
32134W        W48981   4.979   0.139   0.803 -0.1677  0.2224 -0.0942
32135W        W48982  14.898   5.921  16.792  0.0402 -0.0379  0.1463
32136W        W48983  17.412   4.133   4.547 -0.1827 -0.1043  0.1381
32137W        W48984   4.193  15.878  16.082  0.3490 -0.3119  0.0551
32138W        W48985   1.504  12.967  14.627  0.0840  0.1824  0.2593
32139W        W48986  13.557   9.270   1.396 -0.2185 -0.0172 -0.0091
32140W        W48987  16.849   6.855  14.237 -0.1709 -0.2005 -0.1026
32141W        W48988  12.827   0.058   5.123 -0.2741 -0.0794  0.1743
32142W        W48989  10.984  17.041   0.510  0.2533 -0.1359 -0.1468
32143W        W48990   6.692  10.403  13.367  0.3029 -0.1441  0.0891
32144W        W48991  11.070  11.233   2.375  0.3444 -0.0052 -0.1517
32145W        W48992  16.807   7.458   0.447 -0.3567  0.0942  0.0564
32146W        W48993  11.694   8.787  13.627 -0.2471  0.0907  0.1447
32147W        W48994  10.620   1.712  14.660 -0.0510 -0.0039  0.1022
32148W        W48995   5.031   3.425   2.940  0.0752  0.0225  0.0288
32149W        W48996   6.257  16.154   4.580  0.1166  0.0292 -0.2151
32150W        W48997  15.785   3.510  15.304 -0.0611  0.3068 -0.0207
32151W        W48998   2.989   2.135  12.892 -0.0856  0.2640  0.0199
32152W        W48999   0.944   3.660  16.776 -0.1337  0.1857  0.0656
32153W        W49000  17.778  17.905   2.892 -0.2890 -0.1369  0.2305
32154W        W49001   8.176  10.642   1.295  0.0485  0.0082 -0.0427
32155W        W49002   5.705   4.962   5.207 -0.2453  0.0661 -0.0662
32156W        W49003  10.937  15.620   4.521  0.2322 -0.0985 -0.3600
32157W        W49004   9.790   3.995  16.564 -0.2406 -0.0933 -0.4068
32158W        W49005   5.726  10.429   3.340 -0.0756 -0.4023  0.1077
32159W        W49006   3.193   9.961   5.181  0.1329 -0.1989  0.1532
32160W        W49007   4.343  11.563   4.386 -0.0717 -0.1733  0.1837
32161W        W49008   7.691   5.812   2.465  0.1196 -0.1711  0.1384
32162W        W49009   2.643  11.266  13.994  0.0388  0.2851  0.0790
32163W        W49010  12.300   0.093   5.187  0.1151 -0.1133  0.1566
32164W        W49011  10.035   4.698   4.249  0.1123  0.2746  0.1406
32165W        W49012   7.988  16.634   0.470  0.1120  0.0031  0.2655
32166W        W49013  14.546  10.617   3.029  0.0317 -0.2605 -0.0201
32167W        W49014  11.670   9.616   4.618  0.2707 -0.0987  0.1167
32168W        W49015  11.032   8.476  13.979  0.2333  0.0191  0.1948
32169W        W49016   9.926   9.752  16.238 -0.1398 -0.3820  0.1756
32170W        W49017  17.117  12.155   4.835  0.3838  0.2130  0.0042
32171W        W49018  13.329   2.030   0.878 -0.1246 -0.2223  0.0236
32172W        W49019   3.951  12.937   3.018 -0.2691  0.0405 -0.2055
32173W        W49020   1.558   4.875   5.754  0.1412  0.1139 -0.0976
32174W        W49021   3.478  13.147   1.019 -0.0277  0.0863 -0.2094
32175W        W49022  17.072   5.500   5.598 -0.2614 -0.1366 -0.1154
32176W        W49023  16.077  13.773   1.834  0.2649  0.1652  0.0763
32177W        W49024   1.051  13.718   0.343  0.2203  0.0361 -0.0514
32178W        W49025   6.447  14.005  13.239  0.4860  0.2036 -0.0268
32179W        W49026   5.671   2.743   5.316  0.2433 -0.3101 -0.0465
32180W        W49027  13.466   0.921   6.230  0.1946  0.1273  0.0134
32181W        W49028   4.954   5.555   1.725  0.0057  0.0152 -0.1148
32182W        W49029   4.637  16.788   0.556 -0.1919  0.3579  0.0807
32183W        W49030  11.440  14.393   6.219 -0.0126 -0.0221  0.1224
32184W        W49031   8.482  10.905   0.951 -0.1252 -0.2742  0.0073
32185W        W49032  17.136   4.044  11.942 -0.2761  0.0411  0.0626
32186W        W49033  12.082  10.213   3.182 -0.2766  0.1693  0.1234
32187W        W49034  15.148   9.518   2.342  0.0515  0.0997 -0.1709
32188ION     NA49035  14.721   1.515  10.589 -0.1193 -0.0049 -0.0968
32189ION     NA49036  17.465  10.648  10.673 -0.0340 -0.0418  0.1594
32190ION     NA49037   1.218   7.495   5.923  0.0358  0.3731 -0.0354
32191ION     NA49038   3.464   5.960   5.768 -0.1580 -0.0835 -0.0539
32192ION     NA49039  16.785  13.647  10.653 -0.1736 -0.1921  0.1590
32193ION     NA49040  15.310  12.942  13.548  0.0661 -0.2009  0.2109
32194ION     NA49041  17.223  11.825   4.465  0.4818  0.1748  0.0753
32195ION     NA49042  10.705   6.117   6.188  0.1589  0.0170  0.0876
32196ION     NA49043   4.199   3.732   1.495  0.1674 -0.1897  0.1634
32197ION     NA49044   8.953   3.690  10.379  0.1409 -0.0693 -0.1911
32198ION     NA49045   8.599  14.879  10.775 -0.0786 -0.0282 -0.0985
32199ION     NA49046   7.305   8.479   3.335  0.0044  0.1899  0.1730
32200ION     NA49047   9.691   0.889   5.950  0.2559  0.1057 -0.3575
32201ION     NA49048  17.320  13.142  15.182  0.0140  0.0241 -0.3833
32202ION     NA49049   4.087  11.762   6.084 -0.0760 -0.1287  0.1863
32203ION     NA49050   9.834  16.502  15.882 -0.1291 -0.2028  0.0215
32204ION     NA49051   4.870  11.993   5.621 -0.0188 -0.1851 -0.0544
32205ION     NA49052  12.470   5.421   1.981 -0.1888 -0.1121  0.0660
32206ION     NA49053   7.885   6.372  11.171 -0.1676 -0.1488 -0.1226
32207ION     NA49054   9.764   4.610  10.621 -0.3076  0.0529  0.1091
32208ION     NA49055   7.531  17.503  10.351 -0.1069  0.0305 -0.2191
32209ION     NA49056  15.924  14.720  11.054  0.0600 -0.4524 -0.0773
32210ION     NA49057  16.805  12.500   5.139  0.0548  0.0795 -0.2516
32211ION     NA49058   5.758   8.404   1.105  0.3038 -0.0843  0.1363
32212ION     NA49059  12.641  12.649  10.828 -0.2997 -0.1689  0.3057
32213ION     NA49060   7.361   5.112   5.333 -0.1287  0.3355  0.2936
32214ION     NA49061   4.958  14.081  10.756 -0.2075  0.1598 -0.1226
32215ION     NA49062   6.745   0.037  10.359  0.1417 -0.0616  0.0066
32216ION     NA49063  14.193   1.750  12.678  0.0854  0.0238  0.1494
32217ION     NA49064   1.228  16.717   5.832 -0.1554  0.0660 -0.1812
32218ION     NA49065   3.534   4.886   5.530  0.0623  0.0448  0.1201
32219ION     NA49066  13.638   4.923  12.231  0.0238 -0.3994 -0.2012
32220ION     NA49067  12.082  15.447  10.916  0.3019 -0.0901 -0.2326
32221ION     NA49068   9.820  12.026   0.912  0.2351  0.1734  0.0270
32222ION     NA49069  10.522   4.903  15.583 -0.0372  0.2057  0.0783
32223ION     NA49070   6.339   0.469   4.296 -0.0784  0.2298  0.0955
32224ION     NA49071  16.884  17.476  10.957 -0.0607  0.0384  0.1006
32225ION     NA49072   1.755  10.437   5.287  0.0461 -0.3151  0.2147
32226ION     NA49073   7.482   1.233  14.554 -0.0817  0.0580  0.0407
32227ION     NA49074  10.450   1.639   5.710 -0.1117 -0.1350 -0.0886
32228ION     NA49075   0.028  12.301  11.305 -0.0626 -0.0011  0.2238
32229ION     NA49076  13.938  16.599  13.010  0.0079 -0.0449  0.0705
32230ION     NA49077   4.001   9.077  10.843  0.1304  0.3552  0.0808
32231ION     NA49078   3.515   5.296   2.182  0.1710  0.3350 -0.0968
32232ION     NA49079   5.720  12.642   6.109 -0.1321  0.1557  0.3924
32233ION     NA49080  17.344  17.281   1.596 -0.1750 -0.1128  0.1689
32234ION     NA49081  15.521   6.769  10.734  0.0711 -0.0620 -0.1169
32235ION     NA49082  13.874   5.489  10.921 -0.2986 -0.1548 -0.2852
32236ION     NA49083   8.577  12.980  12.247 -0.1814  0.3309 -0.2103
32237ION     NA49084   2.438   9.286  12.199  0.0277 -0.1543 -0.0464
32238ION     NA49085   0.171   1.548   4.318 -0.3008  0.2003  0.2417
32239ION     NA49086   8.144  12.600  11.063  0.2075 -0.2786  0.0323
32240ION     NA49087   2.387   5.944  10.735  0.1059 -0.0765  0.0537
32241ION     NA49088   2.584  13.128  11.128  0.2125 -0.4089  0.1415
32242ION     NA49089  10.231   1.275  10.488 -0.0846 -0.1909  0.0119
32243ION     NA49090   6.393  11.378  10.970 -0.0382  0.1501 -0.1344
32244ION     NA49091   1.963   0.113  10.764  0.0854  0.0353 -0.0382
32245ION     NA49092  16.793   0.474  10.716  0.0715 -0.0236 -0.0486
32246ION     NA49093   5.035  17.874  11.711 -0.4150 -0.0764  0.1926
32247ION     NA49094   6.336  17.306   5.689  0.2784  0.0906 -0.1673
32248ION     NA49095   4.230  14.702  10.808  0.0545 -0.3301  0.4568
32249ION     NA49096   7.559   0.534  10.361 -0.2666 -0.0148 -0.2265
32250ION     NA49097  10.092   1.890   4.392  0.0921  0.1694  0.3990
32251ION     NA49098  11.011   9.642  10.610  0.1275 -0.1884 -0.1887
32252ION     NA49099  11.889  11.329  10.889 -0.1091 -0.0391  0.1007
32253ION     NA49100  12.593  17.588   4.430  0.2125 -0.1122 -0.0032
32254ION     NA49101   4.604  17.637   5.535  0.1838  0.2691 -0.1082
32255ION     NA49102  13.355  12.283  16.453  0.4011 -0.1231 -0.2948
32256ION     NA49103  14.110  16.692  10.790  0.0435 -0.0248  0.2892
32257ION     NA49104   7.867   5.696   6.293  0.2926  0.3045 -0.1137
32258ION     NA49105  17.217   4.354  10.405 -0.2183 -0.2095 -0.1949
32259ION     NA49106  14.836  10.316  10.769 -0.1898 -0.1859  0.1605
32260ION     NA49107  11.092  15.203  10.872  0.1817  0.0114 -0.1095
32261ION     NA49108   0.301   3.705   5.310  0.0035  0.0965  0.3346
32262ION     NA49109   9.380  14.921   5.966  0.0153  0.2843  0.0018
32263ION     NA49110   9.633   3.176  10.259 -0.1205  0.0344 -0.0411
32264ION     NA49111  12.201  13.939  11.002 -0.1867 -0.0583 -0.1409
32265ION     NA49112   9.160  14.257  10.955 -0.3989 -0.2318  0.1336
32266ION     NA49113   6.605   0.939  10.459  0.2701 -0.2240 -0.0270
32267ION     NA49114   0.096  17.726  10.522  0.0343  0.3379  0.3859
32268ION     NA49115  10.775  14.769  11.003  0.2103  0.1230  0.1034
32269ION     NA49116   6.637   6.379   6.389 -0.2603  0.0469  0.0191
32270ION     NA49117  12.675   4.096  10.818  0.0988 -0.0416 -0.1350
32271ION     NA49118  12.708   7.363   0.339 -0.2065  0.0383 -0.0819
32272ION     NA49119  12.775   0.437  10.918  0.1934  0.1084  0.3970
32273ION     NA49120  15.964   3.451  10.375 -0.1751 -0.6132  0.1405
32274ION     NA49121   0.684   6.366  10.693 -0.0183  0.0438 -0.1507
32275ION     NA49122   7.014  15.239  10.558  0.2547 -0.0957 -0.0490
32276ION     NA49123   4.195   2.109  15.806  0.0521  0.1052 -0.1352
32277ION     NA49124  15.547   9.352  14.656 -0.0748  0.2303  0.0145
32278ION     NA49125   2.835   4.681  10.836  0.0023  0.0572 -0.0966
32279ION     NA49126   9.419  16.433  14.733  0.0791 -0.3922 -0.0138
32280ION     NA49127  14.436   0.632  10.742  0.0092 -0.0782  0.1772
32281ION     NA49128   4.817  15.080  10.859  0.0333 -0.1459  0.1888
32282ION     NA49129   2.577  12.831  11.544 -0.0308 -0.2469  0.0878
32283ION     NA49130   3.082   5.480  16.789 -0.0030  0.2986 -0.1553
32284ION     NA49131   3.405  17.434  10.612 -0.0191 -0.1536  0.0885
32285ION     NA49132   2.069  13.699  11.325 -0.3119  0.0544 -0.2399
32286ION     NA49133   2.731   3.469   6.123  0.0775  0.0168  0.1185
32287ION     NA49134   3.099   5.734  10.855 -0.1029  0.0115  0.1036
32288ION     NA49135  12.209  10.317  10.971  0.0403 -0.2204  0.1598
32289ION     NA49136   4.478   3.553   5.979  0.0923 -0.0011  0.1003
32290ION     NA49137  12.630   5.560  11.148 -0.0523  0.2904 -0.0926
32291ION     NA49138   1.806  12.269  14.729  0.1641  0.3213 -0.1779
32292ION     NA49139  14.690   9.829   5.759 -0.1672 -0.1156  0.0016
32293ION     NA49140   8.055   3.421  10.588  0.0120  0.3389 -0.0926
32294ION     NA49141   3.038  11.934   3.310  0.0694 -0.0576  0.2703
32295ION     NA49142   9.021   1.650   1.962 -0.1296 -0.0578  0.1452
32296ION     NA49143  14.940   3.170  10.634 -0.0357 -0.0319  0.0237
32297ION     NA49144  11.057   7.843  11.013  0.2241 -0.3426 -0.0065
32298ION     NA49145  10.943   4.753  11.404 -0.2336  0.0473 -0.2987
32299ION     NA49146   7.357   7.705   6.335  0.0051 -0.1047 -0.1603
32300ION     NA49147  16.183  17.169  14.232  0.0066 -0.3066  0.0343
32301ION     NA49148   0.754   8.336   2.950  0.0794  0.0227  0.0269
32302ION     NA49149  10.547  10.791   5.411  0.0273  0.2850  0.0736
32303ION     NA49150   7.871   1.634  10.482 -0.0152 -0.0908  0.0555
32304ION     NA49151   3.889   1.007   5.599 -0.0782 -0.2372 -0.0927
32305ION     NA49152   8.235   9.910  10.976  0.0543  0.4450  0.1996
32306ION     NA49153   4.387  10.035  10.666  0.2745  0.0525 -0.0746
32307ION     NA49154  11.515   1.951   1.558  0.0080  0.1489 -0.1718
32308ION     NA49155  15.002  12.130  14.864  0.1111 -0.0287  0.1628
32309ION     NA49156  13.254   8.637  15.412 -0.1056  0.4051  0.1754
32310ION     NA49157   3.227  14.893  10.849 -0.1633 -0.0528 -0.0200
32311ION     NA49158   2.236   4.249  15.204  0.1969 -0.0274  0.1949
32312ION     NA49159  12.152   0.801  14.939 -0.0497  0.4161  0.0040
32313ION     NA49160  17.380  10.232   5.355  0.1053  0.0064 -0.0623
32314ION     NA49161   0.534   5.583  10.888  0.1598 -0.2167  0.3530
32315ION     NA49162  15.679  15.200   3.183 -0.2272  0.1193 -0.1628
32316ION     NA49163   5.220   3.921  10.700 -0.1073 -0.1646  0.0630
32317ION     NA49164   2.353   8.396  10.755  0.0066  0.0287 -0.1417
32318ION     NA49165   5.174  11.634  11.055 -0.2523  0.0151 -0.0325
32319ION     NA49166  13.957  14.234   6.174 -0.1340  0.0208  0.0259
32320ION     NA49167  10.383  14.844   6.198 -0.0399  0.0167  0.0763
32321ION     NA49168   8.718  15.726  10.645  0.0104  0.4845 -0.3333
32322ION     NA49169   0.120  15.901  11.052  0.0080 -0.0691  0.1114
32323ION     NA49170   1.399  15.544  14.042  0.0430  0.2147  0.1965
32324ION     NA49171   9.822  13.569  10.779 -0.2686 -0.0789 -0.4628
32325ION     NA49172   9.858   0.538  10.429 -0.0689  0.2481 -0.3718
32326ION     NA49173   4.305   4.865   1.916 -0.0150  0.2512  0.0217
32327ION     NA49174   7.708   9.102  10.978 -0.2893  0.1523  0.2555
32328ION     NA49175   4.267  14.218   5.861  0.0423  0.1369 -0.2343
32329ION     NA49176  13.480  16.908   5.609  0.0556 -0.1013 -0.1021
32330ION     NA49177  17.446  14.172  11.021 -0.3060  0.0258  0.0633
32331ION     NA49178   5.766   2.567  10.564 -0.1642 -0.0175 -0.0918
32332ION     NA49179  10.912   7.035  12.904 -0.0923 -0.1947 -0.0998
32333ION     NA49180  12.367   4.815  10.910 -0.1417 -0.1584 -0.0492
32334ION     NA49181   9.978  14.447  10.845 -0.2120 -0.2039 -0.0856
32335ION     NA49182  15.024  16.606  12.989 -0.0128  0.2293  0.3295
32336ION     NA49183   3.062  14.822  16.202  0.1710  0.2788 -0.3780
32337ION     NA49184  12.160  10.177  15.506 -0.2393 -0.1905  0.2060
32338ION     NA49185   5.878  13.730   1.731 -0.0439 -0.2024 -0.0663
32339ION     NA49186   2.119  14.670  10.969 -0.3100  0.2077 -0.2426
32340ION     NA49187   5.829   6.212  11.073  0.3018  0.1707  0.0425
32341ION     NA49188   9.033   4.069  10.654 -0.0429  0.0893 -0.0335
32342ION     NA49189   0.333   1.041  10.795 -0.4022  0.1375  0.0657
32343ION     NA49190   3.735   9.388   5.605  0.0367  0.1597 -0.0638
32344ION     NA49191  11.575   5.097  10.848  0.1052 -0.0441 -0.4491
32345ION     NA49192   4.271  17.279   1.540 -0.0159 -0.0746  0.1259
32346ION     NA49193   2.051   1.393  10.282  0.0728 -0.0074  0.0951
32347ION     NA49194  15.932   3.178  16.331 -0.1827 -0.0398  0.0024
32348ION     NA49195   8.864   3.845  14.537 -0.0294 -0.0053  0.0789
32349ION     NA49196  15.524  17.031   3.474  0.3000  0.0712  0.0159
32350ION     NA49197   3.428   8.391  10.971  0.0914  0.0295 -0.1392
32351ION     NA49198   1.017   5.556   5.892 -0.0251  0.1514  0.0650
32352ION     NA49199   2.886   0.291  10.481  0.0041  0.0975  0.0845
32353ION     NA49200   6.751  12.157  11.109 -0.0030 -0.0376 -0.0334
32354ION     NA49201  13.513   3.527  10.819 -0.3839 -0.1997  0.1912
32355ION     NA49202   6.473   9.988  11.167 -0.2017 -0.2212  0.3510
32356ION     NA49203   2.314  11.792  13.896  0.0466  0.0393 -0.2572
32357ION     NA49204  10.393   6.010  11.072  0.0728  0.1828  0.2038
32358ION     NA49205   4.185   4.277  10.814  0.0209  0.0556 -0.4211
32359ION     NA49206   7.435   0.453   5.826 -0.1277 -0.1123 -0.1883
32360ION     NA49207   8.224  16.371  10.525 -0.2405  0.1197 -0.0443
32361ION     NA49208  12.713  13.134   4.445 -0.0255 -0.1024  0.1192
32362ION     NA49209   9.344   1.204  10.250  0.0121  0.0250 -0.1258
32363ION     NA49210   4.738  10.805  10.886 -0.3356  0.1606  0.0696
32364ION     NA49211  15.296   9.642  10.702 -0.1049 -0.0085 -0.2134
32365ION     NA49212   7.131  11.464  11.284 -0.0141 -0.1432  0.0805
32366ION     NA49213  17.785   5.671  10.615  0.1562 -0.2367  0.2007
32367ION     NA49214  16.598  12.840  10.726 -0.2872  0.0578 -0.1865
32368ION     NA49215  16.846   6.926  10.743 -0.0547  0.2359 -0.2559
32369ION     NA49216   0.437   2.232  10.973 -0.1630 -0.2380 -0.2465
32370ION     NA49217  17.565  15.060  11.139  0.0862 -0.5273  0.2196
32371ION     NA49218  11.042   3.656   1.705 -0.2595 -0.0056 -0.0614
32372ION     NA49219  14.463   5.858  10.826 -0.0248  0.1175  0.1472
32373ION     NA49220   7.571  15.333  12.178  0.2218 -0.1073  0.1041
32374ION     NA49221   6.902   1.830  10.404  0.0665 -0.0571  0.1282
32375ION     NA49222  15.711  16.642  10.810 -0.1438 -0.1933 -0.1490
32376ION     NA49223   4.817   8.982  10.859 -0.1993  0.0407  0.0098
32377ION     NA49224  17.411   8.834  10.831  0.0398 -0.0739 -0.0241
32378ION     NA49225  13.688  13.736  11.269  0.1301 -0.0021  0.0296
32379ION     NA49226   6.823  13.278   4.166  0.0544  0.2483  0.1114
32380ION     NA49227   7.857   9.323   0.459 -0.0969  0.0340  0.0496
32381ION     NA49228  10.589  10.418  10.863 -0.2484  0.2371  0.0225
32382ION     NA49229   4.607   7.426  10.873  0.1098 -0.0875  0.2912
32383ION     NA49230   2.932   1.643   5.838  0.3253  0.2168 -0.0290
32384ION     NA49231   2.194   4.144  10.528  0.4293 -0.0725 -0.0469
32385ION     NA49232  12.230   6.342  10.857  0.1346 -0.0312  0.0292
32386ION     NA49233  11.908   6.289   5.317  0.0647  0.2778  0.1026
32387ION     NA49234  14.724   6.352   5.330  0.2124  0.0913  0.0602
32388ION     NA49235   3.691   5.045  11.069  0.2358 -0.0974  0.4798
32389ION     NA49236   7.518   6.710   3.411 -0.4525 -0.0072  0.1792
32390ION     NA49237   6.387  10.729   6.292  0.0938 -0.0808  0.0036
32391ION     NA49238   7.893   2.620  10.228 -0.2502 -0.1269  0.1968
32392ION     NA49239  12.878   9.732  11.215  0.0513  0.0091 -0.2076
32393ION     NA49240   4.118   2.839  10.407  0.1320 -0.1159  0.0897
32394ION     NA49241  13.497  17.592   4.107 -0.2680  0.0270  0.1210
32395ION     NA49242  16.860   8.503   1.419  0.0317 -0.0622  0.0944
32396ION     NA49243   4.391   0.491  13.358 -0.3076  0.0465 -0.0546
32397ION     NA49244  13.718  15.704  10.874  0.0545 -0.2499  0.1093
32398ION     NA49245   4.026  12.256  12.710  0.0027  0.0133  0.2513
32399ION     NA49246   6.645  16.066  10.590 -0.1074  0.2435  0.0123
32400ION     NA49247  13.847   8.377  10.775  0.0159  0.1905 -0.1982
32401ION     NA49248  10.072   2.482  10.642  0.2689 -0.0130 -0.0145
32402ION     NA49249  13.091  10.669   3.861  0.0352 -0.0010  0.3408
32403ION     NA49250  17.201   9.721  10.632 -0.0485 -0.0045  0.0832
32404ION     NA49251  14.714   4.845   1.023 -0.3824  0.0044 -0.3110
32405ION     NA49252  14.493  14.399  11.666  0.2746  0.2142  0.0763
32406ION     NA49253   4.459   0.613  10.154 -0.0704  0.0208  0.0645
32407ION     NA49254  10.309  12.834  10.715  0.0577  0.0207 -0.1938
32408ION     NA49255  13.164  15.285   6.064 -0.1835  0.1833 -0.2285
32409ION     NA49256   6.243   5.665  11.116  0.0342  0.2311  0.1993
32410ION     NA49257  15.408   5.059   5.591 -0.1877 -0.0072  0.1350
32411ION     NA49258  10.925  17.820   6.062  0.2929 -0.2423  0.2330
32412ION     NA49259  16.142   0.533  16.119  0.0443  0.1766 -0.1707
32413ION     NA49260   7.617  10.839  11.076  0.0445  0.0603 -0.1023
32414ION     NA49261   6.345   6.105   3.569  0.0642 -0.1008  0.1745
32415ION     NA49262  15.203  15.219  10.959 -0.0371  0.0093 -0.2739
32416ION     NA49263  13.756   9.331  15.420  0.0088  0.0645  0.1239
32417ION     NA49264   9.000   3.224  15.261  0.1251  0.1415 -0.1158
32418ION     NA49265   4.229  15.623  10.734  0.5118  0.0012 -0.0188
32419ION     NA49266   8.415  14.270   4.801 -0.2238 -0.1055 -0.0686
32420ION     NA49267   9.222  15.943   6.110  0.3365  0.2808  0.2105
32421ION     NA49268   4.340  17.361  10.630  0.0583  0.2050  0.0038
32422ION     NA49269   2.120   5.071  10.701 -0.1440  0.0929  0.0363
32423ION     NA49270   0.251  13.610  11.208  0.2127 -0.1595 -0.2994
32424ION     NA49271  11.475   6.887  10.855 -0.2962 -0.0189 -0.2062
32425ION     NA49272  12.556   9.299  13.030 -0.1144  0.4086  0.0231
32426ION     NA49273   5.233  10.593   2.558  0.2968  0.0496 -0.1646
32427ION     NA49274   6.015  17.451  11.369  0.1713  0.0959 -0.0291
32428ION     NA49275   0.675   0.423  10.656 -0.0586 -0.0936  0.0089
32429ION     NA49276   3.759   9.600   3.672  0.1583  0.1878 -0.1151
32430ION     NA49277  13.949   5.967   4.181 -0.2106  0.1830 -0.2000
32431ION     NA49278   4.301   8.299  11.063  0.1008  0.3703  0.0288
32432ION     NA49279  17.695   6.457  10.874  0.0986 -0.2486 -0.0241
32433ION     NA49280   3.312  12.489  14.673 -0.1147 -0.1329 -0.0650
32434ION     NA49281   9.745  11.045   6.040 -0.0497  0.2701 -0.1051
32435ION     NA49282   7.910   5.033  10.917 -0.0826  0.0081  0.2407
32436ION     NA49283  17.843   0.147  10.895 -0.1122  0.0780  0.0995
32437ION     NA49284   4.948   3.098  10.601 -0.0953  0.1453 -0.2264
32438ION     NA49285   8.548  13.576   4.320 -0.0845  0.0720  0.2970
32439ION     NA49286  17.434   5.621   4.374  0.0088 -0.1400 -0.0930
32440ION     NA49287   6.833   4.840  14.180  0.1619  0.0628 -0.1860
32441ION     NA49288  12.935  10.659  10.678  0.0107  0.2525  0.1076
32442ION     NA49289  16.702  12.444   6.058  0.0664 -0.1306  0.1016
32443ION     NA49290   7.703   2.400   6.085 -0.0187  0.0781  0.2883
32444ION     NA49291   6.589   0.829  14.196  0.0597  0.0827  0.1192
32445ION     NA49292  11.838  16.448   4.096  0.2199 -0.0397  0.1365
32446ION     NA49293  17.593  16.845  11.038  0.1320 -0.2253  0.1877
32447ION     NA49294   3.813   3.538  10.637  0.3135  0.1181  0.0600
32448ION     NA49295  12.354   7.315  10.878 -0.2509  0.0677  0.0942
32449ION     NA49296   5.797  16.481  10.336 -0.0113 -0.0045 -0.2116
32450ION     NA49297   0.215  17.060  15.184 -0.0263 -0.0027  0.0462
32451ION     NA49298  12.136   9.744   5.853 -0.0426 -0.2708 -0.1761
32452ION     NA49299   4.661   4.111  10.761 -0.1530 -0.1016  0.1676
32453ION     NA49300  11.257   1.213  10.670  0.1238  0.0154 -0.0750
32454ION     NA49301  12.408  16.199  11.111  0.3055 -0.1426  0.0309
32455ION     NA49302   2.341   6.526  13.335 -0.0936 -0.1819 -0.2057
32456ION     NA49303   4.575   5.662  11.025  0.1412 -0.0880 -0.2441
32457ION     NA49304  16.605  16.283   6.138  0.1090  0.0328 -0.1762
32458ION     NA49305  16.364  11.955  11.031 -0.1253  0.2120 -0.0216
32459ION     NA49306   7.607  13.403  11.103  0.3206  0.3107 -0.0425
32460ION     NA49307  13.886  16.564   5.801  0.0867  0.1010  0.1639
32461ION     NA49308   2.903   1.330  10.264 -0.0540 -0.2826 -0.0838
32462ION     NA49309   6.378  17.321  14.029  0.1992 -0.3973  0.0184
32463ION     NA49310   6.086   8.093   6.434 -0.1278  0.2900  0.2941
32464ION     NA49311   7.522   4.335  10.601 -0.1364 -0.0333  0.0464
32465ION     NA49312  11.691   9.100  10.687  0.0293 -0.0870  0.0150
32466ION     NA49313  10.149   9.764  10.629  0.0516 -0.4094 -0.0769
32467ION     NA49314  16.234  15.059   6.437 -0.0859  0.1651 -0.1627
32468ION     NA49315  13.789  10.579  10.955  0.1735  0.3046 -0.1713
32469ION     NA49316   6.957  13.112   5.996 -0.2623 -0.2675 -0.4231
32470ION     NA49317  16.006   0.009  10.654 -0.0085 -0.1726 -0.0054
32471ION     NA49318  14.389  14.883  14.500  0.1029 -0.0330 -0.0657
32472ION     NA49319  11.246  15.098  16.361 -0.2177  0.0287 -0.0172
32473ION     NA49320   6.629  16.956  10.208  0.1847 -0.0556 -0.0077
32474ION     NA49321  12.763  17.839   6.550 -0.2094 -0.2653 -0.1263
32475ION     NA49322  11.489   0.608   6.007 -0.2660 -0.1661 -0.2075
32476ION     NA49323   5.590  11.256   6.236  0.0759 -0.3264 -0.0167
32477ION     NA49324   0.194  14.221  15.799  0.4094  0.3609 -0.2538
32478ION     NA49325  17.502  13.063  10.802  0.2062  0.1480  0.0959
32479ION     NA49326  14.026   5.919   6.081 -0.0461  0.3370  0.0096
32480ION     NA49327  17.882   6.200  13.241  0.0618 -0.2407  0.0644
32481ION     NA49328  13.016   5.526   3.146  0.0460  0.4582 -0.1716
32482ION     NA49329  11.765  14.267  12.553  0.2542 -0.0930  0.2420
32483ION     NA49330   0.710  12.898  11.064 -0.3472  0.0052  0.0936
32484ION     NA49331   6.891  14.032  15.804 -0.1658  0.0271 -0.0001
32485ION     NA49332  10.797  12.198  10.894 -0.2541 -0.1425 -0.1905
32486ION     NA49333   7.557   9.026  15.612 -0.3933 -0.3204  0.1117
32487ION     NA49334   9.928   2.854  14.642 -0.1814  0.0915 -0.3311
32488ION     NA49335  13.765  11.594  11.129  0.3514 -0.0059  0.1390
32489ION     NA49336   4.440  12.154  10.913  0.1340  0.1451  0.0234
32490ION     NA49337  14.377   3.783  10.948 -0.2739  0.0338 -0.4130
32491ION     NA49338  17.418   1.045  10.722  0.0035 -0.3293  0.2502
32492ION     NA49339  16.046   6.736  10.753  0.0141  0.1869  0.0163
32493ION     NA49340   2.772   3.069  10.436  0.2676  0.2180  0.0294
32494ION     NA49341   1.079   7.456  10.696  0.0955 -0.1972 -0.3160
32495ION     NA49342   7.234   6.005  12.300 -0.1630  0.0811  0.2666
32496ION     NA49343  15.040   1.664   3.461 -0.0528 -0.0975  0.2111
32497ION     NA49344   8.830   5.878   0.200 -0.6136 -0.0070 -0.2823
32498ION     NA49345   8.733   2.954  10.283  0.5523  0.0436  0.2397
32499ION     NA49346   9.228   9.287  10.744 -0.0968 -0.2302 -0.2798
32500ION     NA49347  10.767   4.053  10.707 -0.0897 -0.0631 -0.2621
32501ION     NA49348  13.072  14.218  10.822 -0.0738 -0.3876  0.1098
32502ION     NA49349   6.084  15.248  10.684 -0.2062  0.1411  0.1368
32503ION     NA49350   7.208   3.004  10.589 -0.0920 -0.0225  0.0420
32504ION     NA49351  13.737  10.117   5.943 -0.1008  0.2500 -0.0043
32505ION     NA49352  16.412  15.887  10.828 -0.4170 -0.3754 -0.0390
32506ION     NA49353   2.141  12.960   0.007 -0.0596  0.0688  0.3592
32507ION     NA49354   7.241   7.528  13.157 -0.1422 -0.0394  0.3292
32508ION     NA49355  15.293   0.646   6.007 -0.0201  0.0337 -0.2046
32509ION     NA49356   2.383  17.400  16.168 -0.1495  0.2196  0.4075
32510ION     NA49357  14.743   8.086   5.969 -0.2713  0.1115 -0.1336
32511ION     NA49358   9.876   5.441  10.727  0.3237 -0.0524  0.0180
32512ION     NA49359   3.391   4.525  14.323 -0.1961  0.1346 -0.3102
32513ION     NA49360  14.556   3.715  15.157 -0.1459  0.2270  0.2973
32514ION     NA49361  11.910   5.540  10.750  0.0137  0.1876  0.1847
32515ION     NA49362  16.205  16.361  10.828 -0.3741  0.3771 -0.0228
32516ION     NA49363   1.183  10.435  10.498 -0.0772  0.1244  0.2769
32517ION     NA49364  14.097  17.695  10.905  0.1891  0.0113  0.0022
32518ION     NA49365  16.928  11.333  10.830 -0.0174  0.0178 -0.1660
32519ION     NA49366  17.437  12.405   6.016  0.0535  0.0477  0.1764
32520ION     NA49367  14.646  13.969  10.960  0.1905  0.1139 -0.0091
32521ION     NA49368  17.129   2.008  10.498 -0.2107 -0.3967 -0.0674
32522ION     NA49369   5.006  17.920  10.242 -0.0230  0.1753 -0.1536
32523ION     NA49370  16.476   1.248  10.587  0.4275 -0.2064 -0.0161
32524ION     NA49371   3.485  15.820   5.508  0.1045  0.0400 -0.0269
32525ION     NA49372   5.544  17.699  13.377  0.2425 -0.0393 -0.2324
32526ION     NA49373   8.736  16.507   5.559  0.0265 -0.1206 -0.1893
32527ION     NA49374  15.283   3.960   6.002  0.3191 -0.0448  0.1931
32528ION     NA49375   8.765   6.671  11.008 -0.2211 -0.0828 -0.1437
32529ION     NA49376  15.293   4.879  10.722  0.1138  0.2709  0.4443
32530ION     NA49377  12.422   7.420   6.194 -0.1376 -0.1015 -0.1469
32531ION     NA49378  11.263  16.095  10.948 -0.1613  0.0701 -0.0685
32532ION     NA49379   0.159  10.880  13.847 -0.0949  0.1126 -0.2334
32533ION     NA49380   1.299  13.399  16.321 -0.1820 -0.2381 -0.0882
32534ION     NA49381  14.622   6.557  13.411 -0.2541  0.3240  0.2900
32535ION     NA49382  17.038  12.857   2.052 -0.2270  0.0054 -0.4096
32536ION     NA49383  13.099  11.615   0.190  0.1979  0.2289  0.0658
32537ION     NA49384   8.083  10.941   5.854  0.2114  0.0177  0.4345
32538ION     NA49385   8.604  10.563   1.781  0.0824  0.1767  0.1644
32539ION     NA49386  15.378  14.232  11.136 -0.0223  0.0599 -0.1123
32540ION     NA49387   6.609   9.432  11.338  0.3446  0.2228  0.3656
32541ION     NA49388  11.408  14.307  15.873 -0.1027  0.0334 -0.0397
32542ION     NA49389  16.762  15.166  10.987  0.0234 -0.1117 -0.1695
32543ION     NA49390   9.367   6.024  10.912  0.2822  0.2569  0.2515
32544ION     NA49391   9.668   5.587  12.257  0.0636 -0.2019 -0.0705
32545ION     NA49392   2.962   3.892  10.547  0.2297  0.2042  0.0159
32546ION     NA49393   4.980   4.812  10.852 -0.0120 -0.0184 -0.1348
32547ION     NA49394   9.213  14.710  11.623  0.1326 -0.2578  0.1896
32548ION     NA49395  16.294  12.846   3.340 -0.2662  0.1573 -0.1359
32549ION     NA49396  13.155   7.875  10.738 -0.0340  0.0423 -0.1381
32550ION     NA49397   7.132   8.803  11.739 -0.2315 -0.0427 -0.1498
32551ION     NA49398   1.513   3.977  10.472 -0.1315 -0.0259 -0.0966
32552ION     NA49399  17.843  11.600  10.738  0.1480 -0.2404  0.1132
32553ION     NA49400  15.645   6.663   0.752 -0.0684 -0.1375 -0.3313
32554ION     NA49401  16.929   5.953  10.902  0.0821 -0.0180  0.1528
32555ION     NA49402   2.515  10.820   5.826 -0.0658 -0.2067  0.0674
32556ION     NA49403   5.626   7.766  16.090  0.0186  0.0096 -0.2866
32557ION     NA49404  15.434  10.965  11.294 -0.1656  0.0751  0.2230
32558ION     NA49405  15.827   8.391  10.976  0.1875  0.0155  0.4822
32559ION     NA49406   7.970   9.144   6.002  0.1668 -0.2943 -0.0364
32560ION     NA49407   2.479   5.432   4.845 -0.1423 -0.0424  0.0461
32561ION     NA49408   2.910  13.971  11.137 -0.1921  0.3103  0.0790
32562ION     NA49409   6.371   9.466  12.630  0.0775 -0.2805  0.0145
32563ION     NA49410  15.216  12.305  11.123  0.4196 -0.0229  0.0215
32564ION     NA49411   6.491   0.883  13.167 -0.0256 -0.1119 -0.2299
32565ION     NA49412   7.047   6.850   2.012  0.0696  0.0066 -0.2306
32566ION     NA49413   6.143  12.759  10.876 -0.1708 -0.0695 -0.3205
32567ION     NA49414   8.344   2.743  14.456  0.1287 -0.0231  0.2204
32568ION     NA49415  12.187   1.061  10.814  0.0500  0.0141  0.1991
32569ION     NA49416   3.452  10.562  10.884  0.0626  0.0081 -0.2513
32570ION     NA49417   1.900   8.046  10.844 -0.0448 -0.3476 -0.1981
32571ION     NA49418   7.934  15.661  10.773  0.1724  0.0228 -0.1035
32572ION     NA49419  16.028  17.147  16.121  0.1094 -0.0733  0.1531
32573ION     NA49420   4.720   7.400   6.347 -0.1478  0.0659  0.2573
32574ION     NA49421   9.026  12.427  10.891  0.1188  0.3014 -0.0498
32575ION     NA49422   6.213   0.015  15.581 -0.3378 -0.1806  0.1613
32576ION     NA49423  11.514   3.239   3.860 -0.1609 -0.0626  0.0109
32577ION     NA49424   5.730  11.326  10.992  0.4150 -0.1188  0.1190
32578ION     NA49425   0.298   5.492  16.502 -0.2354  0.0023 -0.0410
32579ION     NA49426   5.202  16.584  14.141  0.0156 -0.2638 -0.1844
32580ION     NA49427   6.150   5.058   4.041  0.2432  0.0438 -0.2245
32581ION     NA49428   5.499   1.035   2.351  0.0876  0.1326 -0.0169
32582ION     NA49429  10.415   3.133   5.777  0.1310  0.0332  0.1567
32583ION     NA49430  13.561   1.139  16.535 -0.1075  0.0158  0.1458
32584ION     NA49431   5.980  13.602  13.785  0.0519  0.0468 -0.0076
32585ION     NA49432   7.976   8.327  11.222 -0.2609 -0.1775  0.1507
32586ION     NA49433   0.581   3.692  10.218  0.2320 -0.0953  0.1704
32587ION     NA49434   3.906   6.773   6.095  0.1429  0.0632 -0.0607
32588ION     NA49435   4.065  12.435   4.322 -0.1264 -0.0258 -0.2630
32589ION     NA49436   2.465  17.851  10.726  0.0369 -0.1758  0.0338
32590ION     NA49437  16.228   5.383  10.581  0.0884 -0.4567 -0.1427
32591ION     NA49438   1.619  14.127   5.110  0.0652 -0.0091 -0.0512
32592ION     NA49439   5.233   6.446   6.243 -0.0160 -0.2243 -0.0664
32593ION     NA49440  12.228  14.602  10.914 -0.0622  0.0140 -0.2262
32594ION     NA49441   8.260   0.479   5.687 -0.0832  0.0953 -0.2115
32595ION     NA49442   0.784  11.234  10.770  0.1527 -0.0992 -0.2383
32596ION     NA49443  17.128   5.019  10.533 -0.2004 -0.2506 -0.3536
32597ION     NA49444  10.912  16.181   4.244  0.0337  0.2489 -0.0220
32598ION     NA49445   6.398   7.233  11.339 -0.0731 -0.0937  0.2570
32599ION     NA49446  14.945   8.935   5.956 -0.1128 -0.0487 -0.1015
32600ION     NA49447  10.558  11.372  11.014  0.1131 -0.1666  0.1618
32601ION     NA49448  14.188  10.852  11.162 -0.0118  0.1168 -0.2150
32602ION     NA49449   0.910   7.235   2.399 -0.1956 -0.1263  0.2805
32603ION     NA49450   0.946   2.695  10.327  0.0207  0.2379  0.2592
32604ION     NA49451  10.853  16.815  10.770 -0.0632  0.1503 -0.0896
32605ION     NA49452  15.399  15.803  10.974  0.2280 -0.3841 -0.0115
32606ION     NA49453  16.791   6.196  12.348 -0.1894  0.3424  0.3667
32607ION     NA49454   8.595   2.293  15.547  0.1794 -0.1538 -0.2074
32608ION     NA49455  12.635  16.922  11.139 -0.1688  0.0266 -0.2139
32609ION     NA49456  11.377   2.755  10.706  0.1257 -0.0288 -0.0210
32610ION     NA49457  10.454  15.573  11.888 -0.3181 -0.0941  0.0518
32611ION     NA49458  16.397  15.963   0.637 -0.2671  0.0185 -0.1047
32612ION     NA49459   1.034  17.508  10.578 -0.0537 -0.0406  0.2205
32613ION     NA49460  17.803   2.501   2.388 -0.0188  0.0716  0.2142
32614ION     NA49461   3.904   6.262  12.130  0.2774 -0.0798  0.0208
32615ION     NA49462  13.527  17.246  10.699 -0.1637  0.0324 -0.1670
32616ION     NA49463   4.845   2.296  10.578 -0.1899 -0.0383 -0.1034
32617ION     NA49464  17.247  14.156  13.283 -0.1540  0.1834  0.0578
32618ION     NA49465  16.331  16.010  15.444 -0.0106  0.2454  0.0299
32619ION     NA49466   6.831  16.694  12.797  0.0108 -0.0872  0.2960
32620ION     NA49467   0.649  10.849   1.079 -0.1128 -0.1475 -0.1320
32621ION     NA49468   5.149   8.105  11.060 -0.1458  0.3723  0.0199
32622ION     NA49469   1.822   2.684  10.461 -0.1396  0.0417 -0.0644
32623ION     NA49470   7.302   8.514   4.723  0.2440 -0.0536 -0.0973
32624ION     NA49471   3.130  17.115  14.252 -0.2180 -0.1989  0.3435
32625ION     NA49472   5.529  14.101  12.794  0.0214  0.3672 -0.1576
32626ION     NA49473   8.426   0.976  10.450  0.3277  0.0647 -0.2694
32627ION     NA49474  14.081   6.989  11.674 -0.0177  0.1069 -0.4345
32628ION     NA49475   5.131   9.808   3.179  0.1183  0.1302 -0.2037
32629ION     NA49476  13.462   1.063  10.538  0.0285 -0.2580  0.0003
32630ION     NA49477  10.989   8.636   5.411 -0.3160  0.0033 -0.3776
32631ION     NA49478  17.134  10.151  14.464  0.0253 -0.1194  0.0957
32632ION     NA49479   6.233  16.668   1.579  0.2654  0.2463  0.0410
32633ION     NA49480   4.884  16.664   0.099 -0.1559 -0.0151  0.0737
32634ION     NA49481  13.595   6.306  10.981 -0.0364  0.0993 -0.0966
32635ION     NA49482  13.715  15.841   1.297  0.3204  0.1140  0.1827
32636ION     NA49483  10.005   0.576   5.728 -0.1651  0.1796  0.1799
32637ION     NA49484   3.099   9.112  10.629  0.0592  0.1926 -0.0192
32638ION     NA49485  17.035  12.066  11.430 -0.0099 -0.0904  0.0491
32639ION     NA49486   4.423   7.129   2.831  0.0438  0.3570 -0.2062
32640ION     NA49487  14.907   8.198  10.830 -0.1639 -0.0128  0.0037
32641ION     NA49488  13.515  13.888   1.236  0.2165 -0.1111 -0.2632
32642ION     NA49489  10.183   7.595  10.776 -0.1366 -0.0897 -0.1650
32643ION     NA49490   1.186  14.546   5.971  0.1375 -0.1043  0.0524
32644ION     NA49491   8.345   4.336  10.485 -0.0940  0.1008 -0.0617
32645ION     NA49492   5.289  15.687  10.354 -0.0627 -0.2733 -0.0387
32646ION     NA49493   7.852   7.430  11.316 -0.0865 -0.2255 -0.1553
32647ION     NA49494  14.733   7.665   4.523 -0.0745 -0.1957 -0.0546
32648ION     NA49495   5.678   9.462  11.082  0.3641 -0.0070  0.0791
32649ION     NA49496   1.654  13.839   5.932  0.0475  0.2627 -0.2167
32650ION     NA49497   2.148  10.623  10.837 -0.1616  0.1503  0.0760
32651ION     NA49498   4.225   8.820   1.695 -0.2524 -0.2510 -0.0345
32652ION     NA49499  10.614   6.636  10.791  0.2457  0.1270  0.1146
32653ION     NA49500   2.370   7.897   3.211 -0.1429  0.1664  0.0654
32654ION     NA49501   3.804   1.293  10.397 -0.1306  0.0642 -0.0769
32655ION     NA49502  10.673  13.838  11.051  0.1919  0.3145 -0.2602
32656ION     NA49503   1.558   7.308  10.862 -0.0503  0.0734 -0.1790
32657ION     NA49504   3.591  12.252  10.877 -0.1196  0.2309 -0.1798
32658ION     NA49505  17.245   0.263  10.744 -0.0323  0.2395  0.0731
32659ION     NA49506   3.200  15.843  10.561  0.3318  0.1692 -0.0282
32660ION     NA49507  14.476   2.361  10.530  0.0935  0.0493  0.2620
32661ION     NA49508   4.895   4.790  11.364  0.0397  0.2994  0.2884
32662ION     NA49509  12.714  11.847  10.945  0.0174 -0.2102 -0.2464
32663ION     NA49510  17.245  15.878  10.931 -0.1343  0.0941  0.0378
32664ION     NA49511  11.194  14.523   5.706  0.1125 -0.0399  0.0940
32665ION     NA49512  15.809   0.801  10.672  0.0364  0.2480  0.0253
32666ION     NA49513   0.386   7.469  10.744 -0.1329  0.1740 -0.1009
32667ION     NA49514  17.659   8.985   5.819  0.0916 -0.3766 -0.3262
32668ION     NA49515   3.736  15.479   2.968 -0.0031  0.0748 -0.0269
32669ION     NA49516   8.618   1.795  10.357 -0.1033 -0.0725 -0.0568
32670ION     NA49517   5.226  16.736  10.358 -0.0227  0.2834 -0.0914
32671ION     NA49518  13.848   3.012  13.769  0.0077  0.3050  0.2868
32672ION     NA49519  17.714  10.617   1.478 -0.3546  0.2292  0.2352
32673ION     NA49520  11.423  14.284  10.987 -0.3655  0.0917  0.0141
32674ION     NA49521  14.084   3.523   5.876  0.0028 -0.1234  0.0097
32675ION     NA49522   8.125  11.514  11.093 -0.0053  0.0276  0.0210
32676ION     NA49523  14.935  16.703  11.005  0.3814 -0.0862  0.1466
32677ION     NA49524   1.723  16.512   5.182  0.2151  0.0731  0.0911
32678ION     NA49525   2.717   6.460   5.090 -0.1883 -0.1120 -0.1181
32679ION     NA49526   1.457  15.736  10.680 -0.1843  0.0598 -0.1619
32680ION     NA49527   1.896  12.055  11.069 -0.4238 -0.1861  0.0690
32681ION     NA49528  11.963  14.959  15.297 -0.0302 -0.0759  0.2391
32682ION     NA49529   0.330  15.562  11.805 -0.0547  0.1529 -0.0313
32683ION     NA49530  17.654   7.625   0.723  0.0603  0.1859  0.1650
32684ION     NA49531  10.799  12.396   6.116 -0.3112 -0.0672 -0.1182
32685ION     NA49532   8.473  11.002   6.198 -0.0814 -0.0794  0.0464
32686ION     NA49533   8.254  17.101  10.528 -0.2085 -0.2006 -0.0036
32687ION     NA49534   6.480   3.174  10.803  0.0185 -0.1114 -0.1802
32688ION     NA49535  11.900   9.816  10.816 -0.0382 -0.1257 -0.1524
32689ION     NA49536  14.178   7.691   5.693 -0.3181 -0.2277  0.0522
32690ION     NA49537   5.697   8.930  11.030 -0.0509  0.0552  0.0342
32691ION     NA49538   8.445   7.933  11.062  0.0031 -0.0289  0.2076
32692ION     NA49539   5.317   0.712  10.348  0.1048 -0.2000  0.0177
32693ION     NA49540  10.443   3.259  10.718  0.0892 -0.3402  0.2348
32694ION     NA49541   7.758  14.716  10.868 -0.2224 -0.1498 -0.0870
32695ION     NA49542   0.986   1.723  10.347 -0.3672  0.3289 -0.0421
32696ION     NA49543   1.394  12.069  11.066  0.2356  0.0730  0.1444
32697ION     NA49544   8.436  17.938  10.325  0.2257  0.1744  0.1227
32698ION     NA49545   9.242  10.914  10.761  0.1351  0.1099  0.1474
32699ION     NA49546   5.716  10.414   6.278 -0.0636 -0.4402 -0.2679
32700ION     NA49547  15.209  13.383  11.041 -0.1437  0.2594  0.0664
32701ION     NA49548   7.651  11.213  12.714  0.0375  0.0333 -0.0736
32702ION     NA49549   3.139   6.494  10.912  0.0312 -0.1165  0.1510
32703ION     NA49550   3.721   7.530  11.109  0.1114 -0.0204  0.0842
32704ION     NA49551   3.827  15.268  10.842 -0.1528  0.1821  0.0303
32705ION     NA49552  11.452  15.715   2.700 -0.0876  0.3324 -0.0065
32706ION     NA49553   9.006  16.695  10.520  0.1838  0.0850  0.1752
32707ION     NA49554  11.815   0.364  10.729  0.0702 -0.0518  0.2444
32708ION     NA49555   9.884  10.929  10.746  0.1612 -0.0060  0.0528
32709ION     NA49556  13.052   1.705  10.620 -0.1605  0.3831  0.0323
32710ION     NA49557  15.382  10.071   2.010  0.2550  0.0533 -0.0041
32711ION     NA49558  10.209   9.549  14.160 -0.1887 -0.1308  0.0161
32712ION     NA49559  13.285  16.485  10.915  0.0402  0.0326 -0.1260
32713ION     NA49560   0.269  15.455  10.856  0.1997  0.0927 -0.2749
32714ION     NA49561   2.367  15.480  10.778 -0.0735 -0.0419  0.2045
32715ION     NA49562  13.469   9.833  10.573 -0.1193 -0.0828 -0.0108
32716ION     NA49563   2.697  12.183  10.844  0.1353  0.0021 -0.2694
32717ION     NA49564   8.846   8.284  10.775  0.3562 -0.1133 -0.0940
32718ION     NA49565  16.613   3.628  10.093 -0.3568  0.0267 -0.2393
32719ION     NA49566   8.717   7.957   3.684 -0.0604 -0.2528  0.0729
32720ION     NA49567  13.566   4.314  10.937 -0.0032  0.0923  0.1928
32721ION     NA49568  14.395  10.529  15.906 -0.1217 -0.1934 -0.1042
32722ION     NA49569  15.059   4.083  10.610  0.1607 -0.1819  0.0548
32723ION     NA49570   1.226  14.204  11.820  0.2792  0.2488 -0.1702
32724ION     NA49571   0.287   5.537   3.500  0.0765  0.2761 -0.2505
32725ION     NA49572   1.598   6.368  10.494 -0.2827 -0.6922  0.3045
32726ION     NA49573   9.051  17.555  10.613  0.1350  0.1924 -0.2452
32727ION     NA49574  12.145  16.564   2.011 -0.0820 -0.1222  0.1298
32728ION     NA49575   9.418   0.188  10.435 -0.2682 -0.0183  0.0984
32729ION     NA49576  13.500   0.301  10.711 -0.3486 -0.4194  0.1026
32730ION     NA49577   4.282  10.575  10.855 -0.2170 -0.0115  0.0116
32731ION     NA49578   4.823  16.462  10.534  0.2037  0.1001  0.1341
32732ION     NA49579   0.034   2.575  10.176 -0.3077  0.1927  0.0477
32733ION     NA49580  14.645  16.990  15.590 -0.0021 -0.2023  0.0723
32734ION     NA49581  10.217  13.787   6.057  0.1278 -0.1373  0.1848
32735ION     NA49582   1.108   0.938  11.357 -0.1042 -0.1265  0.0134
32736ION     NA49583   7.665   6.923   6.321  0.0388  0.2079  0.1325
32737ION     NA49584   6.093   8.092  11.195 -0.0043 -0.2271 -0.0490
32738ION     NA49585   0.037  12.953  11.674  0.1575 -0.0296  0.4597
32739ION     NA49586   6.896  15.445  15.032 -0.3245 -0.5086  0.0723
32740ION     NA49587   8.604   5.783  10.917 -0.0638  0.0885 -0.2050
32741ION     NA49588  16.601  10.360   6.014  0.1242 -0.1140 -0.1985
32742ION     NA49589   6.984   7.951  11.282  0.3857  0.1083 -0.0369
32743ION     NA49590  10.857   5.010  13.431 -0.1321 -0.0408 -0.0371
32744ION     NA49591  17.226   9.994   2.632  0.1375 -0.0426 -0.0113
32745ION     NA49592  13.690   2.608  10.625 -0.1363  0.2668 -0.0819
32746ION     NA49593   9.653   1.367  16.368 -0.1456 -0.2753 -0.0489
32747ION     NA49594  15.779  12.880  11.003  0.2265  0.2960 -0.0680
32748ION     NA49595   5.161  12.608  10.918  0.2261  0.0065 -0.0670
32749ION     NA49596  10.545  17.648  10.540 -0.0687  0.1478 -0.1071
32750ION     NA49597   4.504  14.380   1.301 -0.0946 -0.1362 -0.0831
32751ION     NA49598   1.197  15.679  15.304 -0.4410 -0.2003 -0.0363
32752ION     NA49599  10.634   5.060  10.725  0.0733 -0.1538  0.0020
32753ION     NA49600   6.775  13.781   0.754 -0.2042  0.1764 -0.0617
32754ION     NA49601   0.965   8.335  10.810  0.0553  0.2057 -0.4528
32755ION     NA49602   1.812  11.382   5.744 -0.3282  0.0283 -0.0838
32756ION     NA49603  16.360   4.414  10.186  0.0073 -0.2630 -0.1761
32757ION     NA49604   0.368  16.911  10.734 -0.1835  0.1069  0.2931
32758ION     NA49605   6.078   6.421  16.211  0.2840  0.0103  0.0773
32759ION     NA49606  15.513   7.633  10.870 -0.0460  0.1548 -0.3228
32760ION     NA49607  12.735  13.821   3.383 -0.2321  0.0645 -0.0170
32761ION     NA49608  11.590   8.387  15.128  0.0211 -0.1955  0.0878
32762ION     NA49609  16.581   9.010  10.745  0.0334  0.1213  0.0395
32763ION     NA49610   5.850  10.063  11.814  0.1470  0.0316 -0.0504
32764ION     NA49611  13.903  14.556  10.867  0.0974  0.0805 -0.1471
32765ION     NA49612   5.992  14.079  10.847  0.0264 -0.1035 -0.0148
32766ION     NA49613  13.660  12.326  12.718 -0.3122 -0.0068  0.3999
32767ION     NA49614  11.868   8.181  10.859  0.1988 -0.0612 -0.0921
32768ION     NA49615   5.314   9.991   0.573  0.1155 -0.2674 -0.0264
32769ION     NA49616  15.118   0.266  10.704  0.1192 -0.1353 -0.0206
32770ION     NA49617   6.112   4.756  10.783 -0.1242 -0.0694  0.0577
32771ION     NA49618  14.418   4.666  10.938  0.1193  0.1300  0.1241
32772ION     NA49619   5.317  17.352  10.271  0.0930  0.2809  0.0705
32773ION     NA49620   9.390  13.253  10.859  0.0008 -0.0682  0.0419
32774ION     NA49621  16.340   9.901  10.706  0.2449 -0.1591 -0.1403
32775ION     NA49622   2.102   3.945   2.161 -0.0144 -0.1956 -0.0023
32776ION     NA49623   3.726   4.494  10.813  0.1610 -0.2006 -0.0571
32777ION     NA49624   4.293  11.462  10.946  0.1270 -0.0305  0.1221
32778ION     NA49625   1.274  14.651  11.007 -0.3147 -0.1861 -0.0928
32779ION     NA49626  14.420  15.299  10.988  0.2100 -0.2294 -0.0197
32780ION     NA49627  11.728   4.189  10.631 -0.0141 -0.0735  0.0544
32781ION     NA49628  12.833   8.571  10.636 -0.0311 -0.1880  0.6267
32782ION     NA49629   3.673   3.798   2.219 -0.2099  0.0646  0.4298
32783ION     NA49630  14.596   7.520  12.170  0.0833 -0.0966 -0.0652
32784ION     NA49631  14.978   3.251   6.075 -0.1239  0.1035  0.1560
32785ION     NA49632  11.567   7.730  10.943  0.1834  0.2427 -0.1488
32786ION     NA49633  17.210  12.253  10.881 -0.0805  0.0636 -0.1507
32787ION     NA49634   9.933  16.590  10.604 -0.0793 -0.1257  0.1455
32788ION     NA49635  16.741   7.541  11.381 -0.0013 -0.0034  0.2058
32789ION     NA49636  13.987  15.359   6.007 -0.0323  0.0785 -0.0606
32790ION     NA49637   4.792   4.811   6.043 -0.0236 -0.1328 -0.1871
32791ION     NA49638  16.567   7.329  12.997 -0.0918 -0.0663  0.3054
32792ION     NA49639  16.658   3.701  13.093  0.0616  0.2313  0.1701
32793ION     NA49640  17.157   2.777   5.308 -0.0825  0.2452  0.0048
32794ION     NA49641   1.796   7.799  15.191  0.0341  0.3143  0.0955
32795ION     NA49642   0.701  16.989   5.980 -0.0765 -0.0208  0.0962
32796ION     NA49643  11.419  11.534  15.546  0.1997 -0.1083 -0.1241
32797ION     NA49644  12.670   1.723   6.064  0.1742  0.1957 -0.3437
32798ION     NA49645   8.408   8.908  10.852 -0.1110 -0.2072  0.0073
32799ION     NA49646  14.975  13.646   0.171  0.0399 -0.0020  0.1718
32800ION     NA49647   9.876   3.945  10.350 -0.3186  0.0210  0.0713
32801ION     NA49648   7.783  17.640   5.935  0.1862 -0.1411 -0.0778
32802ION     NA49649  11.746   1.905  10.942  0.0949 -0.1408  0.1304
32803ION     NA49650  13.887   1.781  10.743 -0.0051 -0.1033 -0.2723
32804ION     NA49651   2.699   7.840   0.308  0.3529  0.1860  0.0328
32805ION     NA49652   0.124   8.399  10.687  0.2422  0.0667 -0.3098
32806ION     NA49653  16.017   5.508   4.371  0.2078  0.2790 -0.1152
32807ION     NA49654  13.939   3.279  11.653  0.0093  0.0379  0.1911
32808ION     NA49655  10.124  11.326   2.168  0.1992 -0.0174 -0.0037
32809ION     NA49656   1.145   1.171  10.414 -0.4382 -0.1936  0.4140
32810ION     NA49657   6.722   2.381   3.643 -0.1624  0.2095 -0.2130
32811ION     NA49658  13.378   8.064  16.238 -0.0333  0.1276 -0.0420
32812ION     NA49659   6.836  14.460  10.894 -0.1135 -0.2225  0.1262
32813ION     NA49660   3.367   0.401   3.251  0.0632  0.3574  0.0986
32814ION     NA49661   2.976   2.873   2.130  0.4353 -0.2247 -0.0482
32815ION     NA49662   3.063  12.965  10.957 -0.1529 -0.0309 -0.0478
32816ION     NA49663   4.674   1.405  10.459 -0.2001  0.0816 -0.0038
32817ION     NA49664   7.297   5.673  11.126  0.0208 -0.0083  0.1842
32818ION     NA49665   8.783  11.807   4.419 -0.1091 -0.2836  0.0314
32819ION     NA49666  14.331  12.393  10.915  0.0512 -0.2142 -0.0687
32820ION     NA49667   4.025  16.270  10.714 -0.0429  0.1718  0.0800
32821ION     NA49668  10.611  10.824   3.627  0.1841 -0.0678 -0.1263
32822ION     NA49669   3.287   0.568  10.268 -0.0892  0.1308 -0.1685
32823ION     NA49670  15.424  11.155  10.802 -0.0419 -0.0176  0.4343
32824ION     NA49671   1.995   3.242  10.466  0.0076  0.0262  0.3499
32825ION     NA49672  10.172   8.911  10.561 -0.2406  0.1170  0.0246
32826ION     NA49673   4.682  13.472  10.948  0.0166 -0.1066 -0.0702
32827ION     NA49674   9.244   4.492  12.884 -0.0175 -0.0777 -0.1516
32828ION     NA49675   6.166   1.152  10.411 -0.1302  0.1098 -0.1065
32829ION     NA49676   7.380  15.917  10.974  0.1998 -0.0986 -0.1749
32830ION     NA49677  11.113   3.632  10.753  0.2039 -0.1145 -0.1446
32831ION     NA49678  14.373  10.563   2.055  0.0078  0.0354  0.1311
32832ION     NA49679   7.362   7.088  11.454  0.1904 -0.1218 -0.0418
32833ION     NA49680  14.517  15.908  10.827  0.3566 -0.2033 -0.1502
32834ION     NA49681  10.894   1.861  10.503  0.2578  0.0329 -0.0538
32835ION     NA49682  14.097   7.733   3.600  0.1228 -0.0469 -0.2504
32836ION     NA49683  16.152   0.275   6.073 -0.0364  0.1274  0.0506
32837ION     NA49684   3.990  14.566   3.616 -0.2088  0.0745  0.0465
32838ION     NA49685  14.358  17.279  12.085  0.1494  0.1582 -0.2953
32839ION     NA49686  13.967  11.417   5.877 -0.0117 -0.1431  0.0566
32840ION     NA49687  14.301  15.290   2.721  0.3546 -0.3448  0.1353
32841ION     NA49688   6.538  15.220   5.070  0.1703 -0.1475  0.0043
32842ION     NA49689  14.637   9.099   0.418 -0.0069  0.3478  0.2819
32843ION     NA49690  12.243  12.538   1.469 -0.0617  0.1639  0.1161
32844ION     NA49691  16.299  14.357  11.267 -0.0709 -0.0614 -0.0589
32845ION     NA49692   9.375  14.152  16.230 -0.0308  0.2287 -0.0827
32846ION     NA49693   2.626  12.631  15.363  0.1952  0.1632  0.0465
32847ION     NA49694   2.599   2.113  10.716 -0.3362  0.0432  0.2750
32848ION     NA49695  14.506   8.981  10.670 -0.1530  0.1570 -0.0955
32849ION     NA49696   9.318   7.492  10.925 -0.0635  0.3861  0.0301
32850ION     NA49697  12.642   2.499   5.852 -0.0715 -0.0085 -0.0162
32851ION     NA49698   5.696  14.476  10.708 -0.2587  0.0374  0.1610
32852ION     NA49699   4.020   8.890  12.742  0.1264  0.1557  0.0547
32853ION     NA49700  10.747   0.440  10.661  0.2578 -0.2243 -0.1014
32854ION     NA49701  15.422  14.854   6.361  0.1571 -0.1421 -0.1668
32855ION     NA49702   5.133  10.079  11.025  0.2240 -0.1526 -0.3486
32856ION     NA49703  10.411   1.890  11.861  0.4616  0.0347  0.0288
32857ION     NA49704   5.918   0.130  10.406 -0.2312 -0.1030 -0.1395
32858ION     NA49705  16.137   1.103   3.741 -0.1273  0.1206  0.1899
32859ION     NA49706   6.473  17.411   2.916  0.1855 -0.0317 -0.0522
32860ION     NA49707   5.666   4.388  11.778  0.2538  0.2807 -0.0054
32861ION     NA49708   0.204   3.061  14.251 -0.1931 -0.3591  0.2609
32862ION     NA49709  17.466  17.921   6.018 -0.1096  0.0634 -0.2455
32863ION     NA49710  13.891   7.478  10.706 -0.0294  0.3285  0.1753
32864ION     NA49711   9.434   3.384  16.078 -0.0389  0.0161  0.2177
32865ION     NA49712  15.208   0.838  12.024 -0.1979 -0.1621 -0.0202
32866ION     NA49713  11.647   9.636   5.765 -0.1269 -0.1279  0.1652
32867ION     NA49714  17.933   4.788  10.630  0.1210  0.2013 -0.0095
32868ION     NA49715  14.981   1.781   5.591  0.0790  0.0603 -0.2681
32869ION     NA49716  10.293   8.541   0.221  0.0650  0.2461  0.2127
32870ION     NA49717   9.940  16.862   0.966  0.1464 -0.2454  0.0124
32871ION     NA49718   3.999   2.066  10.348  0.0851  0.2853  0.0180
32872ION     NA49719   0.842  12.041  11.134 -0.2640  0.1387 -0.1741
32873ION     NA49720   6.700  13.529  10.887  0.1073 -0.2775  0.2117
32874ION     NA49721   1.498  14.252   6.236  0.1289 -0.2379 -0.0392
32875ION     NA49722  10.527   0.753   0.259  0.1421  0.3150  0.0166
32876ION     NA49723  15.902   4.285  10.366 -0.1201  0.0296 -0.0035
32877ION     NA49724  14.831  13.048  10.934 -0.0401  0.2710 -0.1787
32878ION     NA49725   5.968   3.554   2.139 -0.1891  0.1772  0.2517
32879ION     NA49726  16.701  16.606  16.726 -0.1745 -0.0524  0.1089
32880ION     NA49727   1.693   8.877  10.782  0.1376 -0.0004  0.1298
32881ION     NA49728   1.844  16.323  10.610  0.0514 -0.2673  0.1157
32882ION     NA49729  13.109  17.933   5.558  0.4305  0.0940 -0.0082
32883ION     NA49730  14.152   2.103   5.915 -0.1207 -0.0904  0.1923
32884ION     NA49731   3.547   0.291   2.341 -0.0130 -0.0892  0.1323
32885ION     NA49732  16.107  11.904   3.847  0.0449  0.1673  0.0220
32886ION     NA49733   2.663   9.938  10.768  0.1036  0.0879 -0.1790
32887ION     NA49734   1.402   5.781  10.656  0.0016 -0.1475 -0.0015
32888ION     NA49735  11.275  17.656  10.848 -0.1618 -0.1424 -0.2678
32889ION     NA49736   9.562   9.016  12.876 -0.0742 -0.0726  0.1268
32890ION     NA49737   8.050   6.315   6.281  0.0623 -0.0435  0.2235
32891ION     NA49738   6.579  16.506   5.358 -0.2304  0.1723 -0.0007
32892ION     NA49739   0.203  10.670  10.556  0.2757  0.2534 -0.1093
32893ION     NA49740   8.109   1.367   5.530 -0.3134 -0.1426  0.1257
32894ION     NA49741   8.480  13.360  10.942  0.3553 -0.2417 -0.3735
32895ION     NA49742   8.832  11.067   3.088  0.0826 -0.0250  0.1169
32896ION     NA49743   0.916   4.346  10.602 -0.1028 -0.2509  0.0102
32897ION     NA49744  15.746   2.529  10.440  0.1093 -0.2320 -0.2531
32898ION     NA49745  11.276   6.033  10.810 -0.4102  0.2684  0.0705
32899ION     NA49746   5.926  10.523  10.990  0.0503 -0.1035 -0.0992
32900ION     NA49747  15.654  10.427  10.702 -0.2281  0.0625 -0.0315
32901ION     NA49748   8.699   9.019  16.330  0.1094 -0.2216 -0.4172
32902ION     NA49749   3.536   6.867  10.899 -0.2023 -0.1283  0.0952
32903ION     NA49750  16.949  14.408   6.460 -0.0215  0.2547 -0.0059
32904ION     NA49751  16.119   6.406   5.877 -0.0724  0.2819 -0.0431
32905ION     NA49752  13.421  12.333  11.004  0.3086  0.3342 -0.2094
32906ION     NA49753  10.519  15.986  10.693  0.1930  0.0268 -0.1074
32907ION     NA49754  12.903  13.213  10.776 -0.3035 -0.0629  0.0289
32908ION     NA49755  14.551   8.958  11.178 -0.3249  0.0147  0.2244
32909ION     NA49756  15.290   6.828  12.175  0.2223 -0.1154 -0.0157
32910ION     NA49757  16.262  16.462   0.910  0.2402  0.2297  0.0773
32911ION     NA49758   2.569  11.383  10.919  0.0191  0.0707  0.0878
32912ION     NA49759  16.000   7.601  10.832 -0.0167  0.0323  0.0789
32913ION     NA49760  11.813  11.915  11.043  0.2126 -0.0800  0.1256
32914ION     NA49761   2.453  13.527  15.905 -0.0291  0.2834 -0.2555
32915ION     NA49762   5.594   1.647  10.395  0.2791  0.0354 -0.0058
32916ION     NA49763   4.060   6.216  10.995  0.2244  0.0098 -0.3923
32917ION     NA49764   2.552   7.357  11.711 -0.1663  0.1343 -0.0918
32918ION     NA49765   1.035   9.635  10.612 -0.2922 -0.1342  0.0026
32919ION     NA49766   7.653  12.305  11.022 -0.0260  0.4627  0.0850
32920ION     NA49767   9.367  10.137  10.840 -0.0055 -0.0212  0.0937
32921ION     NA49768   6.056   3.752  10.805 -0.2465 -0.0133  0.3873
32922ION     NA49769  16.782   2.732  10.130  0.1687  0.0028 -0.0670
32923ION     NA49770  13.162  17.573   1.195  0.1340  0.0782  0.0624
32924ION     NA49771   9.733   6.774  11.074  0.3316 -0.2360  0.2811
32925ION     NA49772   2.736   0.625   5.409  0.0560  0.3097  0.0378
32926ION     NA49773   1.438  16.120   1.658  0.2598  0.0046  0.1933
32927ION     NA49774  12.796   4.123   5.855 -0.1419  0.0391  0.1340
32928ION     NA49775   2.560  15.341  11.233  0.2156  0.2414  0.1329
32929ION     NA49776   1.532   6.764   4.421 -0.0954  0.1506  0.0710
32930ION     NA49777  16.491   2.074  10.683  0.2074 -0.3245  0.3895
32931ION     NA49778   8.641  13.069   0.130  0.0872  0.2321  0.2294
32932ION     NA49779  14.671  11.579  10.989 -0.0729  0.0818  0.0045
32933ION     NA49780   4.114   3.141   5.946 -0.1033  0.2396 -0.2726
32934ION     NA49781   7.439  16.671  10.746  0.4785 -0.2347 -0.1966
32935ION     NA49782  14.378  10.926  16.723 -0.3286  0.1099  0.1276
32936ION     NA49783  16.962  14.960   6.330  0.0163  0.0018 -0.0088
32937ION     NA49784   4.050  14.266  10.980 -0.2622 -0.0861 -0.0651
32938ION     NA49785   1.917  17.111  10.828  0.0461 -0.1103  0.1571
32939ION     NA49786  11.841   1.378   6.052 -0.0609 -0.0670 -0.2555
32940ION     NA49787   3.503  10.088  10.667 -0.1968  0.0109  0.4102
32941ION     NA49788  14.990  16.921   4.240  0.1409 -0.0875 -0.1589
32942ION     NA49789   9.580   2.256   2.534  0.1032 -0.2758  0.0808
32943ION     NA49790  13.752   8.663  12.408 -0.0492  0.0281  0.4774
32944ION     NA49791   5.083   6.366  11.068 -0.1198 -0.3870 -0.0014
32945ION     NA49792   7.069   4.956  10.709 -0.0950  0.0093 -0.1307
32946ION     NA49793   7.915  11.178  13.643  0.0649 -0.1250  0.3382
32947ION     NA49794   4.518   4.985  11.024  0.0654 -0.0718  0.2869
32948ION     NA49795   0.177  13.414   6.410 -0.2085 -0.1091 -0.3025
32949ION     NA49796  10.144  17.008   6.039 -0.1348  0.0479  0.0670
32950ION     NA49797  11.682   8.875   6.002  0.0296  0.2613 -0.2094
32951ION     NA49798   5.427  13.264  10.949  0.1042  0.3777  0.3188
32952ION     NA49799   6.542   4.342  11.824 -0.1604 -0.2405  0.2654
32953ION     NA49800   9.029   4.986  10.711  0.0207 -0.0681 -0.0871
32954ION     NA49801  10.343   8.216  10.853  0.1189 -0.1977  0.2875
32955ION     NA49802  15.524   1.786  10.854  0.1351 -0.1087  0.1511
32956ION     NA49803  16.997   6.632   2.081  0.1673 -0.0099  0.2316
32957ION     NA49804  10.026   8.464   5.397 -0.2850  0.1054  0.0059
32958ION     NA49805  15.716  17.142  10.640  0.0514  0.2040 -0.0791
32959ION     NA49806  10.748   5.335   3.762  0.0583  0.0223  0.0166
32960ION     NA49807   7.340   4.103   5.578  0.0018 -0.0091 -0.1005
32961ION     NA49808   0.839  16.323  10.712 -0.0379  0.4532 -0.0181
32962ION     NA49809  17.639   7.832  10.937 -0.1725  0.2834  0.3762
32963ION     NA49810   5.436   5.395  11.025  0.1593  0.0214  0.1217
32964ION     NA49811  11.964  13.394  11.023 -0.1795  0.1452  0.1093
32965ION     NA49812  12.075   8.804  10.745  0.1439  0.0210  0.0084
32966ION     NA49813  16.580  15.725   5.874  0.0717 -0.1054 -0.1240
32967ION     NA49814   8.030   2.722  11.156  0.1328 -0.0328 -0.0920
32968ION     NA49815   3.884  14.734  12.062  0.2976 -0.0969  0.1176
32969ION     NA49816   7.395   9.994  10.981  0.0491  0.0228 -0.0831
32970ION     NA49817   6.737  10.721  10.978  0.3077  0.0362 -0.3207
32971ION     NA49818  16.114  13.887  11.051  0.2124 -0.1737  0.0581
32972ION     NA49819   8.591   6.040   6.170  0.0706 -0.0919 -0.3225
32973ION     NA49820  16.239  10.914  10.913 -0.2270 -0.0375  0.1113
32974ION     NA49821  13.948  12.448   6.123  0.1838  0.0232 -0.0412
32975ION     NA49822   3.941  12.992  11.074  0.0033  0.0414 -0.1648
32976ION     NA49823  10.150  15.308  10.910 -0.0182 -0.1092 -0.1568
32977ION     NA49824   1.684  10.981   5.982  0.0210 -0.0564  0.0505
32978ION     NA49825   1.240  10.043  14.077 -0.1742  0.0233  0.0547
32979ION     NA49826   1.644  12.929  11.181 -0.0337 -0.2498 -0.1477
32980ION     NA49827   9.418   8.590  10.739 -0.0032 -0.1503 -0.1885
32981ION     NA49828  11.167   8.616  10.752 -0.2103  0.1284  0.0679
32982ION     NA49829   2.380  12.737   1.562 -0.0526  0.3526  0.0529
32983ION     NA49830  15.655   5.690  10.688 -0.2267 -0.1401 -0.0613
32984ION     NA49831  12.610   9.434  10.906  0.2040  0.1161 -0.1468
32985ION     NA49832   4.646  13.441  14.584  0.2327 -0.1770 -0.1469
32986ION     NA49833  13.169  17.536  10.965 -0.1549 -0.1039  0.4340
32987ION     NA49834  14.303   9.904  10.734  0.0931 -0.1980  0.1621
32988ION     NA49835   5.519   7.374  11.157 -0.1235 -0.0879 -0.2940
32989ION     NA49836  10.584  13.690  13.885 -0.0210  0.1348 -0.1584
32990ION     NA49837  13.774   9.276  10.683  0.1719 -0.0398  0.2996
32991ION     NA49838   0.325  14.473  11.018  0.1094  0.2566  0.1314
32992ION     NA49839   2.887   7.721  10.972 -0.0954  0.0754  0.0918
32993ION     NA49840  12.852   3.711  10.524  0.1040  0.1022  0.2584
32994ION     NA49841   7.846  14.212  10.944 -0.1260 -0.2742 -0.0670
32995ION     NA49842  12.443   2.542  10.826 -0.1461 -0.2916  0.1218
32996ION     NA49843   3.577  13.719   6.227 -0.1393 -0.0563  0.1664
32997ION     NA49844   0.396   9.085  10.604  0.0946 -0.0165  0.1399
32998ION     NA49845  15.899   3.339  14.804 -0.1409  0.2184 -0.0311
32999ION     NA49846  12.244  17.573  11.009 -0.3168  0.2016 -0.0545
33000ION     NA49847  16.256  12.105  14.708 -0.0557 -0.0429  0.2884
33001ION     NA49848  11.745   5.970  13.191  0.0462 -0.1328  0.0284
33002ION     NA49849   5.387   9.633   5.988 -0.0356  0.5843  0.1856
33003ION     NA49850  14.478   6.783  10.929 -0.2331  0.3112  0.2857
33004ION     NA49851   8.831  17.438   4.066 -0.2767 -0.2196  0.0078
33005ION     NA49852   6.740   6.351  11.220 -0.2252 -0.1601  0.1323
33006ION     NA49853   5.718  14.438   5.557  0.0312 -0.0519 -0.1101
33007ION     NA49854  12.012   3.372  10.798 -0.0727  0.3758 -0.2373
33008ION     NA49855   9.638  15.859  10.624  0.4554 -0.0221 -0.1600
33009ION     NA49856   5.463   5.376  13.950  0.0740 -0.0043  0.0112
33010ION     NA49857  13.174   4.699   3.946 -0.1678 -0.1528 -0.1255
33011ION     NA49858   9.326   2.222  10.142  0.0905  0.1030  0.4145
33012ION     NA49859  16.686   8.120  10.710 -0.0065  0.0437  0.2251
33013ION     NA49860   9.784  11.732  11.044 -0.0762 -0.1264  0.0193
33014ION     NA49861   0.003  16.757   5.536 -0.0949  0.0997 -0.0008
33015ION     NA49862   3.917  15.256  14.677 -0.0096 -0.1340  0.1372
33016ION     NA49863   3.302   3.522  12.843  0.1718 -0.0329  0.1531
33017ION     NA49864   0.965   4.591  16.662  0.0105 -0.1614 -0.1314
33018ION     NA49865  16.826  10.210   0.022 -0.0517 -0.1420 -0.1168
33019ION     NA49866   2.381   7.004  10.813  0.0119 -0.0505  0.2260
33020ION     NA49867  11.452  10.636  10.902  0.0492 -0.3667  0.0863
33021ION     NA49868   3.336   1.492  10.342  0.1936 -0.6075 -0.5040
33022ION     NA49869   0.108   8.854   4.950 -0.4923 -0.0475 -0.1740
33023ION     NA49870   8.393  10.541  11.032 -0.1337  0.0786  0.0064
33024ION     NA49871  11.277  12.552  10.902  0.0321  0.2122 -0.1267
33025ION     NA49872   0.560   9.350   4.079 -0.0356  0.0536  0.0956
33026ION     NA49873   3.246   2.861  10.514 -0.1259  0.1660 -0.4364
33027ION     NA49874   0.624   0.727   5.939  0.0911 -0.0149 -0.2465
33028ION     NA49875  15.176  11.889  13.603  0.0814 -0.1443 -0.2225
33029ION     NA49876   6.093  17.524   0.551 -0.1067  0.3002  0.0021
33030ION     NA49877  17.610   9.697   5.935 -0.4058 -0.4355  0.1629
  17.95321  17.95321  16.79971
